                               Psi4 1.4a3.dev225

  ==> Input File <==

--------------------------------------------------------------------------
#psi4
#
memory 32 gb

molecule  {
0 1
  O       -0.0649480    -2.0007500    -0.4572220
  N        2.4573690    -1.4749290     0.4038410
  C        0.8099710     0.2105070    -0.2160820
  C        2.1525410    -0.1743900     0.0797160
  C       -0.2789970    -0.7898520    -0.2615780
  C       -1.6915990    -0.3449750    -0.0589870
  C        0.5343510     1.5458860    -0.5628900
  C        3.1364470     0.8361460     0.1179860
  C        1.5277130     2.5174420    -0.5614560
  C        2.8303350     2.1515420    -0.2122750
  C       -2.0458488     0.6754728     0.9129009
  C       -2.7013800    -1.0161980    -0.7629970
  C       -3.3755740     0.9555500     1.0975090
  C       -4.0377320    -0.6802290    -0.5577760
  C        3.8275740    -1.9241930     0.5318010
  C       -4.3779170     0.3056950     0.3735650
  H       -0.4794410     1.8136050    -0.8470490
  H        4.1617050     0.5791300     0.3641360
  H        1.7801010    -2.1461120     0.0568400
  H        1.2958720     3.5406330    -0.8437660
  H        3.6204230     2.8995150    -0.1925990
  H       -1.2541740     1.1373190     1.4511930
  H       -2.4205700    -1.7983260    -1.4636490
  H       -3.6394530     1.7093650     1.8355280
  H       -4.8171580    -1.1915530    -1.1177270
  H        4.4331860    -1.7182640    -0.3623870
  H        3.8136890    -3.0019290     0.7024740
  H        4.3131750    -1.4541550     1.3926990
  H       -5.4217990     0.5615290     0.5392290
units angstrom
no_reorient  #important for SAPT in psi4, default
symmetry c1  #important for SAPT in psi4, default
}

set PROPERTIES_ORIGIN ["COM"]
properties('MP2/aug-cc-pvtz', properties = ['dipole'])
--------------------------------------------------------------------------

    Molecular point group: c1
  Charge       = 0
  Multiplicity = 1
  Basis Set: AUG-CC-PVTZ
    Blend: AUG-CC-PVTZ
  Basis Set: (AUG-CC-PVTZ AUX)
    Blend: AUG-CC-PVTZ-JKFIT

    Orbital Energies [Eh]
    ---------------------

    Doubly Occupied:

       1A    -20.539152     2A    -15.561822     3A    -11.339843
       4A    -11.297176     5A    -11.257043     6A    -11.253648
       7A    -11.252628     8A    -11.252565     9A    -11.251572
      10A    -11.250865    11A    -11.247609    12A    -11.244384
      13A    -11.242921    14A    -11.238569    15A    -11.228901
      16A    -11.225920    17A     -1.371953    18A     -1.244329
      19A     -1.161000    20A     -1.142036    21A     -1.054053
      22A     -1.029427    23A     -1.018408    24A     -1.009928
      25A     -0.929421    26A     -0.889584    27A     -0.847254
      28A     -0.832380    29A     -0.806945    30A     -0.769821
      31A     -0.718222    32A     -0.702096    33A     -0.685235
      34A     -0.655963    35A     -0.645293    36A     -0.633004
      37A     -0.619667    38A     -0.615083    39A     -0.605511
      40A     -0.600444    41A     -0.599794    42A     -0.577505
      43A     -0.546039    44A     -0.542222    45A     -0.531378
      46A     -0.522899    47A     -0.511804    48A     -0.503984
      49A     -0.496671    50A     -0.486195    51A     -0.429397
      52A     -0.418757    53A     -0.351742    54A     -0.346362
      55A     -0.339904    56A     -0.291986

  @DF-RHF Final Energy:  -667.25953766915302

   => Energetics <=

    Nuclear Repulsion Energy =           1001.7542653989435166
    One-Electron Energy =               -2894.4909684254407694
    Two-Electron Energy =                1225.4771653573441199
    Total Energy =                       -667.2595376691531328
  Basis Set: (AUG-CC-PVTZ AUX)
    Blend: AUG-CC-PVTZ-RI
    Molecular point group: c1

    Geometry (in Angstrom), charge = 0, multiplicity = 1:

       Center              X                  Y                   Z               Mass
    ------------   -----------------  -----------------  -----------------  -----------------
         O           -0.038980133454    -1.998398127748    -0.452019755484    15.994914619570
         N            2.483336866546    -1.472577127748     0.409043244516    14.003074004430
         C            0.835938866546     0.212858872252    -0.210879755484    12.000000000000
         C            2.178508866546    -0.172038127748     0.084918244516    12.000000000000
         C           -0.253029133454    -0.787500127748    -0.256375755484    12.000000000000
         C           -1.665631133454    -0.342623127748    -0.053784755484    12.000000000000
         C            0.560318866546     1.548237872252    -0.557687755484    12.000000000000
         C            3.162414866546     0.838497872252     0.123188244516    12.000000000000
         C            1.553680866546     2.519793872252    -0.556253755484    12.000000000000
         C            2.856302866546     2.153893872252    -0.207072755484    12.000000000000
         C           -2.019880933454     0.677824672252     0.918103144516    12.000000000000
         C           -2.675412133454    -1.013846127748    -0.757794755484    12.000000000000
         C           -3.349606133454     0.957901872252     1.102711244516    12.000000000000
         C           -4.011764133454    -0.677877127748    -0.552573755484    12.000000000000
         C            3.853541866546    -1.921841127748     0.537003244516    12.000000000000
         C           -4.351949133454     0.308046872252     0.378767244516    12.000000000000
         H           -0.453473133454     1.815956872252    -0.841846755484     1.007825032230
         H            4.187672866546     0.581481872252     0.369338244516     1.007825032230
         H            1.806068866546    -2.143760127748     0.062042244516     1.007825032230
         H            1.321839866546     3.542984872252    -0.838563755484     1.007825032230
         H            3.646390866546     2.901866872252    -0.187396755484     1.007825032230
         H           -1.228206133454     1.139670872252     1.456395244516     1.007825032230
         H           -2.394602133454    -1.795974127748    -1.458446755484     1.007825032230
         H           -3.613485133454     1.711716872252     1.840730244516     1.007825032230
         H           -4.791190133454    -1.189201127748    -1.112524755484     1.007825032230
         H            4.459153866546    -1.715912127748    -0.357184755484     1.007825032230
         H            3.839656866546    -2.999577127748     0.707676244516     1.007825032230
         H            4.339142866546    -1.451803127748     1.397901244516     1.007825032230
         H           -5.395831133454     0.563880872252     0.544431244516     1.007825032230

  Basis Set: AUG-CC-PVTZ
    Blend: AUG-CC-PVTZ
  Basis Set: (AUG-CC-PVTZ AUX)
    Blend: AUG-CC-PVTZ-JKFIT
	 Reference Energy          =    -667.2595376691530191 [Eh]
	 Singles Energy            =      -0.0000000000000000 [Eh]
	 Same-Spin Energy          =      -0.7346323420467671 [Eh]
	 Opposite-Spin Energy      =      -2.2655951202621512 [Eh]
	 Correlation Energy        =      -3.0002274623089180 [Eh]
	 Total Energy              =    -670.2597651314619043 [Eh]

	 ================> DF-SCS-MP2 Energies <==================
	-----------------------------------------------------------
	 SCS Same-Spin Scale       =       0.3333333333333333 [-]
	 SCS Opposite-Spin Scale   =       1.2000000000000000 [-]
	 SCS Same-Spin Energy      =      -0.2448774473489224 [Eh]
	 SCS Opposite-Spin Energy  =      -2.7187141443145815 [Eh]
	 SCS Correlation Energy    =      -2.9635915916635036 [Eh]
	 SCS Total Energy          =    -670.2231292608165631 [Eh]
	-----------------------------------------------------------

  Dipole Moment: [D]
     X:     0.3066      Y:     1.1955      Z:     0.3375     Total:     1.2795

*** Psi4 exiting successfully. Buy a developer a beer!
