                               Psi4 1.4a2.dev612

  ==> Input File <==

--------------------------------------------------------------------------
#psi4
#
memory 32 gb

molecule  {
0 1
  O       -0.0649480    -2.0007500    -0.4572220
  N        2.4573690    -1.4749290     0.4038410
  C        0.8099710     0.2105070    -0.2160820
  C        2.1525410    -0.1743900     0.0797160
  C       -0.2789970    -0.7898520    -0.2615780
  C       -1.8806022    -0.2854514    -0.0318808
  C        0.5343510     1.5458860    -0.5628900
  C        3.1364470     0.8361460     0.1179860
  C        1.5277130     2.5174420    -0.5614560
  C        2.8303350     2.1515420    -0.2122750
  C       -2.0336590     0.6403590     0.8794580
  C       -2.7013800    -1.0161980    -0.7629970
  C       -3.3755740     0.9555500     1.0975090
  C       -4.0377320    -0.6802290    -0.5577760
  C        3.8275740    -1.9241930     0.5318010
  C       -4.3779170     0.3056950     0.3735650
  H       -0.4794410     1.8136050    -0.8470490
  H        4.1617050     0.5791300     0.3641360
  H        1.7801010    -2.1461120     0.0568400
  H        1.2958720     3.5406330    -0.8437660
  H        3.6204230     2.8995150    -0.1925990
  H       -1.2541740     1.1373190     1.4511930
  H       -2.4205700    -1.7983260    -1.4636490
  H       -3.6394530     1.7093650     1.8355280
  H       -4.8171580    -1.1915530    -1.1177270
  H        4.4331860    -1.7182640    -0.3623870
  H        3.8136890    -3.0019290     0.7024740
  H        4.3131750    -1.4541550     1.3926990
  H       -5.4217990     0.5615290     0.5392290
units angstrom
no_reorient  #important for SAPT in psi4, default
symmetry c1  #important for SAPT in psi4, default
}

set PROPERTIES_ORIGIN ["COM"]
properties('MP2/aug-cc-pvtz', properties = ['dipole'])
--------------------------------------------------------------------------

    Molecular point group: c1
  Charge       = 0
  Multiplicity = 1
  Basis Set: AUG-CC-PVTZ
    Blend: AUG-CC-PVTZ
  Basis Set: (AUG-CC-PVTZ AUX)
    Blend: AUG-CC-PVTZ-JKFIT

    Orbital Energies [Eh]
    ---------------------

    Doubly Occupied:

       1A    -20.543197     2A    -15.562025     3A    -11.343414
       4A    -11.297214     5A    -11.257223     6A    -11.252691
       7A    -11.252643     8A    -11.245684     9A    -11.245082
      10A    -11.243821    11A    -11.241653    12A    -11.238545
      13A    -11.236335    14A    -11.234111    15A    -11.228948
      16A    -11.225997    17A     -1.369499    18A     -1.244434
      19A     -1.182801    20A     -1.142204    21A     -1.048290
      22A     -1.035092    23A     -1.023214    24A     -1.010046
      25A     -0.928200    26A     -0.876522    27A     -0.846336
      28A     -0.829808    29A     -0.808203    30A     -0.771847
      31A     -0.718564    32A     -0.700811    33A     -0.679106
      34A     -0.654950    35A     -0.644040    36A     -0.636209
      37A     -0.619825    38A     -0.615007    39A     -0.610948
      40A     -0.597572    41A     -0.596837    42A     -0.577204
      43A     -0.544114    44A     -0.541967    45A     -0.530813
      46A     -0.525022    47A     -0.517931    48A     -0.505893
      49A     -0.502025    50A     -0.489146    51A     -0.429258
      52A     -0.391924    53A     -0.354289    54A     -0.349523
      55A     -0.345237    56A     -0.292275

  @DF-RHF Final Energy:  -667.22348820530567

   => Energetics <=

    Nuclear Repulsion Energy =           1002.1927502803862353
    One-Electron Energy =               -2895.3613342442281464
    Two-Electron Energy =                1225.9450957585361266
    Total Energy =                       -667.2234882053057845
  Basis Set: (AUG-CC-PVTZ AUX)
    Blend: AUG-CC-PVTZ-RI
    Molecular point group: c1

    Geometry (in Angstrom), charge = 0, multiplicity = 1:

       Center              X                  Y                   Z               Mass
    ------------   -----------------  -----------------  -----------------  -----------------
         O           -0.028929144945    -1.999785707079    -0.451659544669    15.994914619570
         N            2.493387855055    -1.473964707079     0.409403455331    14.003074004430
         C            0.845989855055     0.211471292921    -0.210519544669    12.000000000000
         C            2.188559855055    -0.173425707079     0.085278455331    12.000000000000
         C           -0.242978144945    -0.788887707079    -0.256015544669    12.000000000000
         C           -1.844583344945    -0.284487107079    -0.026318344669    12.000000000000
         C            0.570369855055     1.546850292921    -0.557327544669    12.000000000000
         C            3.172465855055     0.837110292921     0.123548455331    12.000000000000
         C            1.563731855055     2.518406292921    -0.555893544669    12.000000000000
         C            2.866353855055     2.152506292921    -0.206712544669    12.000000000000
         C           -1.997640144945     0.641323292921     0.885020455331    12.000000000000
         C           -2.665361144945    -1.015233707079    -0.757434544669    12.000000000000
         C           -3.339555144945     0.956514292921     1.103071455331    12.000000000000
         C           -4.001713144945    -0.679264707079    -0.552213544669    12.000000000000
         C            3.863592855055    -1.923228707079     0.537363455331    12.000000000000
         C           -4.341898144945     0.306659292921     0.379127455331    12.000000000000
         H           -0.443422144945     1.814569292921    -0.841486544669     1.007825032230
         H            4.197723855055     0.580094292921     0.369698455331     1.007825032230
         H            1.816119855055    -2.145147707079     0.062402455331     1.007825032230
         H            1.331890855055     3.541597292921    -0.838203544669     1.007825032230
         H            3.656441855055     2.900479292921    -0.187036544669     1.007825032230
         H           -1.218155144945     1.138283292921     1.456755455331     1.007825032230
         H           -2.384551144945    -1.797361707079    -1.458086544669     1.007825032230
         H           -3.603434144945     1.710329292921     1.841090455331     1.007825032230
         H           -4.781139144945    -1.190588707079    -1.112164544669     1.007825032230
         H            4.469204855055    -1.717299707079    -0.356824544669     1.007825032230
         H            3.849707855055    -3.000964707079     0.708036455331     1.007825032230
         H            4.349193855055    -1.453190707079     1.398261455331     1.007825032230
         H           -5.385780144945     0.562493292921     0.544791455331     1.007825032230

  Basis Set: AUG-CC-PVTZ
    Blend: AUG-CC-PVTZ
  Basis Set: (AUG-CC-PVTZ AUX)
    Blend: AUG-CC-PVTZ-JKFIT
	 Reference Energy          =    -667.2234882053056708 [Eh]
	 Singles Energy            =      -0.0000000000000000 [Eh]
	 Same-Spin Energy          =      -0.7351366988848824 [Eh]
	 Opposite-Spin Energy      =      -2.2662051093903428 [Eh]
	 Correlation Energy        =      -3.0013418082752255 [Eh]
	 Total Energy              =    -670.2248300135809131 [Eh]

	 ================> DF-SCS-MP2 Energies <==================
	-----------------------------------------------------------
	 SCS Same-Spin Scale       =       0.3333333333333333 [-]
	 SCS Opposite-Spin Scale   =       1.2000000000000000 [-]
	 SCS Same-Spin Energy      =      -0.2450455662949608 [Eh]
	 SCS Opposite-Spin Energy  =      -2.7194461312684113 [Eh]
	 SCS Correlation Energy    =      -2.9644916975633722 [Eh]
	 SCS Total Energy          =    -670.1879799028690741 [Eh]
	-----------------------------------------------------------

  Dipole Moment: [D]
     X:     0.6439      Y:     1.0934      Z:     0.2965     Total:     1.3031

*** Psi4 exiting successfully. Buy a developer a beer!
