                               Psi4 1.3.2 release

  ==> Input File <==

--------------------------------------------------------------------------
#psi4
#
memory 32 gb

molecule  {
0 1
  O       -0.0649480    -2.0007500    -0.4572220
  N        2.4573690    -1.4749290     0.4038410
  C        0.9034477     0.2370816    -0.2019499
  C        2.1525410    -0.1743900     0.0797160
  C       -0.2789970    -0.7898520    -0.2615780
  C       -1.6915990    -0.3449750    -0.0589870
  C        0.5343510     1.5458860    -0.5628900
  C        3.1364470     0.8361460     0.1179860
  C        1.5277130     2.5174420    -0.5614560
  C        2.8303350     2.1515420    -0.2122750
  C       -2.0336590     0.6403590     0.8794580
  C       -2.7013800    -1.0161980    -0.7629970
  C       -3.3755740     0.9555500     1.0975090
  C       -4.0377320    -0.6802290    -0.5577760
  C        3.8275740    -1.9241930     0.5318010
  C       -4.3779170     0.3056950     0.3735650
  H       -0.4794410     1.8136050    -0.8470490
  H        4.1617050     0.5791300     0.3641360
  H        1.7801010    -2.1461120     0.0568400
  H        1.2958720     3.5406330    -0.8437660
  H        3.6204230     2.8995150    -0.1925990
  H       -1.2541740     1.1373190     1.4511930
  H       -2.4205700    -1.7983260    -1.4636490
  H       -3.6394530     1.7093650     1.8355280
  H       -4.8171580    -1.1915530    -1.1177270
  H        4.4331860    -1.7182640    -0.3623870
  H        3.8136890    -3.0019290     0.7024740
  H        4.3131750    -1.4541550     1.3926990
  H       -5.4217990     0.5615290     0.5392290
units angstrom
no_reorient  #important for SAPT in psi4, default
symmetry c1  #important for SAPT in psi4, default
}

set PROPERTIES_ORIGIN ["COM"]
properties('MP2/aug-cc-pvtz', properties = ['dipole'])
--------------------------------------------------------------------------

    Molecular point group: c1
  Charge       = 0
  Multiplicity = 1
  Basis Set: AUG-CC-PVTZ
    Blend: AUG-CC-PVTZ
  Basis Set: (AUG-CC-PVTZ AUX)
    Blend: AUG-CC-PVTZ-JKFIT

    Orbital Energies [Eh]
    ---------------------

    Doubly Occupied:

       1A    -20.544327     2A    -15.556557     3A    -11.346191
       4A    -11.283141     5A    -11.255069     6A    -11.253485
       7A    -11.252141     8A    -11.251971     9A    -11.249269
      10A    -11.248731    11A    -11.246759    12A    -11.246526
      13A    -11.245181    14A    -11.237558    15A    -11.229406
      16A    -11.226165    17A     -1.374120    18A     -1.244170
      19A     -1.164930    20A     -1.145172    21A     -1.051227
      22A     -1.027117    23A     -1.023106    24A     -1.012243
      25A     -0.924985    26A     -0.883665    27A     -0.843906
      28A     -0.837414    29A     -0.811390    30A     -0.771079
      31A     -0.717450    32A     -0.697417    33A     -0.684526
      34A     -0.654712    35A     -0.646467    36A     -0.633100
      37A     -0.621338    38A     -0.614410    39A     -0.608665
      40A     -0.599818    41A     -0.596150    42A     -0.577041
      43A     -0.544517    44A     -0.540171    45A     -0.528453
      46A     -0.521151    47A     -0.515696    48A     -0.510285
      49A     -0.502536    50A     -0.489364    51A     -0.427462
      52A     -0.412282    53A     -0.349490    54A     -0.346171
      55A     -0.343225    56A     -0.295678

  @DF-RHF Final Energy:  -667.25271985757786

   => Energetics <=

    Nuclear Repulsion Energy =           1002.5520139312633319
    One-Electron Energy =               -2896.0803180919187980
    Two-Electron Energy =                1226.2755843030774940
    Total Energy =                       -667.2527198575778584
  Basis Set: (AUG-CC-PVTZ AUX)
    Blend: AUG-CC-PVTZ-RI
    Molecular point group: c1

    Geometry (in Angstrom), charge = 0, multiplicity = 1:

       Center              X                  Y                   Z               Mass
    ------------   -----------------  -----------------  -----------------  -----------------
         O           -0.044986764044    -1.997912715437    -0.450922029696    15.994914619570
         N            2.477330235956    -1.472091715437     0.410140970304    14.003074004430
         C            0.923408935956     0.239918884563    -0.195649929696    12.000000000000
         C            2.172502235956    -0.171552715437     0.086015970304    12.000000000000
         C           -0.259035764044    -0.787014715437    -0.255278029696    12.000000000000
         C           -1.671637764044    -0.342137715437    -0.052687029696    12.000000000000
         C            0.554312235956     1.548723284563    -0.556590029696    12.000000000000
         C            3.156408235956     0.838983284563     0.124285970304    12.000000000000
         C            1.547674235956     2.520279284563    -0.555156029696    12.000000000000
         C            2.850296235956     2.154379284563    -0.205975029696    12.000000000000
         C           -2.013697764044     0.643196284563     0.885757970304    12.000000000000
         C           -2.681418764044    -1.013360715437    -0.756697029696    12.000000000000
         C           -3.355612764044     0.958387284563     1.103808970304    12.000000000000
         C           -4.017770764044    -0.677391715437    -0.551476029696    12.000000000000
         C            3.847535235956    -1.921355715437     0.538100970304    12.000000000000
         C           -4.357955764044     0.308532284563     0.379864970304    12.000000000000
         H           -0.459479764044     1.816442284563    -0.840749029696     1.007825032230
         H            4.181666235956     0.581967284563     0.370435970304     1.007825032230
         H            1.800062235956    -2.143274715437     0.063139970304     1.007825032230
         H            1.315833235956     3.543470284563    -0.837466029696     1.007825032230
         H            3.640384235956     2.902352284563    -0.186299029696     1.007825032230
         H           -1.234212764044     1.140156284563     1.457492970304     1.007825032230
         H           -2.400608764044    -1.795488715437    -1.457349029696     1.007825032230
         H           -3.619491764044     1.712202284563     1.841827970304     1.007825032230
         H           -4.797196764044    -1.188715715437    -1.111427029696     1.007825032230
         H            4.453147235956    -1.715426715437    -0.356087029696     1.007825032230
         H            3.833650235956    -2.999091715437     0.708773970304     1.007825032230
         H            4.333136235956    -1.451317715437     1.398998970304     1.007825032230
         H           -5.401837764044     0.564366284563     0.545528970304     1.007825032230

  Basis Set: AUG-CC-PVTZ
    Blend: AUG-CC-PVTZ
  Basis Set: (AUG-CC-PVTZ AUX)
    Blend: AUG-CC-PVTZ-JKFIT
	 Reference Energy          =    -667.2527198575778584 [Eh]
	 Singles Energy            =      -0.0000000000000000 [Eh]
	 Same-Spin Energy          =      -0.7343535962651490 [Eh]
	 Opposite-Spin Energy      =      -2.2653636178489114 [Eh]
	 Correlation Energy        =      -2.9997172141140602 [Eh]
	 Total Energy              =    -670.2524370716919293 [Eh]

	 ================> DF-SCS-MP2 Energies <==================
	-----------------------------------------------------------
	 SCS Same-Spin Scale       =       0.3333333333333333 [-]
	 SCS Opposite-Spin Scale   =       1.2000000000000000 [-]
	 SCS Same-Spin Energy      =      -0.2447845320883830 [Eh]
	 SCS Opposite-Spin Energy  =      -2.7184363414186934 [Eh]
	 SCS Correlation Energy    =      -2.9632208735070762 [Eh]
	 SCS Total Energy          =    -670.2159407310849701 [Eh]
	-----------------------------------------------------------

  Dipole Moment: [D]
     X:    -0.0629      Y:     1.1512      Z:     0.3019     Total:     1.1918

*** Psi4 exiting successfully. Buy a developer a beer!
