                               Psi4 1.3.2 release

  ==> Input File <==

--------------------------------------------------------------------------
#psi4
#
memory 32 gb

molecule  {
0 1
  O       -0.0649480    -2.0007500    -0.4572220
  N        2.4573690    -1.4749290     0.4038410
  C        0.8099710     0.2105070    -0.2160820
  C        2.1525410    -0.1743900     0.0797160
  C       -0.2446154    -0.9843523    -0.2930033
  C       -1.6915990    -0.3449750    -0.0589870
  C        0.5343510     1.5458860    -0.5628900
  C        3.1364470     0.8361460     0.1179860
  C        1.5277130     2.5174420    -0.5614560
  C        2.8303350     2.1515420    -0.2122750
  C       -2.0336590     0.6403590     0.8794580
  C       -2.7013800    -1.0161980    -0.7629970
  C       -3.3755740     0.9555500     1.0975090
  C       -4.0377320    -0.6802290    -0.5577760
  C        3.8275740    -1.9241930     0.5318010
  C       -4.3779170     0.3056950     0.3735650
  H       -0.4794410     1.8136050    -0.8470490
  H        4.1617050     0.5791300     0.3641360
  H        1.7801010    -2.1461120     0.0568400
  H        1.2958720     3.5406330    -0.8437660
  H        3.6204230     2.8995150    -0.1925990
  H       -1.2541740     1.1373190     1.4511930
  H       -2.4205700    -1.7983260    -1.4636490
  H       -3.6394530     1.7093650     1.8355280
  H       -4.8171580    -1.1915530    -1.1177270
  H        4.4331860    -1.7182640    -0.3623870
  H        3.8136890    -3.0019290     0.7024740
  H        4.3131750    -1.4541550     1.3926990
  H       -5.4217990     0.5615290     0.5392290
units angstrom
no_reorient  #important for SAPT in psi4, default
symmetry c1  #important for SAPT in psi4, default
}

set PROPERTIES_ORIGIN ["COM"]
properties('MP2/aug-cc-pvtz', properties = ['dipole'])
--------------------------------------------------------------------------

    Molecular point group: c1
  Charge       = 0
  Multiplicity = 1
  Basis Set: AUG-CC-PVTZ
    Blend: AUG-CC-PVTZ
  Basis Set: (AUG-CC-PVTZ AUX)
    Blend: AUG-CC-PVTZ-JKFIT

    Orbital Energies [Eh]
    ---------------------

    Doubly Occupied:

       1A    -20.570855     2A    -15.562644     3A    -11.336693
       4A    -11.286394     5A    -11.258126     6A    -11.244862
       7A    -11.244751     8A    -11.243474     9A    -11.243403
      10A    -11.241423    11A    -11.240958    12A    -11.239941
      13A    -11.238791    14A    -11.233008    15A    -11.223223
      16A    -11.221303    17A     -1.537636    18A     -1.244962
      19A     -1.155258    20A     -1.133447    21A     -1.036935
      22A     -1.019786    23A     -1.010354    24A     -1.004515
      25A     -0.924473    26A     -0.868385    27A     -0.839966
      28A     -0.826426    29A     -0.802093    30A     -0.770711
      31A     -0.726437    32A     -0.713358    33A     -0.698737
      34A     -0.671389    35A     -0.657356    36A     -0.645005
      37A     -0.626783    38A     -0.617930    39A     -0.612664
      40A     -0.608980    41A     -0.601480    42A     -0.589353
      43A     -0.579708    44A     -0.542396    45A     -0.534525
      46A     -0.518793    47A     -0.508336    48A     -0.504709
      49A     -0.496775    50A     -0.496520    51A     -0.427892
      52A     -0.382875    53A     -0.344415    54A     -0.340334
      55A     -0.338155    56A     -0.287913

  @DF-RHF Final Energy:  -667.20012062118178

   => Energetics <=

    Nuclear Repulsion Energy =           1003.0624548915535570
    One-Electron Energy =               -2896.7699243875786124
    Two-Electron Energy =                1226.5073488748435011
    Total Energy =                       -667.2001206211816680
  Basis Set: (AUG-CC-PVTZ AUX)
    Blend: AUG-CC-PVTZ-RI
    Molecular point group: c1

    Geometry (in Angstrom), charge = 0, multiplicity = 1:

       Center              X                  Y                   Z               Mass
    ------------   -----------------  -----------------  -----------------  -----------------
         O           -0.041627492795    -1.985345674255    -0.448332311361    15.994914619570
         N            2.480689507205    -1.459524674255     0.412730688639    14.003074004430
         C            0.833291507205     0.225911325745    -0.207192311361    12.000000000000
         C            2.175861507205    -0.158985674255     0.088605688639    12.000000000000
         C           -0.221294892795    -0.968947974255    -0.284113611361    12.000000000000
         C           -1.668278492795    -0.329570674255    -0.050097311361    12.000000000000
         C            0.557671507205     1.561290325745    -0.554000311361    12.000000000000
         C            3.159767507205     0.851550325745     0.126875688639    12.000000000000
         C            1.551033507205     2.532846325745    -0.552566311361    12.000000000000
         C            2.853655507205     2.166946325745    -0.203385311361    12.000000000000
         C           -2.010338492795     0.655763325745     0.888347688639    12.000000000000
         C           -2.678059492795    -1.000793674255    -0.754107311361    12.000000000000
         C           -3.352253492795     0.970954325745     1.106398688639    12.000000000000
         C           -4.014411492795    -0.664824674255    -0.548886311361    12.000000000000
         C            3.850894507205    -1.908788674255     0.540690688639    12.000000000000
         C           -4.354596492795     0.321099325745     0.382454688639    12.000000000000
         H           -0.456120492795     1.829009325745    -0.838159311361     1.007825032230
         H            4.185025507205     0.594534325745     0.373025688639     1.007825032230
         H            1.803421507205    -2.130707674255     0.065729688639     1.007825032230
         H            1.319192507205     3.556037325745    -0.834876311361     1.007825032230
         H            3.643743507205     2.914919325745    -0.183709311361     1.007825032230
         H           -1.230853492795     1.152723325745     1.460082688639     1.007825032230
         H           -2.397249492795    -1.782921674255    -1.454759311361     1.007825032230
         H           -3.616132492795     1.724769325745     1.844417688639     1.007825032230
         H           -4.793837492795    -1.176148674255    -1.108837311361     1.007825032230
         H            4.456506507205    -1.702859674255    -0.353497311361     1.007825032230
         H            3.837009507205    -2.986524674255     0.711363688639     1.007825032230
         H            4.336495507205    -1.438750674255     1.401588688639     1.007825032230
         H           -5.398478492795     0.576933325745     0.548118688639     1.007825032230

  Basis Set: AUG-CC-PVTZ
    Blend: AUG-CC-PVTZ
  Basis Set: (AUG-CC-PVTZ AUX)
    Blend: AUG-CC-PVTZ-JKFIT
	 Reference Energy          =    -667.2001206211817816 [Eh]
	 Singles Energy            =      -0.0000000000000000 [Eh]
	 Same-Spin Energy          =      -0.7299420906995483 [Eh]
	 Opposite-Spin Energy      =      -2.2558654907279072 [Eh]
	 Correlation Energy        =      -2.9858075814274554 [Eh]
	 Total Energy              =    -670.1859282026092615 [Eh]

	 ================> DF-SCS-MP2 Energies <==================
	-----------------------------------------------------------
	 SCS Same-Spin Scale       =       0.3333333333333333 [-]
	 SCS Opposite-Spin Scale   =       1.2000000000000000 [-]
	 SCS Same-Spin Energy      =      -0.2433140302331828 [Eh]
	 SCS Opposite-Spin Energy  =      -2.7070385888734885 [Eh]
	 SCS Correlation Energy    =      -2.9503526191066713 [Eh]
	 SCS Total Energy          =    -670.1504732402884201 [Eh]
	-----------------------------------------------------------

  Dipole Moment: [D]
     X:     0.3531      Y:     0.0314      Z:     0.1335     Total:     0.3788

*** Psi4 exiting successfully. Buy a developer a beer!
