                               Psi4 1.3.2 release

  ==> Input File <==

--------------------------------------------------------------------------
#psi4
#
memory 32 gb

molecule  {
0 1
  O       -0.0649480    -2.0007500    -0.4572220
  N        2.4573690    -1.4749290     0.4038410
  C        0.8099710     0.2105070    -0.2160820
  C        2.1662997    -0.1267186     0.0751015
  C       -0.2789970    -0.7898520    -0.2615780
  C       -1.6915990    -0.3449750    -0.0589870
  C        0.5343510     1.5458860    -0.5628900
  C        3.1364470     0.8361460     0.1179860
  C        1.5277130     2.5174420    -0.5614560
  C        2.8303350     2.1515420    -0.2122750
  C       -2.0336590     0.6403590     0.8794580
  C       -2.7013800    -1.0161980    -0.7629970
  C       -3.3755740     0.9555500     1.0975090
  C       -4.0377320    -0.6802290    -0.5577760
  C        3.8275740    -1.9241930     0.5318010
  C       -4.3779170     0.3056950     0.3735650
  H       -0.4794410     1.8136050    -0.8470490
  H        4.1617050     0.5791300     0.3641360
  H        1.7801010    -2.1461120     0.0568400
  H        1.2958720     3.5406330    -0.8437660
  H        3.6204230     2.8995150    -0.1925990
  H       -1.2541740     1.1373190     1.4511930
  H       -2.4205700    -1.7983260    -1.4636490
  H       -3.6394530     1.7093650     1.8355280
  H       -4.8171580    -1.1915530    -1.1177270
  H        4.4331860    -1.7182640    -0.3623870
  H        3.8136890    -3.0019290     0.7024740
  H        4.3131750    -1.4541550     1.3926990
  H       -5.4217990     0.5615290     0.5392290
units angstrom
no_reorient  #important for SAPT in psi4, default
symmetry c1  #important for SAPT in psi4, default
}

set PROPERTIES_ORIGIN ["COM"]
properties('MP2/aug-cc-pvtz', properties = ['dipole'])
--------------------------------------------------------------------------

    Molecular point group: c1
  Charge       = 0
  Multiplicity = 1
  Basis Set: AUG-CC-PVTZ
    Blend: AUG-CC-PVTZ
  Basis Set: (AUG-CC-PVTZ AUX)
    Blend: AUG-CC-PVTZ-JKFIT

    Orbital Energies [Eh]
    ---------------------

    Doubly Occupied:

       1A    -20.541061     2A    -15.554899     3A    -11.342274
       4A    -11.293179     5A    -11.254747     6A    -11.254160
       7A    -11.252382     8A    -11.251887     9A    -11.251044
      10A    -11.250565    11A    -11.247964    12A    -11.245747
      13A    -11.244319    14A    -11.241455    15A    -11.228979
      16A    -11.226511    17A     -1.373193    18A     -1.230160
      19A     -1.164466    20A     -1.144648    21A     -1.058419
      22A     -1.026642    23A     -1.021866    24A     -1.013959
      25A     -0.922088    26A     -0.891146    27A     -0.846677
      28A     -0.835636    29A     -0.807335    30A     -0.772559
      31A     -0.719439    32A     -0.698629    33A     -0.681448
      34A     -0.656270    35A     -0.644938    36A     -0.632856
      37A     -0.621683    38A     -0.611367    39A     -0.607435
      40A     -0.601212    41A     -0.596871    42A     -0.576554
      43A     -0.545980    44A     -0.540459    45A     -0.529087
      46A     -0.521615    47A     -0.513731    48A     -0.504371
      49A     -0.501796    50A     -0.486945    51A     -0.423383
      52A     -0.419975    53A     -0.352132    54A     -0.345912
      55A     -0.344209    56A     -0.296976

  @DF-RHF Final Energy:  -667.25963602280046

   => Energetics <=

    Nuclear Repulsion Energy =           1002.4518033310520195
    One-Electron Energy =               -2895.8923984494413162
    Two-Electron Energy =                1226.1809590955888325
    Total Energy =                       -667.2596360228005778
  Basis Set: (AUG-CC-PVTZ AUX)
    Blend: AUG-CC-PVTZ-RI
    Molecular point group: c1

    Geometry (in Angstrom), charge = 0, multiplicity = 1:

       Center              X                  Y                   Z               Mass
    ------------   -----------------  -----------------  -----------------  -----------------
         O           -0.040455180454    -1.999111966706    -0.449856375955    15.994914619570
         N            2.481861819546    -1.473290966706     0.411206624045    14.003074004430
         C            0.834463819546     0.212145033294    -0.208716375955    12.000000000000
         C            2.190792519546    -0.125080566706     0.082467124045    12.000000000000
         C           -0.254504180454    -0.788213966706    -0.254212375955    12.000000000000
         C           -1.667106180454    -0.343336966706    -0.051621375955    12.000000000000
         C            0.558843819546     1.547524033294    -0.555524375955    12.000000000000
         C            3.160939819546     0.837784033294     0.125351624045    12.000000000000
         C            1.552205819546     2.519080033294    -0.554090375955    12.000000000000
         C            2.854827819546     2.153180033294    -0.204909375955    12.000000000000
         C           -2.009166180454     0.641997033294     0.886823624045    12.000000000000
         C           -2.676887180454    -1.014559966706    -0.755631375955    12.000000000000
         C           -3.351081180454     0.957188033294     1.104874624045    12.000000000000
         C           -4.013239180454    -0.678590966706    -0.550410375955    12.000000000000
         C            3.852066819546    -1.922554966706     0.539166624045    12.000000000000
         C           -4.353424180454     0.307333033294     0.380930624045    12.000000000000
         H           -0.454948180454     1.815243033294    -0.839683375955     1.007825032230
         H            4.186197819546     0.580768033294     0.371501624045     1.007825032230
         H            1.804593819546    -2.144473966706     0.064205624045     1.007825032230
         H            1.320364819546     3.542271033294    -0.836400375955     1.007825032230
         H            3.644915819546     2.901153033294    -0.185233375955     1.007825032230
         H           -1.229681180454     1.138957033294     1.458558624045     1.007825032230
         H           -2.396077180454    -1.796687966706    -1.456283375955     1.007825032230
         H           -3.614960180454     1.711003033294     1.842893624045     1.007825032230
         H           -4.792665180454    -1.189914966706    -1.110361375955     1.007825032230
         H            4.457678819546    -1.716625966706    -0.355021375955     1.007825032230
         H            3.838181819546    -3.000290966706     0.709839624045     1.007825032230
         H            4.337667819546    -1.452516966706     1.400064624045     1.007825032230
         H           -5.397306180454     0.563167033294     0.546594624045     1.007825032230

  Basis Set: AUG-CC-PVTZ
    Blend: AUG-CC-PVTZ
  Basis Set: (AUG-CC-PVTZ AUX)
    Blend: AUG-CC-PVTZ-JKFIT
	 Reference Energy          =    -667.2596360228004642 [Eh]
	 Singles Energy            =      -0.0000000000000000 [Eh]
	 Same-Spin Energy          =      -0.7345030907035495 [Eh]
	 Opposite-Spin Energy      =      -2.2653762624315550 [Eh]
	 Correlation Energy        =      -2.9998793531351042 [Eh]
	 Total Energy              =    -670.2595153759356208 [Eh]

	 ================> DF-SCS-MP2 Energies <==================
	-----------------------------------------------------------
	 SCS Same-Spin Scale       =       0.3333333333333333 [-]
	 SCS Opposite-Spin Scale   =       1.2000000000000000 [-]
	 SCS Same-Spin Energy      =      -0.2448343635678498 [Eh]
	 SCS Opposite-Spin Energy  =      -2.7184515149178661 [Eh]
	 SCS Correlation Energy    =      -2.9632858784857161 [Eh]
	 SCS Total Energy          =    -670.2229219012862131 [Eh]
	-----------------------------------------------------------

  Dipole Moment: [D]
     X:     0.1150      Y:     1.4980      Z:     0.2581     Total:     1.5244

*** Psi4 exiting successfully. Buy a developer a beer!
