                               Psi4 1.3.2 release

  ==> Input File <==

--------------------------------------------------------------------------
#psi4
#
memory 32 gb

molecule  {
0 1
  O       -0.0649480    -2.0007500    -0.4572220
  N        2.4573690    -1.4749290     0.4038410
  C        0.8099710     0.2105070    -0.2160820
  C        2.0996107    -0.3122000     0.1028899
  C       -0.2789970    -0.7898520    -0.2615780
  C       -1.6915990    -0.3449750    -0.0589870
  C        0.5343510     1.5458860    -0.5628900
  C        3.1364470     0.8361460     0.1179860
  C        1.5277130     2.5174420    -0.5614560
  C        2.8303350     2.1515420    -0.2122750
  C       -2.0336590     0.6403590     0.8794580
  C       -2.7013800    -1.0161980    -0.7629970
  C       -3.3755740     0.9555500     1.0975090
  C       -4.0377320    -0.6802290    -0.5577760
  C        3.8275740    -1.9241930     0.5318010
  C       -4.3779170     0.3056950     0.3735650
  H       -0.4794410     1.8136050    -0.8470490
  H        4.1617050     0.5791300     0.3641360
  H        1.7801010    -2.1461120     0.0568400
  H        1.2958720     3.5406330    -0.8437660
  H        3.6204230     2.8995150    -0.1925990
  H       -1.2541740     1.1373190     1.4511930
  H       -2.4205700    -1.7983260    -1.4636490
  H       -3.6394530     1.7093650     1.8355280
  H       -4.8171580    -1.1915530    -1.1177270
  H        4.4331860    -1.7182640    -0.3623870
  H        3.8136890    -3.0019290     0.7024740
  H        4.3131750    -1.4541550     1.3926990
  H       -5.4217990     0.5615290     0.5392290
units angstrom
no_reorient  #important for SAPT in psi4, default
symmetry c1  #important for SAPT in psi4, default
}

set PROPERTIES_ORIGIN ["COM"]
properties('MP2/aug-cc-pvtz', properties = ['dipole'])
--------------------------------------------------------------------------

    Molecular point group: c1
  Charge       = 0
  Multiplicity = 1
  Basis Set: AUG-CC-PVTZ
    Blend: AUG-CC-PVTZ
  Basis Set: (AUG-CC-PVTZ AUX)
    Blend: AUG-CC-PVTZ-JKFIT

    Orbital Energies [Eh]
    ---------------------

    Doubly Occupied:

       1A    -20.534863     2A    -15.583561     3A    -11.333027
       4A    -11.307364     5A    -11.274217     6A    -11.248156
       7A    -11.248072     8A    -11.247426     9A    -11.246123
      10A    -11.245162    11A    -11.243715    12A    -11.242262
      13A    -11.240874    14A    -11.233763    15A    -11.230393
      16A    -11.216105    17A     -1.370478    18A     -1.298727
      19A     -1.160153    20A     -1.132075    21A     -1.050594
      22A     -1.023801    23A     -1.020164    24A     -1.000014
      25A     -0.949061    26A     -0.880346    27A     -0.842038
      28A     -0.831711    29A     -0.808818    30A     -0.772367
      31A     -0.717860    32A     -0.707050    33A     -0.689377
      34A     -0.662499    35A     -0.642654    36A     -0.636031
      37A     -0.634346    38A     -0.617069    39A     -0.609035
      40A     -0.593724    41A     -0.591373    42A     -0.575817
      43A     -0.555730    44A     -0.543358    45A     -0.526793
      46A     -0.517006    47A     -0.512031    48A     -0.498518
      49A     -0.491360    50A     -0.486351    51A     -0.448963
      52A     -0.408121    53A     -0.346712    54A     -0.342625
      55A     -0.340202    56A     -0.277303

  @DF-RHF Final Energy:  -667.23483084438521

   => Energetics <=

    Nuclear Repulsion Energy =           1003.0171635922198448
    One-Electron Energy =               -2896.9293154608203622
    Two-Electron Energy =                1226.6773210242154164
    Total Energy =                       -667.2348308443852147
  Basis Set: (AUG-CC-PVTZ AUX)
    Blend: AUG-CC-PVTZ-RI
    Molecular point group: c1

    Geometry (in Angstrom), charge = 0, multiplicity = 1:

       Center              X                  Y                   Z               Mass
    ------------   -----------------  -----------------  -----------------  -----------------
         O           -0.036664232638    -1.988568244229    -0.451436012391    15.994914619570
         N            2.485652767362    -1.462747244229     0.409626987609    14.003074004430
         C            0.838254767362     0.222688755771    -0.210296012391    12.000000000000
         C            2.127894467362    -0.300018244229     0.108675887609    12.000000000000
         C           -0.250713232638    -0.777670244229    -0.255792012391    12.000000000000
         C           -1.663315232638    -0.332793244229    -0.053201012391    12.000000000000
         C            0.562634767362     1.558067755771    -0.557104012391    12.000000000000
         C            3.164730767362     0.848327755771     0.123771987609    12.000000000000
         C            1.555996767362     2.529623755771    -0.555670012391    12.000000000000
         C            2.858618767362     2.163723755771    -0.206489012391    12.000000000000
         C           -2.005375232638     0.652540755771     0.885243987609    12.000000000000
         C           -2.673096232638    -1.004016244229    -0.757211012391    12.000000000000
         C           -3.347290232638     0.967731755771     1.103294987609    12.000000000000
         C           -4.009448232638    -0.668047244229    -0.551990012391    12.000000000000
         C            3.855857767362    -1.912011244229     0.537586987609    12.000000000000
         C           -4.349633232638     0.317876755771     0.379350987609    12.000000000000
         H           -0.451157232638     1.825786755771    -0.841263012391     1.007825032230
         H            4.189988767362     0.591311755771     0.369921987609     1.007825032230
         H            1.808384767362    -2.133930244229     0.062625987609     1.007825032230
         H            1.324155767362     3.552814755771    -0.837980012391     1.007825032230
         H            3.648706767362     2.911696755771    -0.186813012391     1.007825032230
         H           -1.225890232638     1.149500755771     1.456978987609     1.007825032230
         H           -2.392286232638    -1.786144244229    -1.457863012391     1.007825032230
         H           -3.611169232638     1.721546755771     1.841313987609     1.007825032230
         H           -4.788874232638    -1.179371244229    -1.111941012391     1.007825032230
         H            4.461469767362    -1.706082244229    -0.356601012391     1.007825032230
         H            3.841972767362    -2.989747244229     0.708259987609     1.007825032230
         H            4.341458767362    -1.441973244229     1.398484987609     1.007825032230
         H           -5.393515232638     0.573710755771     0.545014987609     1.007825032230

  Basis Set: AUG-CC-PVTZ
    Blend: AUG-CC-PVTZ
  Basis Set: (AUG-CC-PVTZ AUX)
    Blend: AUG-CC-PVTZ-JKFIT
	 Reference Energy          =    -667.2348308443852147 [Eh]
	 Singles Energy            =      -0.0000000000000000 [Eh]
	 Same-Spin Energy          =      -0.7348841388332438 [Eh]
	 Opposite-Spin Energy      =      -2.2661158957754610 [Eh]
	 Correlation Energy        =      -3.0010000346087047 [Eh]
	 Total Energy              =    -670.2358308789939656 [Eh]

	 ================> DF-SCS-MP2 Energies <==================
	-----------------------------------------------------------
	 SCS Same-Spin Scale       =       0.3333333333333333 [-]
	 SCS Opposite-Spin Scale   =       1.2000000000000000 [-]
	 SCS Same-Spin Energy      =      -0.2449613796110812 [Eh]
	 SCS Opposite-Spin Energy  =      -2.7193390749305530 [Eh]
	 SCS Correlation Energy    =      -2.9643004545416343 [Eh]
	 SCS Total Energy          =    -670.1991312989268863 [Eh]
	-----------------------------------------------------------

  Dipole Moment: [D]
     X:     0.9865      Y:     0.3227      Z:     0.6121     Total:     1.2049

*** Psi4 exiting successfully. Buy a developer a beer!
