                               Psi4 1.4a2.dev612

  ==> Input File <==

--------------------------------------------------------------------------
#psi4
#
memory 32 gb

molecule  {
0 1
  O       -0.0649480    -2.0007500    -0.4572220
  N        2.4573690    -1.4749290     0.4038410
  C        0.8099710     0.2105070    -0.2160820
  C        2.1525410    -0.1743900     0.0797160
  C       -0.2789970    -0.7898520    -0.2615780
  C       -1.6915990    -0.3449750    -0.0589870
  C        0.5343510     1.5458860    -0.5628900
  C        3.1364470     0.8361460     0.1179860
  C        1.5277130     2.5174420    -0.5614560
  C        2.8303350     2.1515420    -0.2122750
  C       -2.0824183     0.7808144     1.0132295
  C       -2.7013800    -1.0161980    -0.7629970
  C       -3.3755740     0.9555500     1.0975090
  C       -4.0377320    -0.6802290    -0.5577760
  C        3.8275740    -1.9241930     0.5318010
  C       -4.3779170     0.3056950     0.3735650
  H       -0.4794410     1.8136050    -0.8470490
  H        4.1617050     0.5791300     0.3641360
  H        1.7801010    -2.1461120     0.0568400
  H        1.2958720     3.5406330    -0.8437660
  H        3.6204230     2.8995150    -0.1925990
  H       -1.2541740     1.1373190     1.4511930
  H       -2.4205700    -1.7983260    -1.4636490
  H       -3.6394530     1.7093650     1.8355280
  H       -4.8171580    -1.1915530    -1.1177270
  H        4.4331860    -1.7182640    -0.3623870
  H        3.8136890    -3.0019290     0.7024740
  H        4.3131750    -1.4541550     1.3926990
  H       -5.4217990     0.5615290     0.5392290
units angstrom
no_reorient  #important for SAPT in psi4, default
symmetry c1  #important for SAPT in psi4, default
}

set PROPERTIES_ORIGIN ["COM"]
properties('MP2/aug-cc-pvtz', properties = ['dipole'])
--------------------------------------------------------------------------

    Molecular point group: c1
  Charge       = 0
  Multiplicity = 1
  Basis Set: AUG-CC-PVTZ
    Blend: AUG-CC-PVTZ
  Basis Set: (AUG-CC-PVTZ AUX)
    Blend: AUG-CC-PVTZ-JKFIT

    Orbital Energies [Eh]
    ---------------------

    Doubly Occupied:

       1A    -20.537676     2A    -15.561502     3A    -11.338825
       4A    -11.296901     5A    -11.261429     6A    -11.256852
       7A    -11.252922     8A    -11.252443     9A    -11.252432
      10A    -11.252386    11A    -11.248736    12A    -11.247216
      13A    -11.238411    14A    -11.238141    15A    -11.228858
      16A    -11.225944    17A     -1.370490    18A     -1.244049
      19A     -1.156770    20A     -1.141974    21A     -1.050361
      22A     -1.042223    23A     -1.011746    24A     -1.009173
      25A     -0.929453    26A     -0.892152    27A     -0.852218
      28A     -0.829276    29A     -0.805577    30A     -0.765071
      31A     -0.719433    32A     -0.705822    33A     -0.691563
      34A     -0.659810    35A     -0.646773    36A     -0.634626
      37A     -0.619746    38A     -0.614691    39A     -0.606250
      40A     -0.602999    41A     -0.589884    42A     -0.576839
      43A     -0.550824    44A     -0.541958    45A     -0.533401
      46A     -0.526291    47A     -0.509951    48A     -0.503865
      49A     -0.488147    50A     -0.469937    51A     -0.429295
      52A     -0.415314    53A     -0.364140    54A     -0.348550
      55A     -0.327425    56A     -0.291599

  @DF-RHF Final Energy:  -667.22116533428414

   => Energetics <=

    Nuclear Repulsion Energy =            999.6144113384035563
    One-Electron Energy =               -2890.1504727985566205
    Two-Electron Energy =                1223.3148961258691543
    Total Energy =                       -667.2211653342840236
  Basis Set: (AUG-CC-PVTZ AUX)
    Blend: AUG-CC-PVTZ-RI
    Molecular point group: c1

    Geometry (in Angstrom), charge = 0, multiplicity = 1:

       Center              X                  Y                   Z               Mass
    ------------   -----------------  -----------------  -----------------  -----------------
         O           -0.036901333859    -2.004386289341    -0.457722952220    15.994914619570
         N            2.485415666141    -1.478565289341     0.403340047780    14.003074004430
         C            0.838017666141     0.206870710659    -0.216582952220    12.000000000000
         C            2.180587666141    -0.178026289341     0.079215047780    12.000000000000
         C           -0.250950333859    -0.793488289341    -0.262078952220    12.000000000000
         C           -1.663552333859    -0.348611289341    -0.059487952220    12.000000000000
         C            0.562397666141     1.542249710659    -0.563390952220    12.000000000000
         C            3.164493666141     0.832509710659     0.117485047780    12.000000000000
         C            1.555759666141     2.513805710659    -0.561956952220    12.000000000000
         C            2.858381666141     2.147905710659    -0.212775952220    12.000000000000
         C           -2.054371633859     0.777178110659     1.012728547780    12.000000000000
         C           -2.673333333859    -1.019834289341    -0.763497952220    12.000000000000
         C           -3.347527333859     0.951913710659     1.097008047780    12.000000000000
         C           -4.009685333859    -0.683865289341    -0.558276952220    12.000000000000
         C            3.855620666141    -1.927829289341     0.531300047780    12.000000000000
         C           -4.349870333859     0.302058710659     0.373064047780    12.000000000000
         H           -0.451394333859     1.809968710659    -0.847549952220     1.007825032230
         H            4.189751666141     0.575493710659     0.363635047780     1.007825032230
         H            1.808147666141    -2.149748289341     0.056339047780     1.007825032230
         H            1.323918666141     3.536996710659    -0.844266952220     1.007825032230
         H            3.648469666141     2.895878710659    -0.193099952220     1.007825032230
         H           -1.226127333859     1.133682710659     1.450692047780     1.007825032230
         H           -2.392523333859    -1.801962289341    -1.464149952220     1.007825032230
         H           -3.611406333859     1.705728710659     1.835027047780     1.007825032230
         H           -4.789111333859    -1.195189289341    -1.118227952220     1.007825032230
         H            4.461232666141    -1.721900289341    -0.362887952220     1.007825032230
         H            3.841735666141    -3.005565289341     0.701973047780     1.007825032230
         H            4.341221666141    -1.457791289341     1.392198047780     1.007825032230
         H           -5.393752333859     0.557892710659     0.538728047780     1.007825032230

  Basis Set: AUG-CC-PVTZ
    Blend: AUG-CC-PVTZ
  Basis Set: (AUG-CC-PVTZ AUX)
    Blend: AUG-CC-PVTZ-JKFIT
	 Reference Energy          =    -667.2211653342841373 [Eh]
	 Singles Energy            =      -0.0000000000000000 [Eh]
	 Same-Spin Energy          =      -0.7345783259715213 [Eh]
	 Opposite-Spin Energy      =      -2.2681004106173916 [Eh]
	 Correlation Energy        =      -3.0026787365889129 [Eh]
	 Total Energy              =    -670.2238440708730423 [Eh]

	 ================> DF-SCS-MP2 Energies <==================
	-----------------------------------------------------------
	 SCS Same-Spin Scale       =       0.3333333333333333 [-]
	 SCS Opposite-Spin Scale   =       1.2000000000000000 [-]
	 SCS Same-Spin Energy      =      -0.2448594419905071 [Eh]
	 SCS Opposite-Spin Energy  =      -2.7217204927408698 [Eh]
	 SCS Correlation Energy    =      -2.9665799347313770 [Eh]
	 SCS Total Energy          =    -670.1877452690155224 [Eh]
	-----------------------------------------------------------

  Dipole Moment: [D]
     X:     0.2526      Y:     1.1748      Z:     0.3194     Total:     1.2434

*** Psi4 exiting successfully. Buy a developer a beer!
