                               Psi4 1.3.2 release

  ==> Input File <==

--------------------------------------------------------------------------
#psi4
#
memory 32 gb

molecule  {
0 1
  O       -0.0649480    -2.0007500    -0.4572220
  N        2.4573690    -1.4749290     0.4038410
  C        0.8099710     0.2105070    -0.2160820
  C        2.1525410    -0.1743900     0.0797160
  C       -0.2789970    -0.7898520    -0.2615780
  C       -1.6915990    -0.3449750    -0.0589870
  C        0.5343510     1.5458860    -0.5628900
  C        3.1364470     0.8361460     0.1179860
  C        1.5277130     2.5174420    -0.5614560
  C        2.8303350     2.1515420    -0.2122750
  C       -1.9379771     0.6526248     0.8963452
  C       -2.7013800    -1.0161980    -0.7629970
  C       -3.3755740     0.9555500     1.0975090
  C       -4.0377320    -0.6802290    -0.5577760
  C        3.8275740    -1.9241930     0.5318010
  C       -4.3779170     0.3056950     0.3735650
  H       -0.4794410     1.8136050    -0.8470490
  H        4.1617050     0.5791300     0.3641360
  H        1.7801010    -2.1461120     0.0568400
  H        1.2958720     3.5406330    -0.8437660
  H        3.6204230     2.8995150    -0.1925990
  H       -1.2541740     1.1373190     1.4511930
  H       -2.4205700    -1.7983260    -1.4636490
  H       -3.6394530     1.7093650     1.8355280
  H       -4.8171580    -1.1915530    -1.1177270
  H        4.4331860    -1.7182640    -0.3623870
  H        3.8136890    -3.0019290     0.7024740
  H        4.3131750    -1.4541550     1.3926990
  H       -5.4217990     0.5615290     0.5392290
units angstrom
no_reorient  #important for SAPT in psi4, default
symmetry c1  #important for SAPT in psi4, default
}

set PROPERTIES_ORIGIN ["COM"]
properties('MP2/aug-cc-pvtz', properties = ['dipole'])
--------------------------------------------------------------------------

    Molecular point group: c1
  Charge       = 0
  Multiplicity = 1
  Basis Set: AUG-CC-PVTZ
    Blend: AUG-CC-PVTZ
  Basis Set: (AUG-CC-PVTZ AUX)
    Blend: AUG-CC-PVTZ-JKFIT

    Orbital Energies [Eh]
    ---------------------

    Doubly Occupied:

       1A    -20.538381     2A    -15.561730     3A    -11.337733
       4A    -11.297156     5A    -11.256997     6A    -11.255310
       7A    -11.254486     8A    -11.252623     9A    -11.252400
      10A    -11.252101    11A    -11.249656    12A    -11.247057
      13A    -11.245445    14A    -11.238450    15A    -11.228888
      16A    -11.225888    17A     -1.371438    18A     -1.244259
      19A     -1.158034    20A     -1.141282    21A     -1.058128
      22A     -1.022964    23A     -1.016360    24A     -1.009914
      25A     -0.929021    26A     -0.887285    27A     -0.850286
      28A     -0.835768    29A     -0.807386    30A     -0.768858
      31A     -0.719971    32A     -0.702447    33A     -0.685087
      34A     -0.655589    35A     -0.653241    36A     -0.630418
      37A     -0.621022    38A     -0.615271    39A     -0.611148
      40A     -0.601641    41A     -0.591739    42A     -0.577457
      43A     -0.544058    44A     -0.542154    45A     -0.530445
      46A     -0.520751    47A     -0.509022    48A     -0.506533
      49A     -0.502762    50A     -0.484751    51A     -0.429235
      52A     -0.415881    53A     -0.351020    54A     -0.347468
      55A     -0.335664    56A     -0.292056

  @DF-RHF Final Energy:  -667.24899237251714

   => Energetics <=

    Nuclear Repulsion Energy =           1002.2342515353769841
    One-Electron Energy =               -2895.4222573268384622
    Two-Electron Energy =                1225.9390134189443415
    Total Energy =                       -667.2489923725170229
  Basis Set: (AUG-CC-PVTZ AUX)
    Blend: AUG-CC-PVTZ-RI
    Molecular point group: c1

    Geometry (in Angstrom), charge = 0, multiplicity = 1:

       Center              X                  Y                   Z               Mass
    ------------   -----------------  -----------------  -----------------  -----------------
         O           -0.045112119022    -1.997099329210    -0.451078643835    15.994914619570
         N            2.477204880978    -1.471278329210     0.409984356165    14.003074004430
         C            0.829806880978     0.214157670790    -0.209938643835    12.000000000000
         C            2.172376880978    -0.170739329210     0.085859356165    12.000000000000
         C           -0.259161119022    -0.786201329210    -0.255434643835    12.000000000000
         C           -1.671763119022    -0.341324329210    -0.052843643835    12.000000000000
         C            0.554186880978     1.549536670790    -0.556746643835    12.000000000000
         C            3.156282880978     0.839796670790     0.124129356165    12.000000000000
         C            1.547548880978     2.521092670790    -0.555312643835    12.000000000000
         C            2.850170880978     2.155192670790    -0.206131643835    12.000000000000
         C           -1.918141219022     0.656275470790     0.902488556165    12.000000000000
         C           -2.681544119022    -1.012547329210    -0.756853643835    12.000000000000
         C           -3.355738119022     0.959200670790     1.103652356165    12.000000000000
         C           -4.017896119022    -0.676578329210    -0.551632643835    12.000000000000
         C            3.847409880978    -1.920542329210     0.537944356165    12.000000000000
         C           -4.358081119022     0.309345670790     0.379708356165    12.000000000000
         H           -0.459605119022     1.817255670790    -0.840905643835     1.007825032230
         H            4.181540880978     0.582780670790     0.370279356165     1.007825032230
         H            1.799936880978    -2.142461329210     0.062983356165     1.007825032230
         H            1.315707880978     3.544283670790    -0.837622643835     1.007825032230
         H            3.640258880978     2.903165670790    -0.186455643835     1.007825032230
         H           -1.234338119022     1.140969670790     1.457336356165     1.007825032230
         H           -2.400734119022    -1.794675329210    -1.457505643835     1.007825032230
         H           -3.619617119022     1.713015670790     1.841671356165     1.007825032230
         H           -4.797322119022    -1.187902329210    -1.111583643835     1.007825032230
         H            4.453021880978    -1.714613329210    -0.356243643835     1.007825032230
         H            3.833524880978    -2.998278329210     0.708617356165     1.007825032230
         H            4.333010880978    -1.450504329210     1.398842356165     1.007825032230
         H           -5.401963119022     0.565179670790     0.545372356165     1.007825032230

  Basis Set: AUG-CC-PVTZ
    Blend: AUG-CC-PVTZ
  Basis Set: (AUG-CC-PVTZ AUX)
    Blend: AUG-CC-PVTZ-JKFIT
	 Reference Energy          =    -667.2489923725171366 [Eh]
	 Singles Energy            =      -0.0000000000000000 [Eh]
	 Same-Spin Energy          =      -0.7347884543147705 [Eh]
	 Opposite-Spin Energy      =      -2.2665728533312595 [Eh]
	 Correlation Energy        =      -3.0013613076460297 [Eh]
	 Total Energy              =    -670.2503536801631299 [Eh]

	 ================> DF-SCS-MP2 Energies <==================
	-----------------------------------------------------------
	 SCS Same-Spin Scale       =       0.3333333333333333 [-]
	 SCS Opposite-Spin Scale   =       1.2000000000000000 [-]
	 SCS Same-Spin Energy      =      -0.2449294847715902 [Eh]
	 SCS Opposite-Spin Energy  =      -2.7198874239975113 [Eh]
	 SCS Correlation Energy    =      -2.9648169087691016 [Eh]
	 SCS Total Energy          =    -670.2138092812862169 [Eh]
	-----------------------------------------------------------

  Dipole Moment: [D]
     X:     0.2857      Y:     1.2058      Z:     0.3499     Total:     1.2877

*** Psi4 exiting successfully. Buy a developer a beer!
