                               Psi4 1.3.2 release

  ==> Input File <==

--------------------------------------------------------------------------
#psi4
#
memory 32 gb

molecule  {
0 1
  O       -0.0649480    -2.0007500    -0.4572220
  N        2.4573690    -1.4749290     0.4038410
  C        0.8174207     0.2342057    -0.2180083
  C        2.1525410    -0.1743900     0.0797160
  C       -0.2789970    -0.7898520    -0.2615780
  C       -1.6915990    -0.3449750    -0.0589870
  C        0.5343510     1.5458860    -0.5628900
  C        3.1364470     0.8361460     0.1179860
  C        1.5277130     2.5174420    -0.5614560
  C        2.8303350     2.1515420    -0.2122750
  C       -2.0336590     0.6403590     0.8794580
  C       -2.7013800    -1.0161980    -0.7629970
  C       -3.3755740     0.9555500     1.0975090
  C       -4.0377320    -0.6802290    -0.5577760
  C        3.8275740    -1.9241930     0.5318010
  C       -4.3779170     0.3056950     0.3735650
  H       -0.4794410     1.8136050    -0.8470490
  H        4.1617050     0.5791300     0.3641360
  H        1.7801010    -2.1461120     0.0568400
  H        1.2958720     3.5406330    -0.8437660
  H        3.6204230     2.8995150    -0.1925990
  H       -1.2541740     1.1373190     1.4511930
  H       -2.4205700    -1.7983260    -1.4636490
  H       -3.6394530     1.7093650     1.8355280
  H       -4.8171580    -1.1915530    -1.1177270
  H        4.4331860    -1.7182640    -0.3623870
  H        3.8136890    -3.0019290     0.7024740
  H        4.3131750    -1.4541550     1.3926990
  H       -5.4217990     0.5615290     0.5392290
units angstrom
no_reorient  #important for SAPT in psi4, default
symmetry c1  #important for SAPT in psi4, default
}

set PROPERTIES_ORIGIN ["COM"]
properties('MP2/aug-cc-pvtz', properties = ['dipole'])
--------------------------------------------------------------------------

    Molecular point group: c1
  Charge       = 0
  Multiplicity = 1
  Basis Set: AUG-CC-PVTZ
    Blend: AUG-CC-PVTZ
  Basis Set: (AUG-CC-PVTZ AUX)
    Blend: AUG-CC-PVTZ-JKFIT

    Orbital Energies [Eh]
    ---------------------

    Doubly Occupied:

       1A    -20.541968     2A    -15.561965     3A    -11.342417
       4A    -11.296168     5A    -11.257140     6A    -11.251799
       7A    -11.250961     8A    -11.250601     9A    -11.249644
      10A    -11.249630    11A    -11.247446    12A    -11.245296
      13A    -11.243888    14A    -11.238973    15A    -11.227882
      16A    -11.225021    17A     -1.373466    18A     -1.244113
      19A     -1.163976    20A     -1.143687    21A     -1.055495
      22A     -1.025913    23A     -1.020939    24A     -1.009913
      25A     -0.928923    26A     -0.887636    27A     -0.844371
      28A     -0.834477    29A     -0.808619    30A     -0.771550
      31A     -0.717569    32A     -0.701421    33A     -0.684230
      34A     -0.654845    35A     -0.645243    36A     -0.633355
      37A     -0.619052    38A     -0.615019    39A     -0.608335
      40A     -0.601637    41A     -0.596474    42A     -0.578856
      43A     -0.544955    44A     -0.541635    45A     -0.530978
      46A     -0.520539    47A     -0.513497    48A     -0.504522
      49A     -0.501670    50A     -0.487502    51A     -0.429408
      52A     -0.417884    53A     -0.351849    54A     -0.345655
      55A     -0.343793    56A     -0.291068

  @DF-RHF Final Energy:  -667.26248566588231

   => Energetics <=

    Nuclear Repulsion Energy =           1002.4743512756895143
    One-Electron Energy =               -2895.9239397306810133
    Two-Electron Energy =                1226.1871027891090762
    Total Energy =                       -667.2624856658824228
  Basis Set: (AUG-CC-PVTZ AUX)
    Blend: AUG-CC-PVTZ-RI
    Molecular point group: c1

    Geometry (in Angstrom), charge = 0, multiplicity = 1:

       Center              X                  Y                   Z               Mass
    ------------   -----------------  -----------------  -----------------  -----------------
         O           -0.040096544251    -1.997749234401    -0.450009187152    15.994914619570
         N            2.482220455749    -1.471928234401     0.411053812848    14.003074004430
         C            0.842272155749     0.237206465599    -0.210795487152    12.000000000000
         C            2.177392455749    -0.171389234401     0.086928812848    12.000000000000
         C           -0.254145544251    -0.786851234401    -0.254365187152    12.000000000000
         C           -1.666747544251    -0.341974234401    -0.051774187152    12.000000000000
         C            0.559202455749     1.548886765599    -0.555677187152    12.000000000000
         C            3.161298455749     0.839146765599     0.125198812848    12.000000000000
         C            1.552564455749     2.520442765599    -0.554243187152    12.000000000000
         C            2.855186455749     2.154542765599    -0.205062187152    12.000000000000
         C           -2.008807544251     0.643359765599     0.886670812848    12.000000000000
         C           -2.676528544251    -1.013197234401    -0.755784187152    12.000000000000
         C           -3.350722544251     0.958550765599     1.104721812848    12.000000000000
         C           -4.012880544251    -0.677228234401    -0.550563187152    12.000000000000
         C            3.852425455749    -1.921192234401     0.539013812848    12.000000000000
         C           -4.353065544251     0.308695765599     0.380777812848    12.000000000000
         H           -0.454589544251     1.816605765599    -0.839836187152     1.007825032230
         H            4.186556455749     0.582130765599     0.371348812848     1.007825032230
         H            1.804952455749    -2.143111234401     0.064052812848     1.007825032230
         H            1.320723455749     3.543633765599    -0.836553187152     1.007825032230
         H            3.645274455749     2.902515765599    -0.185386187152     1.007825032230
         H           -1.229322544251     1.140319765599     1.458405812848     1.007825032230
         H           -2.395718544251    -1.795325234401    -1.456436187152     1.007825032230
         H           -3.614601544251     1.712365765599     1.842740812848     1.007825032230
         H           -4.792306544251    -1.188552234401    -1.110514187152     1.007825032230
         H            4.458037455749    -1.715263234401    -0.355174187152     1.007825032230
         H            3.838540455749    -2.998928234401     0.709686812848     1.007825032230
         H            4.338026455749    -1.451154234401     1.399911812848     1.007825032230
         H           -5.396947544251     0.564529765599     0.546441812848     1.007825032230

  Basis Set: AUG-CC-PVTZ
    Blend: AUG-CC-PVTZ
  Basis Set: (AUG-CC-PVTZ AUX)
    Blend: AUG-CC-PVTZ-JKFIT
	 Reference Energy          =    -667.2624856658823091 [Eh]
	 Singles Energy            =      -0.0000000000000000 [Eh]
	 Same-Spin Energy          =      -0.7345125427151900 [Eh]
	 Opposite-Spin Energy      =      -2.2651000411447066 [Eh]
	 Correlation Energy        =      -2.9996125838598964 [Eh]
	 Total Energy              =    -670.2620982497421664 [Eh]

	 ================> DF-SCS-MP2 Energies <==================
	-----------------------------------------------------------
	 SCS Same-Spin Scale       =       0.3333333333333333 [-]
	 SCS Opposite-Spin Scale   =       1.2000000000000000 [-]
	 SCS Same-Spin Energy      =      -0.2448375142383966 [Eh]
	 SCS Opposite-Spin Energy  =      -2.7181200493736477 [Eh]
	 SCS Correlation Energy    =      -2.9629575636120444 [Eh]
	 SCS Total Energy          =    -670.2254432294943172 [Eh]
	-----------------------------------------------------------

  Dipole Moment: [D]
     X:     0.2300      Y:     1.1439      Z:     0.3393     Total:     1.2151

*** Psi4 exiting successfully. Buy a developer a beer!
