                               Psi4 1.3.2 release

  ==> Input File <==

--------------------------------------------------------------------------
#psi4
#
memory 32 gb

molecule  {
0 1
  O       -0.0649480    -2.0007500    -0.4572220
  N        2.4573690    -1.4749290     0.4038410
  C        0.8099710     0.2105070    -0.2160820
  C        2.1525410    -0.1743900     0.0797160
  C       -0.3526055    -0.8574710    -0.2646533
  C       -1.6915990    -0.3449750    -0.0589870
  C        0.5343510     1.5458860    -0.5628900
  C        3.1364470     0.8361460     0.1179860
  C        1.5277130     2.5174420    -0.5614560
  C        2.8303350     2.1515420    -0.2122750
  C       -2.0336590     0.6403590     0.8794580
  C       -2.7013800    -1.0161980    -0.7629970
  C       -3.3755740     0.9555500     1.0975090
  C       -4.0377320    -0.6802290    -0.5577760
  C        3.8275740    -1.9241930     0.5318010
  C       -4.3779170     0.3056950     0.3735650
  H       -0.4794410     1.8136050    -0.8470490
  H        4.1617050     0.5791300     0.3641360
  H        1.7801010    -2.1461120     0.0568400
  H        1.2958720     3.5406330    -0.8437660
  H        3.6204230     2.8995150    -0.1925990
  H       -1.2541740     1.1373190     1.4511930
  H       -2.4205700    -1.7983260    -1.4636490
  H       -3.6394530     1.7093650     1.8355280
  H       -4.8171580    -1.1915530    -1.1177270
  H        4.4331860    -1.7182640    -0.3623870
  H        3.8136890    -3.0019290     0.7024740
  H        4.3131750    -1.4541550     1.3926990
  H       -5.4217990     0.5615290     0.5392290
units angstrom
no_reorient  #important for SAPT in psi4, default
symmetry c1  #important for SAPT in psi4, default
}

set PROPERTIES_ORIGIN ["COM"]
properties('MP2/aug-cc-pvtz', properties = ['dipole'])
--------------------------------------------------------------------------

    Molecular point group: c1
  Charge       = 0
  Multiplicity = 1
  Basis Set: AUG-CC-PVTZ
    Blend: AUG-CC-PVTZ
  Basis Set: (AUG-CC-PVTZ AUX)
    Blend: AUG-CC-PVTZ-JKFIT

    Orbital Energies [Eh]
    ---------------------

    Doubly Occupied:

       1A    -20.548801     2A    -15.556877     3A    -11.340708
       4A    -11.288872     5A    -11.257469     6A    -11.255414
       7A    -11.253991     8A    -11.252104     9A    -11.249025
      10A    -11.248813    11A    -11.247059    12A    -11.244064
      13A    -11.244042    14A    -11.237018    15A    -11.223482
      16A    -11.220467    17A     -1.410128    18A     -1.239458
      19A     -1.169351    20A     -1.134055    21A     -1.056944
      22A     -1.029906    23A     -1.015059    24A     -1.003637
      25A     -0.923694    26A     -0.888636    27A     -0.846756
      28A     -0.832443    29A     -0.801635    30A     -0.771681
      31A     -0.717753    32A     -0.699030    33A     -0.683909
      34A     -0.660058    35A     -0.651579    36A     -0.634918
      37A     -0.618276    38A     -0.613459    39A     -0.611371
      40A     -0.601841    41A     -0.598824    42A     -0.574326
      43A     -0.555667    44A     -0.538264    45A     -0.531899
      46A     -0.522166    47A     -0.513372    48A     -0.506278
      49A     -0.499983    50A     -0.493324    51A     -0.424655
      52A     -0.411470    53A     -0.351395    54A     -0.350020
      55A     -0.340511    56A     -0.285794

  @DF-RHF Final Energy:  -667.25741488818403

   => Energetics <=

    Nuclear Repulsion Energy =           1002.3281252248667670
    One-Electron Energy =               -2895.6076253142782662
    Two-Electron Energy =                1226.0220852012275827
    Total Energy =                       -667.2574148881840301
  Basis Set: (AUG-CC-PVTZ AUX)
    Blend: AUG-CC-PVTZ-RI
    Molecular point group: c1

    Geometry (in Angstrom), charge = 0, multiplicity = 1:

       Center              X                  Y                   Z               Mass
    ------------   -----------------  -----------------  -----------------  -----------------
         O           -0.035488776758    -1.992558263845    -0.449943872047    15.994914619570
         N            2.486828223242    -1.466737263845     0.411119127953    14.003074004430
         C            0.839430223242     0.218698736155    -0.208803872047    12.000000000000
         C            2.182000223242    -0.166198263845     0.086994127953    12.000000000000
         C           -0.323146276758    -0.849279263845    -0.257375172047    12.000000000000
         C           -1.662139776758    -0.336783263845    -0.051708872047    12.000000000000
         C            0.563810223242     1.554077736155    -0.555611872047    12.000000000000
         C            3.165906223242     0.844337736155     0.125264127953    12.000000000000
         C            1.557172223242     2.525633736155    -0.554177872047    12.000000000000
         C            2.859794223242     2.159733736155    -0.204996872047    12.000000000000
         C           -2.004199776758     0.648550736155     0.886736127953    12.000000000000
         C           -2.671920776758    -1.008006263845    -0.755718872047    12.000000000000
         C           -3.346114776758     0.963741736155     1.104787127953    12.000000000000
         C           -4.008272776758    -0.672037263845    -0.550497872047    12.000000000000
         C            3.857033223242    -1.916001263845     0.539079127953    12.000000000000
         C           -4.348457776758     0.313886736155     0.380843127953    12.000000000000
         H           -0.449981776758     1.821796736155    -0.839770872047     1.007825032230
         H            4.191164223242     0.587321736155     0.371414127953     1.007825032230
         H            1.809560223242    -2.137920263845     0.064118127953     1.007825032230
         H            1.325331223242     3.548824736155    -0.836487872047     1.007825032230
         H            3.649882223242     2.907706736155    -0.185320872047     1.007825032230
         H           -1.224714776758     1.145510736155     1.458471127953     1.007825032230
         H           -2.391110776758    -1.790134263845    -1.456370872047     1.007825032230
         H           -3.609993776758     1.717556736155     1.842806127953     1.007825032230
         H           -4.787698776758    -1.183361263845    -1.110448872047     1.007825032230
         H            4.462645223242    -1.710072263845    -0.355108872047     1.007825032230
         H            3.843148223242    -2.993737263845     0.709752127953     1.007825032230
         H            4.342634223242    -1.445963263845     1.399977127953     1.007825032230
         H           -5.392339776758     0.569720736155     0.546507127953     1.007825032230

  Basis Set: AUG-CC-PVTZ
    Blend: AUG-CC-PVTZ
  Basis Set: (AUG-CC-PVTZ AUX)
    Blend: AUG-CC-PVTZ-JKFIT
	 Reference Energy          =    -667.2574148881840301 [Eh]
	 Singles Energy            =      -0.0000000000000000 [Eh]
	 Same-Spin Energy          =      -0.7334453403748564 [Eh]
	 Opposite-Spin Energy      =      -2.2629800771809583 [Eh]
	 Correlation Energy        =      -2.9964254175558147 [Eh]
	 Total Energy              =    -670.2538403057398000 [Eh]

	 ================> DF-SCS-MP2 Energies <==================
	-----------------------------------------------------------
	 SCS Same-Spin Scale       =       0.3333333333333333 [-]
	 SCS Opposite-Spin Scale   =       1.2000000000000000 [-]
	 SCS Same-Spin Energy      =      -0.2444817801249521 [Eh]
	 SCS Opposite-Spin Energy  =      -2.7155760926171499 [Eh]
	 SCS Correlation Energy    =      -2.9600578727421021 [Eh]
	 SCS Total Energy          =    -670.2174727609261708 [Eh]
	-----------------------------------------------------------

  Dipole Moment: [D]
     X:    -0.5921      Y:     0.7938      Z:     0.3643     Total:     1.0551

*** Psi4 exiting successfully. Buy a developer a beer!
