                               Psi4 1.3.2 release

  ==> Input File <==

--------------------------------------------------------------------------
#psi4
#
memory 32 gb

molecule  {
0 1
  O       -0.0649480    -2.0007500    -0.4572220
  N        2.4573690    -1.4749290     0.4038410
  C        0.8099710     0.2105070    -0.2160820
  C        2.1525410    -0.1743900     0.0797160
  C       -0.3422371    -0.7142775    -0.2924330
  C       -1.6915990    -0.3449750    -0.0589870
  C        0.5343510     1.5458860    -0.5628900
  C        3.1364470     0.8361460     0.1179860
  C        1.5277130     2.5174420    -0.5614560
  C        2.8303350     2.1515420    -0.2122750
  C       -2.0336590     0.6403590     0.8794580
  C       -2.7013800    -1.0161980    -0.7629970
  C       -3.3755740     0.9555500     1.0975090
  C       -4.0377320    -0.6802290    -0.5577760
  C        3.8275740    -1.9241930     0.5318010
  C       -4.3779170     0.3056950     0.3735650
  H       -0.4794410     1.8136050    -0.8470490
  H        4.1617050     0.5791300     0.3641360
  H        1.7801010    -2.1461120     0.0568400
  H        1.2958720     3.5406330    -0.8437660
  H        3.6204230     2.8995150    -0.1925990
  H       -1.2541740     1.1373190     1.4511930
  H       -2.4205700    -1.7983260    -1.4636490
  H       -3.6394530     1.7093650     1.8355280
  H       -4.8171580    -1.1915530    -1.1177270
  H        4.4331860    -1.7182640    -0.3623870
  H        3.8136890    -3.0019290     0.7024740
  H        4.3131750    -1.4541550     1.3926990
  H       -5.4217990     0.5615290     0.5392290
units angstrom
no_reorient  #important for SAPT in psi4, default
symmetry c1  #important for SAPT in psi4, default
}

set PROPERTIES_ORIGIN ["COM"]
properties('MP2/aug-cc-pvtz', properties = ['dipole'])
--------------------------------------------------------------------------

    Molecular point group: c1
  Charge       = 0
  Multiplicity = 1
  Basis Set: AUG-CC-PVTZ
    Blend: AUG-CC-PVTZ
  Basis Set: (AUG-CC-PVTZ AUX)
    Blend: AUG-CC-PVTZ-JKFIT

    Orbital Energies [Eh]
    ---------------------

    Doubly Occupied:

       1A    -20.527423     2A    -15.559886     3A    -11.341235
       4A    -11.299103     5A    -11.257436     6A    -11.256181
       7A    -11.255398     8A    -11.253184     9A    -11.253029
      10A    -11.251834    11A    -11.249682    12A    -11.248608
      13A    -11.246965    14A    -11.241073    15A    -11.229217
      16A    -11.225214    17A     -1.321799    18A     -1.241252
      19A     -1.169713    20A     -1.142554    21A     -1.064609
      22A     -1.030830    23A     -1.024144    24A     -1.009501
      25A     -0.930125    26A     -0.895679    27A     -0.850219
      28A     -0.838328    29A     -0.808247    30A     -0.773462
      31A     -0.721630    32A     -0.699616    33A     -0.681875
      34A     -0.657951    35A     -0.645182    36A     -0.632418
      37A     -0.619323    38A     -0.613725    39A     -0.605965
      40A     -0.600426    41A     -0.594963    42A     -0.567699
      43A     -0.539679    44A     -0.536581    45A     -0.526418
      46A     -0.522751    47A     -0.516233    48A     -0.503862
      49A     -0.501150    50A     -0.469698    51A     -0.427991
      52A     -0.419689    53A     -0.352245    54A     -0.346624
      55A     -0.345260    56A     -0.290902

  @DF-RHF Final Energy:  -667.24155952712499

   => Energetics <=

    Nuclear Repulsion Energy =           1002.3886085909555277
    One-Electron Energy =               -2895.7887767000811436
    Two-Electron Energy =                1226.1586085820006247
    Total Energy =                       -667.2415595271249913
  Basis Set: (AUG-CC-PVTZ AUX)
    Blend: AUG-CC-PVTZ-RI
    Molecular point group: c1

    Geometry (in Angstrom), charge = 0, multiplicity = 1:

       Center              X                  Y                   Z               Mass
    ------------   -----------------  -----------------  -----------------  -----------------
         O           -0.036078170262    -2.000698123284    -0.448364730163    15.994914619570
         N            2.486238829738    -1.474877123284     0.412698269837    14.003074004430
         C            0.838840829738     0.210558876716    -0.207224730163    12.000000000000
         C            2.181410829738    -0.174338123284     0.088573269837    12.000000000000
         C           -0.313367270262    -0.714225623284    -0.283575730163    12.000000000000
         C           -1.662729170262    -0.344923123284    -0.050129730163    12.000000000000
         C            0.563220829738     1.545937876716    -0.554032730163    12.000000000000
         C            3.165316829738     0.836197876716     0.126843269837    12.000000000000
         C            1.556582829738     2.517493876716    -0.552598730163    12.000000000000
         C            2.859204829738     2.151593876716    -0.203417730163    12.000000000000
         C           -2.004789170262     0.640410876716     0.888315269837    12.000000000000
         C           -2.672510170262    -1.016146123284    -0.754139730163    12.000000000000
         C           -3.346704170262     0.955601876716     1.106366269837    12.000000000000
         C           -4.008862170262    -0.680177123284    -0.548918730163    12.000000000000
         C            3.856443829738    -1.924141123284     0.540658269837    12.000000000000
         C           -4.349047170262     0.305746876716     0.382422269837    12.000000000000
         H           -0.450571170262     1.813656876716    -0.838191730163     1.007825032230
         H            4.190574829738     0.579181876716     0.372993269837     1.007825032230
         H            1.808970829738    -2.146060123284     0.065697269837     1.007825032230
         H            1.324741829738     3.540684876716    -0.834908730163     1.007825032230
         H            3.649292829738     2.899566876716    -0.183741730163     1.007825032230
         H           -1.225304170262     1.137370876716     1.460050269837     1.007825032230
         H           -2.391700170262    -1.798274123284    -1.454791730163     1.007825032230
         H           -3.610583170262     1.709416876716     1.844385269837     1.007825032230
         H           -4.788288170262    -1.191501123284    -1.108869730163     1.007825032230
         H            4.462055829738    -1.718212123284    -0.353529730163     1.007825032230
         H            3.842558829738    -3.001877123284     0.711331269837     1.007825032230
         H            4.342044829738    -1.454103123284     1.401556269837     1.007825032230
         H           -5.392929170262     0.561580876716     0.548086269837     1.007825032230

  Basis Set: AUG-CC-PVTZ
    Blend: AUG-CC-PVTZ
  Basis Set: (AUG-CC-PVTZ AUX)
    Blend: AUG-CC-PVTZ-JKFIT
	 Reference Energy          =    -667.2415595271249913 [Eh]
	 Singles Energy            =      -0.0000000000000000 [Eh]
	 Same-Spin Energy          =      -0.7376808224857068 [Eh]
	 Opposite-Spin Energy      =      -2.2711443187225600 [Eh]
	 Correlation Energy        =      -3.0088251412082667 [Eh]
	 Total Energy              =    -670.2503846683332540 [Eh]

	 ================> DF-SCS-MP2 Energies <==================
	-----------------------------------------------------------
	 SCS Same-Spin Scale       =       0.3333333333333333 [-]
	 SCS Opposite-Spin Scale   =       1.2000000000000000 [-]
	 SCS Same-Spin Energy      =      -0.2458936074952356 [Eh]
	 SCS Opposite-Spin Energy  =      -2.7253731824670719 [Eh]
	 SCS Correlation Energy    =      -2.9712667899623075 [Eh]
	 SCS Total Energy          =    -670.2128263170873197 [Eh]
	-----------------------------------------------------------

  Dipole Moment: [D]
     X:    -0.0336      Y:     1.4570      Z:     0.4177     Total:     1.5161

*** Psi4 exiting successfully. Buy a developer a beer!
