                               Psi4 1.4a2.dev612

  ==> Input File <==

--------------------------------------------------------------------------
#psi4
#
memory 32 gb

molecule  {
0 1
  O       -0.0649480    -2.0007500    -0.4572220
  N        2.4573690    -1.4749290     0.4038410
  C        0.8099710     0.2105070    -0.2160820
  C        2.1525410    -0.1743900     0.0797160
  C       -0.2871222    -0.8065366    -0.2799145
  C       -1.6915990    -0.3449750    -0.0589870
  C        0.5343510     1.5458860    -0.5628900
  C        3.1364470     0.8361460     0.1179860
  C        1.5277130     2.5174420    -0.5614560
  C        2.8303350     2.1515420    -0.2122750
  C       -2.0336590     0.6403590     0.8794580
  C       -2.7013800    -1.0161980    -0.7629970
  C       -3.3755740     0.9555500     1.0975090
  C       -4.0377320    -0.6802290    -0.5577760
  C        3.8275740    -1.9241930     0.5318010
  C       -4.3779170     0.3056950     0.3735650
  H       -0.4794410     1.8136050    -0.8470490
  H        4.1617050     0.5791300     0.3641360
  H        1.7801010    -2.1461120     0.0568400
  H        1.2958720     3.5406330    -0.8437660
  H        3.6204230     2.8995150    -0.1925990
  H       -1.2541740     1.1373190     1.4511930
  H       -2.4205700    -1.7983260    -1.4636490
  H       -3.6394530     1.7093650     1.8355280
  H       -4.8171580    -1.1915530    -1.1177270
  H        4.4331860    -1.7182640    -0.3623870
  H        3.8136890    -3.0019290     0.7024740
  H        4.3131750    -1.4541550     1.3926990
  H       -5.4217990     0.5615290     0.5392290
units angstrom
no_reorient  #important for SAPT in psi4, default
symmetry c1  #important for SAPT in psi4, default
}

set PROPERTIES_ORIGIN ["COM"]
properties('MP2/aug-cc-pvtz', properties = ['dipole'])
--------------------------------------------------------------------------

    Molecular point group: c1
  Charge       = 0
  Multiplicity = 1
  Basis Set: AUG-CC-PVTZ
    Blend: AUG-CC-PVTZ
  Basis Set: (AUG-CC-PVTZ AUX)
    Blend: AUG-CC-PVTZ-JKFIT

    Orbital Energies [Eh]
    ---------------------

    Doubly Occupied:

       1A    -20.542713     2A    -15.561335     3A    -11.340149
       4A    -11.295768     5A    -11.256769     6A    -11.251807
       7A    -11.251182     8A    -11.251163     9A    -11.250356
      10A    -11.249154    11A    -11.246990    12A    -11.245283
      13A    -11.243647    14A    -11.238376    15A    -11.228000
      16A    -11.224989    17A     -1.385041    18A     -1.243895
      19A     -1.163687    20A     -1.140676    21A     -1.054585
      22A     -1.025764    23A     -1.019683    24A     -1.008972
      25A     -0.928422    26A     -0.887270    27A     -0.845010
      28A     -0.834088    29A     -0.806562    30A     -0.771235
      31A     -0.717676    32A     -0.701155    33A     -0.683820
      34A     -0.655896    35A     -0.647149    36A     -0.633482
      37A     -0.618958    38A     -0.614812    39A     -0.609761
      40A     -0.601789    41A     -0.596320    42A     -0.577742
      43A     -0.548153    44A     -0.541720    45A     -0.531287
      46A     -0.520449    47A     -0.512858    48A     -0.503641
      49A     -0.501663    50A     -0.489487    51A     -0.428717
      52A     -0.417771    53A     -0.349867    54A     -0.345521
      55A     -0.343253    56A     -0.291179

  @DF-RHF Final Energy:  -667.26413483429326

   => Energetics <=

    Nuclear Repulsion Energy =           1002.4625989322129271
    One-Electron Energy =               -2895.9000748295866288
    Two-Electron Energy =                1226.1733410630804428
    Total Energy =                       -667.2641348342931451
  Basis Set: (AUG-CC-PVTZ AUX)
    Blend: AUG-CC-PVTZ-RI
    Molecular point group: c1

    Geometry (in Angstrom), charge = 0, multiplicity = 1:

       Center              X                  Y                   Z               Mass
    ------------   -----------------  -----------------  -----------------  -----------------
         O           -0.039211186348    -1.995453638681    -0.449076346476    15.994914619570
         N            2.483105813652    -1.469632638681     0.411986653524    14.003074004430
         C            0.835707813652     0.215803361319    -0.207936346476    12.000000000000
         C            2.178277813652    -0.169093638681     0.087861653524    12.000000000000
         C           -0.261385386348    -0.801240238681    -0.271768846476    12.000000000000
         C           -1.665862186348    -0.339678638681    -0.050841346476    12.000000000000
         C            0.560087813652     1.551182361319    -0.554744346476    12.000000000000
         C            3.162183813652     0.841442361319     0.126131653524    12.000000000000
         C            1.553449813652     2.522738361319    -0.553310346476    12.000000000000
         C            2.856071813652     2.156838361319    -0.204129346476    12.000000000000
         C           -2.007922186348     0.645655361319     0.887603653524    12.000000000000
         C           -2.675643186348    -1.010901638681    -0.754851346476    12.000000000000
         C           -3.349837186348     0.960846361319     1.105654653524    12.000000000000
         C           -4.011995186348    -0.674932638681    -0.549630346476    12.000000000000
         C            3.853310813652    -1.918896638681     0.539946653524    12.000000000000
         C           -4.352180186348     0.310991361319     0.381710653524    12.000000000000
         H           -0.453704186348     1.818901361319    -0.838903346476     1.007825032230
         H            4.187441813652     0.584426361319     0.372281653524     1.007825032230
         H            1.805837813652    -2.140815638681     0.064985653524     1.007825032230
         H            1.321608813652     3.545929361319    -0.835620346476     1.007825032230
         H            3.646159813652     2.904811361319    -0.184453346476     1.007825032230
         H           -1.228437186348     1.142615361319     1.459338653524     1.007825032230
         H           -2.394833186348    -1.793029638681    -1.455503346476     1.007825032230
         H           -3.613716186348     1.714661361319     1.843673653524     1.007825032230
         H           -4.791421186348    -1.186256638681    -1.109581346476     1.007825032230
         H            4.458922813652    -1.712967638681    -0.354241346476     1.007825032230
         H            3.839425813652    -2.996632638681     0.710619653524     1.007825032230
         H            4.338911813652    -1.448858638681     1.400844653524     1.007825032230
         H           -5.396062186348     0.566825361319     0.547374653524     1.007825032230

  Basis Set: AUG-CC-PVTZ
    Blend: AUG-CC-PVTZ
  Basis Set: (AUG-CC-PVTZ AUX)
    Blend: AUG-CC-PVTZ-JKFIT
	 Reference Energy          =    -667.2641348342932588 [Eh]
	 Singles Energy            =      -0.0000000000000000 [Eh]
	 Same-Spin Energy          =      -0.7340690677843631 [Eh]
	 Opposite-Spin Energy      =      -2.2642526100391391 [Eh]
	 Correlation Energy        =      -2.9983216778235020 [Eh]
	 Total Energy              =    -670.2624565121167279 [Eh]

	 ================> DF-SCS-MP2 Energies <==================
	-----------------------------------------------------------
	 SCS Same-Spin Scale       =       0.3333333333333333 [-]
	 SCS Opposite-Spin Scale   =       1.2000000000000000 [-]
	 SCS Same-Spin Energy      =      -0.2446896892614543 [Eh]
	 SCS Opposite-Spin Energy  =      -2.7171031320469670 [Eh]
	 SCS Correlation Energy    =      -2.9617928213084213 [Eh]
	 SCS Total Energy          =    -670.2259276556017085 [Eh]
	-----------------------------------------------------------

  Dipole Moment: [D]
     X:     0.2234      Y:     1.1045      Z:     0.3252     Total:     1.1728

*** Psi4 exiting successfully. Buy a developer a beer!
