                               Psi4 1.3.2 release

  ==> Input File <==

--------------------------------------------------------------------------
#psi4
#
memory 32 gb

molecule  {
0 1
  O       -0.0649480    -2.0007500    -0.4572220
  N        2.4573690    -1.4749290     0.4038410
  C        0.8099710     0.2105070    -0.2160820
  C        2.1525410    -0.1743900     0.0797160
  C       -0.2789970    -0.7898520    -0.2615780
  C       -1.6915990    -0.3449750    -0.0589870
  C        0.5343510     1.5458860    -0.5628900
  C        3.1364470     0.8361460     0.1179860
  C        1.5277130     2.5174420    -0.5614560
  C        2.8303350     2.1515420    -0.2122750
  C       -1.9859974     0.6470962     0.8884788
  C       -2.7013800    -1.0161980    -0.7629970
  C       -3.3755740     0.9555500     1.0975090
  C       -4.0377320    -0.6802290    -0.5577760
  C        3.8275740    -1.9241930     0.5318010
  C       -4.3779170     0.3056950     0.3735650
  H       -0.4794410     1.8136050    -0.8470490
  H        4.1617050     0.5791300     0.3641360
  H        1.7801010    -2.1461120     0.0568400
  H        1.2958720     3.5406330    -0.8437660
  H        3.6204230     2.8995150    -0.1925990
  H       -1.2541740     1.1373190     1.4511930
  H       -2.4205700    -1.7983260    -1.4636490
  H       -3.6394530     1.7093650     1.8355280
  H       -4.8171580    -1.1915530    -1.1177270
  H        4.4331860    -1.7182640    -0.3623870
  H        3.8136890    -3.0019290     0.7024740
  H        4.3131750    -1.4541550     1.3926990
  H       -5.4217990     0.5615290     0.5392290
units angstrom
no_reorient  #important for SAPT in psi4, default
symmetry c1  #important for SAPT in psi4, default
}

set PROPERTIES_ORIGIN ["COM"]
properties('MP2/aug-cc-pvtz', properties = ['dipole'])
--------------------------------------------------------------------------

    Molecular point group: c1
  Charge       = 0
  Multiplicity = 1
  Basis Set: AUG-CC-PVTZ
    Blend: AUG-CC-PVTZ
  Basis Set: (AUG-CC-PVTZ AUX)
    Blend: AUG-CC-PVTZ-JKFIT

    Orbital Energies [Eh]
    ---------------------

    Doubly Occupied:

       1A    -20.539070     2A    -15.561835     3A    -11.338922
       4A    -11.297213     5A    -11.257057     6A    -11.253189
       7A    -11.252659     8A    -11.252523     9A    -11.250623
      10A    -11.250450    11A    -11.249336    12A    -11.246968
      13A    -11.244487    14A    -11.238532    15A    -11.228908
      16A    -11.225911    17A     -1.371972    18A     -1.244347
      19A     -1.160438    20A     -1.141718    21A     -1.056999
      22A     -1.023118    23A     -1.019374    24A     -1.009979
      25A     -0.929245    26A     -0.887956    27A     -0.846834
      28A     -0.835843    29A     -0.807465    30A     -0.770042
      31A     -0.718697    32A     -0.701932    33A     -0.684020
      34A     -0.655369    35A     -0.648958    36A     -0.631642
      37A     -0.620154    38A     -0.615255    39A     -0.609568
      40A     -0.601561    41A     -0.594820    42A     -0.577572
      43A     -0.544624    44A     -0.542209    45A     -0.530649
      46A     -0.519643    47A     -0.510487    48A     -0.506043
      49A     -0.503405    50A     -0.485767    51A     -0.429315
      52A     -0.417567    53A     -0.350400    54A     -0.346432
      55A     -0.339470    56A     -0.292091

  @DF-RHF Final Energy:  -667.25914525295786

   => Energetics <=

    Nuclear Repulsion Energy =           1002.3476519445722488
    One-Electron Energy =               -2895.6722651779919033
    Two-Electron Energy =                1226.0654679804620173
    Total Energy =                       -667.2591452529577509
  Basis Set: (AUG-CC-PVTZ AUX)
    Blend: AUG-CC-PVTZ-RI
    Molecular point group: c1

    Geometry (in Angstrom), charge = 0, multiplicity = 1:

       Center              X                  Y                   Z               Mass
    ------------   -----------------  -----------------  -----------------  -----------------
         O           -0.042382396708    -1.996785054980    -0.450631476957    15.994914619570
         N            2.479934603292    -1.470964054980     0.410431523043    14.003074004430
         C            0.832536603292     0.214471945020    -0.209491476957    12.000000000000
         C            2.175106603292    -0.170425054980     0.086306523043    12.000000000000
         C           -0.256431396708    -0.785887054980    -0.254987476957    12.000000000000
         C           -1.669033396708    -0.341010054980    -0.052396476957    12.000000000000
         C            0.556916603292     1.549850945020    -0.556299476957    12.000000000000
         C            3.159012603292     0.840110945020     0.124576523043    12.000000000000
         C            1.550278603292     2.521406945020    -0.554865476957    12.000000000000
         C            2.852900603292     2.155506945020    -0.205684476957    12.000000000000
         C           -1.963431796708     0.651061145020     0.895069323043    12.000000000000
         C           -2.678814396708    -1.012233054980    -0.756406476957    12.000000000000
         C           -3.353008396708     0.959514945020     1.104099523043    12.000000000000
         C           -4.015166396708    -0.676264054980    -0.551185476957    12.000000000000
         C            3.850139603292    -1.920228054980     0.538391523043    12.000000000000
         C           -4.355351396708     0.309659945020     0.380155523043    12.000000000000
         H           -0.456875396708     1.817569945020    -0.840458476957     1.007825032230
         H            4.184270603292     0.583094945020     0.370726523043     1.007825032230
         H            1.802666603292    -2.142147054980     0.063430523043     1.007825032230
         H            1.318437603292     3.544597945020    -0.837175476957     1.007825032230
         H            3.642988603292     2.903479945020    -0.186008476957     1.007825032230
         H           -1.231608396708     1.141283945020     1.457783523043     1.007825032230
         H           -2.398004396708    -1.794361054980    -1.457058476957     1.007825032230
         H           -3.616887396708     1.713329945020     1.842118523043     1.007825032230
         H           -4.794592396708    -1.187588054980    -1.111136476957     1.007825032230
         H            4.455751603292    -1.714299054980    -0.355796476957     1.007825032230
         H            3.836254603292    -2.997964054980     0.709064523043     1.007825032230
         H            4.335740603292    -1.450190054980     1.399289523043     1.007825032230
         H           -5.399233396708     0.565493945020     0.545819523043     1.007825032230

  Basis Set: AUG-CC-PVTZ
    Blend: AUG-CC-PVTZ
  Basis Set: (AUG-CC-PVTZ AUX)
    Blend: AUG-CC-PVTZ-JKFIT
	 Reference Energy          =    -667.2591452529578646 [Eh]
	 Singles Energy            =      -0.0000000000000000 [Eh]
	 Same-Spin Energy          =      -0.7346525376124021 [Eh]
	 Opposite-Spin Energy      =      -2.2657326424405015 [Eh]
	 Correlation Energy        =      -3.0003851800529038 [Eh]
	 Total Energy              =    -670.2595304330108092 [Eh]

	 ================> DF-SCS-MP2 Energies <==================
	-----------------------------------------------------------
	 SCS Same-Spin Scale       =       0.3333333333333333 [-]
	 SCS Opposite-Spin Scale   =       1.2000000000000000 [-]
	 SCS Same-Spin Energy      =      -0.2448841792041340 [Eh]
	 SCS Opposite-Spin Energy  =      -2.7188791709286018 [Eh]
	 SCS Correlation Energy    =      -2.9637633501327358 [Eh]
	 SCS Total Energy          =    -670.2229086030905592 [Eh]
	-----------------------------------------------------------

  Dipole Moment: [D]
     X:     0.3054      Y:     1.2064      Z:     0.3504     Total:     1.2928

*** Psi4 exiting successfully. Buy a developer a beer!
