                               Psi4 1.3.2 release

  ==> Input File <==

--------------------------------------------------------------------------
#psi4
#
memory 32 gb

molecule  {
0 1
  O       -0.0649480    -2.0007500    -0.4572220
  N        2.4573690    -1.4749290     0.4038410
  C        0.8099710     0.2105070    -0.2160820
  C        2.1723371    -0.1671210     0.0911527
  C       -0.2789970    -0.7898520    -0.2615780
  C       -1.6915990    -0.3449750    -0.0589870
  C        0.5343510     1.5458860    -0.5628900
  C        3.1364470     0.8361460     0.1179860
  C        1.5277130     2.5174420    -0.5614560
  C        2.8303350     2.1515420    -0.2122750
  C       -2.0336590     0.6403590     0.8794580
  C       -2.7013800    -1.0161980    -0.7629970
  C       -3.3755740     0.9555500     1.0975090
  C       -4.0377320    -0.6802290    -0.5577760
  C        3.8275740    -1.9241930     0.5318010
  C       -4.3779170     0.3056950     0.3735650
  H       -0.4794410     1.8136050    -0.8470490
  H        4.1617050     0.5791300     0.3641360
  H        1.7801010    -2.1461120     0.0568400
  H        1.2958720     3.5406330    -0.8437660
  H        3.6204230     2.8995150    -0.1925990
  H       -1.2541740     1.1373190     1.4511930
  H       -2.4205700    -1.7983260    -1.4636490
  H       -3.6394530     1.7093650     1.8355280
  H       -4.8171580    -1.1915530    -1.1177270
  H        4.4331860    -1.7182640    -0.3623870
  H        3.8136890    -3.0019290     0.7024740
  H        4.3131750    -1.4541550     1.3926990
  H       -5.4217990     0.5615290     0.5392290
units angstrom
no_reorient  #important for SAPT in psi4, default
symmetry c1  #important for SAPT in psi4, default
}

set PROPERTIES_ORIGIN ["COM"]
properties('MP2/aug-cc-pvtz', properties = ['dipole'])
--------------------------------------------------------------------------

    Molecular point group: c1
  Charge       = 0
  Multiplicity = 1
  Basis Set: AUG-CC-PVTZ
    Blend: AUG-CC-PVTZ
  Basis Set: (AUG-CC-PVTZ AUX)
    Blend: AUG-CC-PVTZ-JKFIT

    Orbital Energies [Eh]
    ---------------------

    Doubly Occupied:

       1A    -20.539600     2A    -15.561617     3A    -11.340283
       4A    -11.296786     5A    -11.256305     6A    -11.253587
       7A    -11.253029     8A    -11.251375     9A    -11.250228
      10A    -11.249385    11A    -11.247025    12A    -11.244944
      13A    -11.243542    14A    -11.240332    15A    -11.226734
      16A    -11.226062    17A     -1.372288    18A     -1.244299
      19A     -1.163487    20A     -1.142096    21A     -1.056124
      22A     -1.025417    23A     -1.019936    24A     -1.011333
      25A     -0.928994    26A     -0.889606    27A     -0.845522
      28A     -0.834205    29A     -0.806386    30A     -0.771376
      31A     -0.718086    32A     -0.702885    33A     -0.682992
      34A     -0.656158    35A     -0.644933    36A     -0.633592
      37A     -0.620309    38A     -0.614439    39A     -0.608124
      40A     -0.601062    41A     -0.596055    42A     -0.577277
      43A     -0.544832    44A     -0.542107    45A     -0.531965
      46A     -0.520503    47A     -0.512880    48A     -0.502158
      49A     -0.501044    50A     -0.486564    51A     -0.429221
      52A     -0.419369    53A     -0.350695    54A     -0.345057
      55A     -0.343277    56A     -0.292275

  @DF-RHF Final Energy:  -667.26236680858653

   => Energetics <=

    Nuclear Repulsion Energy =           1002.3498070376897431
    One-Electron Energy =               -2895.6848221838185964
    Two-Electron Energy =                1226.0726483375424323
    Total Energy =                       -667.2623668085864210
  Basis Set: (AUG-CC-PVTZ AUX)
    Blend: AUG-CC-PVTZ-RI
    Molecular point group: c1

    Geometry (in Angstrom), charge = 0, multiplicity = 1:

       Center              X                  Y                   Z               Mass
    ------------   -----------------  -----------------  -----------------  -----------------
         O           -0.040798377508    -1.996815285244    -0.450768809214    15.994914619570
         N            2.481518622492    -1.470994285244     0.410294190786    14.003074004430
         C            0.834120622492     0.214441714756    -0.209628809214    12.000000000000
         C            2.196486722492    -0.163186285244     0.097605890786    12.000000000000
         C           -0.254847377508    -0.785917285244    -0.255124809214    12.000000000000
         C           -1.667449377508    -0.341040285244    -0.052533809214    12.000000000000
         C            0.558500622492     1.549820714756    -0.556436809214    12.000000000000
         C            3.160596622492     0.840080714756     0.124439190786    12.000000000000
         C            1.551862622492     2.521376714756    -0.555002809214    12.000000000000
         C            2.854484622492     2.155476714756    -0.205821809214    12.000000000000
         C           -2.009509377508     0.644293714756     0.885911190786    12.000000000000
         C           -2.677230377508    -1.012263285244    -0.756543809214    12.000000000000
         C           -3.351424377508     0.959484714756     1.103962190786    12.000000000000
         C           -4.013582377508    -0.676294285244    -0.551322809214    12.000000000000
         C            3.851723622492    -1.920258285244     0.538254190786    12.000000000000
         C           -4.353767377508     0.309629714756     0.380018190786    12.000000000000
         H           -0.455291377508     1.817539714756    -0.840595809214     1.007825032230
         H            4.185854622492     0.583064714756     0.370589190786     1.007825032230
         H            1.804250622492    -2.142177285244     0.063293190786     1.007825032230
         H            1.320021622492     3.544567714756    -0.837312809214     1.007825032230
         H            3.644572622492     2.903449714756    -0.186145809214     1.007825032230
         H           -1.230024377508     1.141253714756     1.457646190786     1.007825032230
         H           -2.396420377508    -1.794391285244    -1.457195809214     1.007825032230
         H           -3.615303377508     1.713299714756     1.841981190786     1.007825032230
         H           -4.793008377508    -1.187618285244    -1.111273809214     1.007825032230
         H            4.457335622492    -1.714329285244    -0.355933809214     1.007825032230
         H            3.837838622492    -2.997994285244     0.708927190786     1.007825032230
         H            4.337324622492    -1.450220285244     1.399152190786     1.007825032230
         H           -5.397649377508     0.565463714756     0.545682190786     1.007825032230

  Basis Set: AUG-CC-PVTZ
    Blend: AUG-CC-PVTZ
  Basis Set: (AUG-CC-PVTZ AUX)
    Blend: AUG-CC-PVTZ-JKFIT
	 Reference Energy          =    -667.2623668085865347 [Eh]
	 Singles Energy            =      -0.0000000000000000 [Eh]
	 Same-Spin Energy          =      -0.7346265120782012 [Eh]
	 Opposite-Spin Energy      =      -2.2652742343138921 [Eh]
	 Correlation Energy        =      -2.9999007463920933 [Eh]
	 Total Energy              =    -670.2622675549786209 [Eh]

	 ================> DF-SCS-MP2 Energies <==================
	-----------------------------------------------------------
	 SCS Same-Spin Scale       =       0.3333333333333333 [-]
	 SCS Opposite-Spin Scale   =       1.2000000000000000 [-]
	 SCS Same-Spin Energy      =      -0.2448755040260671 [Eh]
	 SCS Opposite-Spin Energy  =      -2.7183290811766705 [Eh]
	 SCS Correlation Energy    =      -2.9632045852027376 [Eh]
	 SCS Total Energy          =    -670.2255713937893233 [Eh]
	-----------------------------------------------------------

  Dipole Moment: [D]
     X:     0.3020      Y:     1.2235      Z:     0.3423     Total:     1.3059

*** Psi4 exiting successfully. Buy a developer a beer!
