                               Psi4 1.3.2 release

  ==> Input File <==

--------------------------------------------------------------------------
#psi4
#
memory 32 gb

molecule  {
0 1
  O       -0.0649480    -2.0007500    -0.4572220
  N        2.4573690    -1.4749290     0.4038410
  C        0.8099710     0.2105070    -0.2160820
  C        2.1525410    -0.1743900     0.0797160
  C       -0.3717702    -0.6747769    -0.3077303
  C       -1.6915990    -0.3449750    -0.0589870
  C        0.5343510     1.5458860    -0.5628900
  C        3.1364470     0.8361460     0.1179860
  C        1.5277130     2.5174420    -0.5614560
  C        2.8303350     2.1515420    -0.2122750
  C       -2.0336590     0.6403590     0.8794580
  C       -2.7013800    -1.0161980    -0.7629970
  C       -3.3755740     0.9555500     1.0975090
  C       -4.0377320    -0.6802290    -0.5577760
  C        3.8275740    -1.9241930     0.5318010
  C       -4.3779170     0.3056950     0.3735650
  H       -0.4794410     1.8136050    -0.8470490
  H        4.1617050     0.5791300     0.3641360
  H        1.7801010    -2.1461120     0.0568400
  H        1.2958720     3.5406330    -0.8437660
  H        3.6204230     2.8995150    -0.1925990
  H       -1.2541740     1.1373190     1.4511930
  H       -2.4205700    -1.7983260    -1.4636490
  H       -3.6394530     1.7093650     1.8355280
  H       -4.8171580    -1.1915530    -1.1177270
  H        4.4331860    -1.7182640    -0.3623870
  H        3.8136890    -3.0019290     0.7024740
  H        4.3131750    -1.4541550     1.3926990
  H       -5.4217990     0.5615290     0.5392290
units angstrom
no_reorient  #important for SAPT in psi4, default
symmetry c1  #important for SAPT in psi4, default
}

set PROPERTIES_ORIGIN ["COM"]
properties('MP2/aug-cc-pvtz', properties = ['dipole'])
--------------------------------------------------------------------------

    Molecular point group: c1
  Charge       = 0
  Multiplicity = 1
  Basis Set: AUG-CC-PVTZ
    Blend: AUG-CC-PVTZ
  Basis Set: (AUG-CC-PVTZ AUX)
    Blend: AUG-CC-PVTZ-JKFIT

    Orbital Energies [Eh]
    ---------------------

    Doubly Occupied:

       1A    -20.520527     2A    -15.559008     3A    -11.341301
       4A    -11.300108     5A    -11.260387     6A    -11.259261
       7A    -11.255934     8A    -11.254632     9A    -11.253537
      10A    -11.251596    11A    -11.250331    12A    -11.249190
      13A    -11.248608    14A    -11.242738    15A    -11.229442
      16A    -11.224929    17A     -1.299348    18A     -1.239360
      19A     -1.172340    20A     -1.142873    21A     -1.069307
      22A     -1.033269    23A     -1.025748    24A     -1.009303
      25A     -0.930809    26A     -0.899376    27A     -0.852337
      28A     -0.839948    29A     -0.808799    30A     -0.774403
      31A     -0.723573    32A     -0.699465    33A     -0.681179
      34A     -0.660125    35A     -0.646846    36A     -0.631199
      37A     -0.620413    38A     -0.613025    39A     -0.605539
      40A     -0.602125    41A     -0.592255    42A     -0.561731
      43A     -0.537738    44A     -0.535456    45A     -0.526415
      46A     -0.522424    47A     -0.517018    48A     -0.503825
      49A     -0.498894    50A     -0.460800    51A     -0.427327
      52A     -0.416318    53A     -0.353546    54A     -0.347284
      55A     -0.344661    56A     -0.290346

  @DF-RHF Final Energy:  -667.22222840290851

   => Energetics <=

    Nuclear Repulsion Energy =           1002.3699870528391784
    One-Electron Energy =               -2895.7478773492180153
    Two-Electron Energy =                1226.1556618934703238
    Total Energy =                       -667.2222284029085131
  Basis Set: (AUG-CC-PVTZ AUX)
    Blend: AUG-CC-PVTZ-RI
    Molecular point group: c1

    Geometry (in Angstrom), charge = 0, multiplicity = 1:

       Center              X                  Y                   Z               Mass
    ------------   -----------------  -----------------  -----------------  -----------------
         O           -0.034399356050    -2.002943541769    -0.447495152482    15.994914619570
         N            2.487917643950    -1.477122541769     0.413567847518    14.003074004430
         C            0.840519643950     0.208313458231    -0.206355152482    12.000000000000
         C            2.183089643950    -0.176583541769     0.089442847518    12.000000000000
         C           -0.341221556050    -0.676970441769    -0.298003452482    12.000000000000
         C           -1.661050356050    -0.347168541769    -0.049260152482    12.000000000000
         C            0.564899643950     1.543692458231    -0.553163152482    12.000000000000
         C            3.166995643950     0.833952458231     0.127712847518    12.000000000000
         C            1.558261643950     2.515248458231    -0.551729152482    12.000000000000
         C            2.860883643950     2.149348458231    -0.202548152482    12.000000000000
         C           -2.003110356050     0.638165458231     0.889184847518    12.000000000000
         C           -2.670831356050    -1.018391541769    -0.753270152482    12.000000000000
         C           -3.345025356050     0.953356458231     1.107235847518    12.000000000000
         C           -4.007183356050    -0.682422541769    -0.548049152482    12.000000000000
         C            3.858122643950    -1.926386541769     0.541527847518    12.000000000000
         C           -4.347368356050     0.303501458231     0.383291847518    12.000000000000
         H           -0.448892356050     1.811411458231    -0.837322152482     1.007825032230
         H            4.192253643950     0.576936458231     0.373862847518     1.007825032230
         H            1.810649643950    -2.148305541769     0.066566847518     1.007825032230
         H            1.326420643950     3.538439458231    -0.834039152482     1.007825032230
         H            3.650971643950     2.897321458231    -0.182872152482     1.007825032230
         H           -1.223625356050     1.135125458231     1.460919847518     1.007825032230
         H           -2.390021356050    -1.800519541769    -1.453922152482     1.007825032230
         H           -3.608904356050     1.707171458231     1.845254847518     1.007825032230
         H           -4.786609356050    -1.193746541769    -1.108000152482     1.007825032230
         H            4.463734643950    -1.720457541769    -0.352660152482     1.007825032230
         H            3.844237643950    -3.004122541769     0.712200847518     1.007825032230
         H            4.343723643950    -1.456348541769     1.402425847518     1.007825032230
         H           -5.391250356050     0.559335458231     0.548955847518     1.007825032230

  Basis Set: AUG-CC-PVTZ
    Blend: AUG-CC-PVTZ
  Basis Set: (AUG-CC-PVTZ AUX)
    Blend: AUG-CC-PVTZ-JKFIT
	 Reference Energy          =    -667.2222284029085131 [Eh]
	 Singles Energy            =      -0.0000000000000000 [Eh]
	 Same-Spin Energy          =      -0.7395486412671218 [Eh]
	 Opposite-Spin Energy      =      -2.2746450999261123 [Eh]
	 Correlation Energy        =      -3.0141937411932340 [Eh]
	 Total Energy              =    -670.2364221441017662 [Eh]

	 ================> DF-SCS-MP2 Energies <==================
	-----------------------------------------------------------
	 SCS Same-Spin Scale       =       0.3333333333333333 [-]
	 SCS Opposite-Spin Scale   =       1.2000000000000000 [-]
	 SCS Same-Spin Energy      =      -0.2465162137557073 [Eh]
	 SCS Opposite-Spin Energy  =      -2.7295741199113346 [Eh]
	 SCS Correlation Energy    =      -2.9760903336670417 [Eh]
	 SCS Total Energy          =    -670.1983187365755157 [Eh]
	-----------------------------------------------------------

  Dipole Moment: [D]
     X:    -0.1665      Y:     1.5645      Z:     0.4538     Total:     1.6375

*** Psi4 exiting successfully. Buy a developer a beer!
