                               Psi4 1.3.2 release

  ==> Input File <==

--------------------------------------------------------------------------
#psi4
#
memory 32 gb

molecule  {
0 1
  O       -0.0649480    -2.0007500    -0.4572220
  N        2.4573690    -1.4749290     0.4038410
  C        0.8439124     0.1726333    -0.2250310
  C        2.1525410    -0.1743900     0.0797160
  C       -0.2789970    -0.7898520    -0.2615780
  C       -1.6915990    -0.3449750    -0.0589870
  C        0.5343510     1.5458860    -0.5628900
  C        3.1364470     0.8361460     0.1179860
  C        1.5277130     2.5174420    -0.5614560
  C        2.8303350     2.1515420    -0.2122750
  C       -2.0336590     0.6403590     0.8794580
  C       -2.7013800    -1.0161980    -0.7629970
  C       -3.3755740     0.9555500     1.0975090
  C       -4.0377320    -0.6802290    -0.5577760
  C        3.8275740    -1.9241930     0.5318010
  C       -4.3779170     0.3056950     0.3735650
  H       -0.4794410     1.8136050    -0.8470490
  H        4.1617050     0.5791300     0.3641360
  H        1.7801010    -2.1461120     0.0568400
  H        1.2958720     3.5406330    -0.8437660
  H        3.6204230     2.8995150    -0.1925990
  H       -1.2541740     1.1373190     1.4511930
  H       -2.4205700    -1.7983260    -1.4636490
  H       -3.6394530     1.7093650     1.8355280
  H       -4.8171580    -1.1915530    -1.1177270
  H        4.4331860    -1.7182640    -0.3623870
  H        3.8136890    -3.0019290     0.7024740
  H        4.3131750    -1.4541550     1.3926990
  H       -5.4217990     0.5615290     0.5392290
units angstrom
no_reorient  #important for SAPT in psi4, default
symmetry c1  #important for SAPT in psi4, default
}

set PROPERTIES_ORIGIN ["COM"]
properties('MP2/aug-cc-pvtz', properties = ['dipole'])
--------------------------------------------------------------------------

    Molecular point group: c1
  Charge       = 0
  Multiplicity = 1
  Basis Set: AUG-CC-PVTZ
    Blend: AUG-CC-PVTZ
  Basis Set: (AUG-CC-PVTZ AUX)
    Blend: AUG-CC-PVTZ-JKFIT

    Orbital Energies [Eh]
    ---------------------

    Doubly Occupied:

       1A    -20.538132     2A    -15.558938     3A    -11.339560
       4A    -11.292558     5A    -11.255884     6A    -11.255412
       7A    -11.252708     8A    -11.252034     9A    -11.250669
      10A    -11.250591    11A    -11.247703    12A    -11.245348
      13A    -11.243971    14A    -11.237376    15A    -11.230723
      16A    -11.227338    17A     -1.372039    18A     -1.244626
      19A     -1.163629    20A     -1.140250    21A     -1.054565
      22A     -1.026066    23A     -1.021968    24A     -1.010109
      25A     -0.927978    26A     -0.888028    27A     -0.846640
      28A     -0.836032    29A     -0.807528    30A     -0.771542
      31A     -0.718887    32A     -0.699523    33A     -0.682694
      34A     -0.657430    35A     -0.645501    36A     -0.633401
      37A     -0.620255    38A     -0.614841    39A     -0.608073
      40A     -0.600426    41A     -0.595967    42A     -0.575096
      43A     -0.545449    44A     -0.541999    45A     -0.529313
      46A     -0.520190    47A     -0.513141    48A     -0.505761
      49A     -0.501260    50A     -0.486085    51A     -0.428273
      52A     -0.418997    53A     -0.348291    54A     -0.344845
      55A     -0.341798    56A     -0.295314

  @DF-RHF Final Energy:  -667.26017977178685

   => Energetics <=

    Nuclear Repulsion Energy =           1002.5690395497219924
    One-Electron Energy =               -2896.1329332313557643
    Two-Electron Energy =                1226.3037139098469197
    Total Energy =                       -667.2601797717868521
  Basis Set: (AUG-CC-PVTZ AUX)
    Blend: AUG-CC-PVTZ-RI
    Molecular point group: c1

    Geometry (in Angstrom), charge = 0, multiplicity = 1:

       Center              X                  Y                   Z               Mass
    ------------   -----------------  -----------------  -----------------  -----------------
         O           -0.041602469550    -1.994249140602    -0.449609980548    15.994914619570
         N            2.480714530450    -1.468428140602     0.411453019452    14.003074004430
         C            0.867257930450     0.179134159398    -0.217418980548    12.000000000000
         C            2.175886530450    -0.167889140602     0.087328019452    12.000000000000
         C           -0.255651469550    -0.783351140602    -0.253965980548    12.000000000000
         C           -1.668253469550    -0.338474140602    -0.051374980548    12.000000000000
         C            0.557696530450     1.552386859398    -0.555277980548    12.000000000000
         C            3.159792530450     0.842646859398     0.125598019452    12.000000000000
         C            1.551058530450     2.523942859398    -0.553843980548    12.000000000000
         C            2.853680530450     2.158042859398    -0.204662980548    12.000000000000
         C           -2.010313469550     0.646859859398     0.887070019452    12.000000000000
         C           -2.678034469550    -1.009697140602    -0.755384980548    12.000000000000
         C           -3.352228469550     0.962050859398     1.105121019452    12.000000000000
         C           -4.014386469550    -0.673728140602    -0.550163980548    12.000000000000
         C            3.850919530450    -1.917692140602     0.539413019452    12.000000000000
         C           -4.354571469550     0.312195859398     0.381177019452    12.000000000000
         H           -0.456095469550     1.820105859398    -0.839436980548     1.007825032230
         H            4.185050530450     0.585630859398     0.371748019452     1.007825032230
         H            1.803446530450    -2.139611140602     0.064452019452     1.007825032230
         H            1.319217530450     3.547133859398    -0.836153980548     1.007825032230
         H            3.643768530450     2.906015859398    -0.184986980548     1.007825032230
         H           -1.230828469550     1.143819859398     1.458805019452     1.007825032230
         H           -2.397224469550    -1.791825140602    -1.456036980548     1.007825032230
         H           -3.616107469550     1.715865859398     1.843140019452     1.007825032230
         H           -4.793812469550    -1.185052140602    -1.110114980548     1.007825032230
         H            4.456531530450    -1.711763140602    -0.354774980548     1.007825032230
         H            3.837034530450    -2.995428140602     0.710086019452     1.007825032230
         H            4.336520530450    -1.447654140602     1.400311019452     1.007825032230
         H           -5.398453469550     0.568029859398     0.546841019452     1.007825032230

  Basis Set: AUG-CC-PVTZ
    Blend: AUG-CC-PVTZ
  Basis Set: (AUG-CC-PVTZ AUX)
    Blend: AUG-CC-PVTZ-JKFIT
	 Reference Energy          =    -667.2601797717868521 [Eh]
	 Singles Energy            =      -0.0000000000000000 [Eh]
	 Same-Spin Energy          =      -0.7345148436946157 [Eh]
	 Opposite-Spin Energy      =      -2.2655411732652615 [Eh]
	 Correlation Energy        =      -3.0000560169598773 [Eh]
	 Total Energy              =    -670.2602357887467406 [Eh]

	 ================> DF-SCS-MP2 Energies <==================
	-----------------------------------------------------------
	 SCS Same-Spin Scale       =       0.3333333333333333 [-]
	 SCS Opposite-Spin Scale   =       1.2000000000000000 [-]
	 SCS Same-Spin Energy      =      -0.2448382812315386 [Eh]
	 SCS Opposite-Spin Energy  =      -2.7186494079183139 [Eh]
	 SCS Correlation Energy    =      -2.9634876891498525 [Eh]
	 SCS Total Energy          =    -670.2236674609366673 [Eh]
	-----------------------------------------------------------

  Dipole Moment: [D]
     X:     0.2769      Y:     1.2865      Z:     0.3394     Total:     1.3590

*** Psi4 exiting successfully. Buy a developer a beer!
