                               Psi4 1.3.2 release

  ==> Input File <==

--------------------------------------------------------------------------
#psi4
#
memory 32 gb

molecule  {
0 1
  O       -0.0649480    -2.0007500    -0.4572220
  N        2.4573690    -1.4749290     0.4038410
  C        0.7863741     0.2048755    -0.2198819
  C        2.1525410    -0.1743900     0.0797160
  C       -0.2789970    -0.7898520    -0.2615780
  C       -1.6915990    -0.3449750    -0.0589870
  C        0.5343510     1.5458860    -0.5628900
  C        3.1364470     0.8361460     0.1179860
  C        1.5277130     2.5174420    -0.5614560
  C        2.8303350     2.1515420    -0.2122750
  C       -2.0336590     0.6403590     0.8794580
  C       -2.7013800    -1.0161980    -0.7629970
  C       -3.3755740     0.9555500     1.0975090
  C       -4.0377320    -0.6802290    -0.5577760
  C        3.8275740    -1.9241930     0.5318010
  C       -4.3779170     0.3056950     0.3735650
  H       -0.4794410     1.8136050    -0.8470490
  H        4.1617050     0.5791300     0.3641360
  H        1.7801010    -2.1461120     0.0568400
  H        1.2958720     3.5406330    -0.8437660
  H        3.6204230     2.8995150    -0.1925990
  H       -1.2541740     1.1373190     1.4511930
  H       -2.4205700    -1.7983260    -1.4636490
  H       -3.6394530     1.7093650     1.8355280
  H       -4.8171580    -1.1915530    -1.1177270
  H        4.4331860    -1.7182640    -0.3623870
  H        3.8136890    -3.0019290     0.7024740
  H        4.3131750    -1.4541550     1.3926990
  H       -5.4217990     0.5615290     0.5392290
units angstrom
no_reorient  #important for SAPT in psi4, default
symmetry c1  #important for SAPT in psi4, default
}

set PROPERTIES_ORIGIN ["COM"]
properties('MP2/aug-cc-pvtz', properties = ['dipole'])
--------------------------------------------------------------------------

    Molecular point group: c1
  Charge       = 0
  Multiplicity = 1
  Basis Set: AUG-CC-PVTZ
    Blend: AUG-CC-PVTZ
  Basis Set: (AUG-CC-PVTZ AUX)
    Blend: AUG-CC-PVTZ-JKFIT

    Orbital Energies [Eh]
    ---------------------

    Doubly Occupied:

       1A    -20.538228     2A    -15.563393     3A    -11.338051
       4A    -11.300653     5A    -11.257680     6A    -11.254357
       7A    -11.253891     8A    -11.250772     9A    -11.249677
      10A    -11.248431    11A    -11.246306    12A    -11.244476
      13A    -11.243029    14A    -11.238797    15A    -11.228968
      16A    -11.226044    17A     -1.371800    18A     -1.244676
      19A     -1.163093    20A     -1.141618    21A     -1.057715
      22A     -1.025056    23A     -1.020268    24A     -1.009432
      25A     -0.930799    26A     -0.890350    27A     -0.845285
      28A     -0.833876    29A     -0.806726    30A     -0.771392
      31A     -0.718039    32A     -0.703010    33A     -0.683171
      34A     -0.656037    35A     -0.644585    36A     -0.633375
      37A     -0.619022    38A     -0.615421    39A     -0.607858
      40A     -0.602121    41A     -0.595666    42A     -0.577620
      43A     -0.545240    44A     -0.542907    45A     -0.531563
      46A     -0.520053    47A     -0.512088    48A     -0.501968
      49A     -0.500714    50A     -0.485627    51A     -0.429991
      52A     -0.419783    53A     -0.351148    54A     -0.344809
      55A     -0.342845    56A     -0.291478

  @DF-RHF Final Energy:  -667.26194076159652

   => Energetics <=

    Nuclear Repulsion Energy =           1002.5255953176637149
    One-Electron Energy =               -2896.0331143306129889
    Two-Electron Energy =                1226.2455782513525264
    Total Energy =                       -667.2619407615966338
  Basis Set: (AUG-CC-PVTZ AUX)
    Blend: AUG-CC-PVTZ-RI
    Molecular point group: c1

    Geometry (in Angstrom), charge = 0, multiplicity = 1:

       Center              X                  Y                   Z               Mass
    ------------   -----------------  -----------------  -----------------  -----------------
         O           -0.038331694868    -1.996081954075    -0.449902682034    15.994914619570
         N            2.483985305132    -1.470260954075     0.411160317966    14.003074004430
         C            0.812990405132     0.209543545925    -0.212562582034    12.000000000000
         C            2.179157305132    -0.169721954075     0.087035317966    12.000000000000
         C           -0.252380694868    -0.785183954075    -0.254258682034    12.000000000000
         C           -1.664982694868    -0.340306954075    -0.051667682034    12.000000000000
         C            0.560967305132     1.550554045925    -0.555570682034    12.000000000000
         C            3.163063305132     0.840814045925     0.125305317966    12.000000000000
         C            1.554329305132     2.522110045925    -0.554136682034    12.000000000000
         C            2.856951305132     2.156210045925    -0.204955682034    12.000000000000
         C           -2.007042694868     0.645027045925     0.886777317966    12.000000000000
         C           -2.674763694868    -1.011529954075    -0.755677682034    12.000000000000
         C           -3.348957694868     0.960218045925     1.104828317966    12.000000000000
         C           -4.011115694868    -0.675560954075    -0.550456682034    12.000000000000
         C            3.854190305132    -1.919524954075     0.539120317966    12.000000000000
         C           -4.351300694868     0.310363045925     0.380884317966    12.000000000000
         H           -0.452824694868     1.818273045925    -0.839729682034     1.007825032230
         H            4.188321305132     0.583798045925     0.371455317966     1.007825032230
         H            1.806717305132    -2.141443954075     0.064159317966     1.007825032230
         H            1.322488305132     3.545301045925    -0.836446682034     1.007825032230
         H            3.647039305132     2.904183045925    -0.185279682034     1.007825032230
         H           -1.227557694868     1.141987045925     1.458512317966     1.007825032230
         H           -2.393953694868    -1.793657954075    -1.456329682034     1.007825032230
         H           -3.612836694868     1.714033045925     1.842847317966     1.007825032230
         H           -4.790541694868    -1.186884954075    -1.110407682034     1.007825032230
         H            4.459802305132    -1.713595954075    -0.355067682034     1.007825032230
         H            3.840305305132    -2.997260954075     0.709793317966     1.007825032230
         H            4.339791305132    -1.449486954075     1.400018317966     1.007825032230
         H           -5.395182694868     0.566197045925     0.546548317966     1.007825032230

  Basis Set: AUG-CC-PVTZ
    Blend: AUG-CC-PVTZ
  Basis Set: (AUG-CC-PVTZ AUX)
    Blend: AUG-CC-PVTZ-JKFIT
	 Reference Energy          =    -667.2619407615965201 [Eh]
	 Singles Energy            =      -0.0000000000000000 [Eh]
	 Same-Spin Energy          =      -0.7347463836778595 [Eh]
	 Opposite-Spin Energy      =      -2.2654576002469726 [Eh]
	 Correlation Energy        =      -3.0002039839248322 [Eh]
	 Total Energy              =    -670.2621447455213683 [Eh]

	 ================> DF-SCS-MP2 Energies <==================
	-----------------------------------------------------------
	 SCS Same-Spin Scale       =       0.3333333333333333 [-]
	 SCS Opposite-Spin Scale   =       1.2000000000000000 [-]
	 SCS Same-Spin Energy      =      -0.2449154612259531 [Eh]
	 SCS Opposite-Spin Energy  =      -2.7185491202963670 [Eh]
	 SCS Correlation Energy    =      -2.9634645815223202 [Eh]
	 SCS Total Energy          =    -670.2254053431188368 [Eh]
	-----------------------------------------------------------

  Dipole Moment: [D]
     X:     0.4296      Y:     1.2205      Z:     0.3567     Total:     1.3422

*** Psi4 exiting successfully. Buy a developer a beer!
