                               Psi4 1.4a2.dev612

  ==> Input File <==

--------------------------------------------------------------------------
#psi4
#
memory 32 gb

molecule  {
0 1
  O       -0.0649480    -2.0007500    -0.4572220
  N        2.4573690    -1.4749290     0.4038410
  C        0.8099710     0.2105070    -0.2160820
  C        2.1525410    -0.1743900     0.0797160
  C       -0.2713021    -0.7730319    -0.2431798
  C       -1.6915990    -0.3449750    -0.0589870
  C        0.5343510     1.5458860    -0.5628900
  C        3.1364470     0.8361460     0.1179860
  C        1.5277130     2.5174420    -0.5614560
  C        2.8303350     2.1515420    -0.2122750
  C       -2.0336590     0.6403590     0.8794580
  C       -2.7013800    -1.0161980    -0.7629970
  C       -3.3755740     0.9555500     1.0975090
  C       -4.0377320    -0.6802290    -0.5577760
  C        3.8275740    -1.9241930     0.5318010
  C       -4.3779170     0.3056950     0.3735650
  H       -0.4794410     1.8136050    -0.8470490
  H        4.1617050     0.5791300     0.3641360
  H        1.7801010    -2.1461120     0.0568400
  H        1.2958720     3.5406330    -0.8437660
  H        3.6204230     2.8995150    -0.1925990
  H       -1.2541740     1.1373190     1.4511930
  H       -2.4205700    -1.7983260    -1.4636490
  H       -3.6394530     1.7093650     1.8355280
  H       -4.8171580    -1.1915530    -1.1177270
  H        4.4331860    -1.7182640    -0.3623870
  H        3.8136890    -3.0019290     0.7024740
  H        4.3131750    -1.4541550     1.3926990
  H       -5.4217990     0.5615290     0.5392290
units angstrom
no_reorient  #important for SAPT in psi4, default
symmetry c1  #important for SAPT in psi4, default
}

set PROPERTIES_ORIGIN ["COM"]
properties('MP2/aug-cc-pvtz', properties = ['dipole'])
--------------------------------------------------------------------------

    Molecular point group: c1
  Charge       = 0
  Multiplicity = 1
  Basis Set: AUG-CC-PVTZ
    Blend: AUG-CC-PVTZ
  Basis Set: (AUG-CC-PVTZ AUX)
    Blend: AUG-CC-PVTZ-JKFIT

    Orbital Energies [Eh]
    ---------------------

    Doubly Occupied:

       1A    -20.536652     2A    -15.562532     3A    -11.340110
       4A    -11.298757     5A    -11.257441     6A    -11.254198
       7A    -11.254060     8A    -11.251047     9A    -11.250109
      10A    -11.249511    11A    -11.247061    12A    -11.244647
      13A    -11.243449    14A    -11.238709    15A    -11.229812
      16A    -11.226819    17A     -1.360078    18A     -1.244891
      19A     -1.163364    20A     -1.143462    21A     -1.057773
      22A     -1.025356    23A     -1.021464    24A     -1.011030
      25A     -0.930513    26A     -0.890282    27A     -0.845426
      28A     -0.834923    29A     -0.808531    30A     -0.771895
      31A     -0.718325    32A     -0.701976    33A     -0.683293
      34A     -0.656039    35A     -0.643089    36A     -0.633283
      37A     -0.619530    38A     -0.615668    39A     -0.606493
      40A     -0.600958    41A     -0.595807    42A     -0.577210
      43A     -0.543382    44A     -0.542130    45A     -0.530519
      46A     -0.520033    47A     -0.512754    48A     -0.504173
      49A     -0.500776    50A     -0.483061    51A     -0.429992
      52A     -0.419779    53A     -0.351166    54A     -0.344832
      55A     -0.343046    56A     -0.293011

  @DF-RHF Final Energy:  -667.26024370516222

   => Energetics <=

    Nuclear Repulsion Energy =           1002.5616746487426099
    One-Electron Energy =               -2896.1153818089096603
    Two-Electron Energy =                1226.2934634550047122
    Total Energy =                       -667.2602437051623383
  Basis Set: (AUG-CC-PVTZ AUX)
    Blend: AUG-CC-PVTZ-RI
    Molecular point group: c1

    Geometry (in Angstrom), charge = 0, multiplicity = 1:

       Center              X                  Y                   Z               Mass
    ------------   -----------------  -----------------  -----------------  -----------------
         O           -0.040110482687    -1.997358219186    -0.451164536893    15.994914619570
         N            2.482206517313    -1.471537219186     0.409898463107    14.003074004430
         C            0.834808517313     0.213898780814    -0.210024536893    12.000000000000
         C            2.177378517313    -0.170998219186     0.085773463107    12.000000000000
         C           -0.246464582687    -0.769640119186    -0.237122336893    12.000000000000
         C           -1.666761482687    -0.341583219186    -0.052929536893    12.000000000000
         C            0.559188517313     1.549277780814    -0.556832536893    12.000000000000
         C            3.161284517313     0.839537780814     0.124043463107    12.000000000000
         C            1.552550517313     2.520833780814    -0.555398536893    12.000000000000
         C            2.855172517313     2.154933780814    -0.206217536893    12.000000000000
         C           -2.008821482687     0.643750780814     0.885515463107    12.000000000000
         C           -2.676542482687    -1.012806219186    -0.756939536893    12.000000000000
         C           -3.350736482687     0.958941780814     1.103566463107    12.000000000000
         C           -4.012894482687    -0.676837219186    -0.551718536893    12.000000000000
         C            3.852411517313    -1.920801219186     0.537858463107    12.000000000000
         C           -4.353079482687     0.309086780814     0.379622463107    12.000000000000
         H           -0.454603482687     1.816996780814    -0.840991536893     1.007825032230
         H            4.186542517313     0.582521780814     0.370193463107     1.007825032230
         H            1.804938517313    -2.142720219186     0.062897463107     1.007825032230
         H            1.320709517313     3.544024780814    -0.837708536893     1.007825032230
         H            3.645260517313     2.902906780814    -0.186541536893     1.007825032230
         H           -1.229336482687     1.140710780814     1.457250463107     1.007825032230
         H           -2.395732482687    -1.794934219186    -1.457591536893     1.007825032230
         H           -3.614615482687     1.712756780814     1.841585463107     1.007825032230
         H           -4.792320482687    -1.188161219186    -1.111669536893     1.007825032230
         H            4.458023517313    -1.714872219186    -0.356329536893     1.007825032230
         H            3.838526517313    -2.998537219186     0.708531463107     1.007825032230
         H            4.338012517313    -1.450763219186     1.398756463107     1.007825032230
         H           -5.396961482687     0.564920780814     0.545286463107     1.007825032230

  Basis Set: AUG-CC-PVTZ
    Blend: AUG-CC-PVTZ
  Basis Set: (AUG-CC-PVTZ AUX)
    Blend: AUG-CC-PVTZ-JKFIT
	 Reference Energy          =    -667.2602437051622246 [Eh]
	 Singles Energy            =      -0.0000000000000000 [Eh]
	 Same-Spin Energy          =      -0.7351895593491441 [Eh]
	 Opposite-Spin Energy      =      -2.2664080960989756 [Eh]
	 Correlation Energy        =      -3.0015976554481196 [Eh]
	 Total Energy              =    -670.2618413606103331 [Eh]

	 ================> DF-SCS-MP2 Energies <==================
	-----------------------------------------------------------
	 SCS Same-Spin Scale       =       0.3333333333333333 [-]
	 SCS Opposite-Spin Scale   =       1.2000000000000000 [-]
	 SCS Same-Spin Energy      =      -0.2450631864497147 [Eh]
	 SCS Opposite-Spin Energy  =      -2.7196897153187707 [Eh]
	 SCS Correlation Energy    =      -2.9647529017684855 [Eh]
	 SCS Total Energy          =    -670.2249966069307447 [Eh]
	-----------------------------------------------------------

  Dipole Moment: [D]
     X:     0.4173      Y:     1.2981      Z:     0.3648     Total:     1.4115

*** Psi4 exiting successfully. Buy a developer a beer!
