                               Psi4 1.3.2 release

  ==> Input File <==

--------------------------------------------------------------------------
#psi4
#
memory 32 gb

molecule  {
0 1
  O       -0.0649480    -2.0007500    -0.4572220
  N        2.4573690    -1.4749290     0.4038410
  C        0.8099710     0.2105070    -0.2160820
  C        2.1525410    -0.1743900     0.0797160
  C       -0.2953169    -0.7714013    -0.2693184
  C       -1.6915990    -0.3449750    -0.0589870
  C        0.5343510     1.5458860    -0.5628900
  C        3.1364470     0.8361460     0.1179860
  C        1.5277130     2.5174420    -0.5614560
  C        2.8303350     2.1515420    -0.2122750
  C       -2.0336590     0.6403590     0.8794580
  C       -2.7013800    -1.0161980    -0.7629970
  C       -3.3755740     0.9555500     1.0975090
  C       -4.0377320    -0.6802290    -0.5577760
  C        3.8275740    -1.9241930     0.5318010
  C       -4.3779170     0.3056950     0.3735650
  H       -0.4794410     1.8136050    -0.8470490
  H        4.1617050     0.5791300     0.3641360
  H        1.7801010    -2.1461120     0.0568400
  H        1.2958720     3.5406330    -0.8437660
  H        3.6204230     2.8995150    -0.1925990
  H       -1.2541740     1.1373190     1.4511930
  H       -2.4205700    -1.7983260    -1.4636490
  H       -3.6394530     1.7093650     1.8355280
  H       -4.8171580    -1.1915530    -1.1177270
  H        4.4331860    -1.7182640    -0.3623870
  H        3.8136890    -3.0019290     0.7024740
  H        4.3131750    -1.4541550     1.3926990
  H       -5.4217990     0.5615290     0.5392290
units angstrom
no_reorient  #important for SAPT in psi4, default
symmetry c1  #important for SAPT in psi4, default
}

set PROPERTIES_ORIGIN ["COM"]
properties('MP2/aug-cc-pvtz', properties = ['dipole'])
--------------------------------------------------------------------------

    Molecular point group: c1
  Charge       = 0
  Multiplicity = 1
  Basis Set: AUG-CC-PVTZ
    Blend: AUG-CC-PVTZ
  Basis Set: (AUG-CC-PVTZ AUX)
    Blend: AUG-CC-PVTZ-JKFIT

    Orbital Energies [Eh]
    ---------------------

    Doubly Occupied:

       1A    -20.536804     2A    -15.561364     3A    -11.340470
       4A    -11.297679     5A    -11.256646     6A    -11.252919
       7A    -11.252766     8A    -11.252381     9A    -11.251706
      10A    -11.249873    11A    -11.248340    12A    -11.245912
      13A    -11.244429    14A    -11.239087    15A    -11.228955
      16A    -11.225708    17A     -1.359289    18A     -1.243642
      19A     -1.165131    20A     -1.142163    21A     -1.058054
      22A     -1.026924    23A     -1.021569    24A     -1.009860
      25A     -0.929535    26A     -0.890344    27A     -0.846570
      28A     -0.835578    29A     -0.807665    30A     -0.772021
      31A     -0.718827    32A     -0.700857    33A     -0.682998
      34A     -0.655766    35A     -0.644688    36A     -0.633509
      37A     -0.618905    38A     -0.614841    39A     -0.607441
      40A     -0.600398    41A     -0.596820    42A     -0.575628
      43A     -0.542351    44A     -0.541362    45A     -0.529828
      46A     -0.520772    47A     -0.513851    48A     -0.503503
      49A     -0.501867    50A     -0.482766    51A     -0.429000
      52A     -0.420207    53A     -0.350749    54A     -0.345738
      55A     -0.343997    56A     -0.291778

  @DF-RHF Final Energy:  -667.25991652087259

   => Energetics <=

    Nuclear Repulsion Energy =           1002.4705327040331895
    One-Electron Energy =               -2895.9372381363700697
    Two-Electron Energy =                1226.2067889114641730
    Total Energy =                       -667.2599165208725935
  Basis Set: (AUG-CC-PVTZ AUX)
    Blend: AUG-CC-PVTZ-RI
    Molecular point group: c1

    Geometry (in Angstrom), charge = 0, multiplicity = 1:

       Center              X                  Y                   Z               Mass
    ------------   -----------------  -----------------  -----------------  -----------------
         O           -0.038745357200    -1.997450910927    -0.449678683625    15.994914619570
         N            2.483571642800    -1.471629910927     0.411384316375    14.003074004430
         C            0.836173642800     0.213806089073    -0.208538683625    12.000000000000
         C            2.178743642800    -0.171090910927     0.087259316375    12.000000000000
         C           -0.269114257200    -0.768102210927    -0.261775083625    12.000000000000
         C           -1.665396357200    -0.341675910927    -0.051443683625    12.000000000000
         C            0.560553642800     1.549185089073    -0.555346683625    12.000000000000
         C            3.162649642800     0.839445089073     0.125529316375    12.000000000000
         C            1.553915642800     2.520741089073    -0.553912683625    12.000000000000
         C            2.856537642800     2.154841089073    -0.204731683625    12.000000000000
         C           -2.007456357200     0.643658089073     0.887001316375    12.000000000000
         C           -2.675177357200    -1.012898910927    -0.755453683625    12.000000000000
         C           -3.349371357200     0.958849089073     1.105052316375    12.000000000000
         C           -4.011529357200    -0.676929910927    -0.550232683625    12.000000000000
         C            3.853776642800    -1.920893910927     0.539344316375    12.000000000000
         C           -4.351714357200     0.308994089073     0.381108316375    12.000000000000
         H           -0.453238357200     1.816904089073    -0.839505683625     1.007825032230
         H            4.187907642800     0.582429089073     0.371679316375     1.007825032230
         H            1.806303642800    -2.142812910927     0.064383316375     1.007825032230
         H            1.322074642800     3.543932089073    -0.836222683625     1.007825032230
         H            3.646625642800     2.902814089073    -0.185055683625     1.007825032230
         H           -1.227971357200     1.140618089073     1.458736316375     1.007825032230
         H           -2.394367357200    -1.795026910927    -1.456105683625     1.007825032230
         H           -3.613250357200     1.712664089073     1.843071316375     1.007825032230
         H           -4.790955357200    -1.188253910927    -1.110183683625     1.007825032230
         H            4.459388642800    -1.714964910927    -0.354843683625     1.007825032230
         H            3.839891642800    -2.998629910927     0.710017316375     1.007825032230
         H            4.339377642800    -1.450855910927     1.400242316375     1.007825032230
         H           -5.395596357200     0.564828089073     0.546772316375     1.007825032230

  Basis Set: AUG-CC-PVTZ
    Blend: AUG-CC-PVTZ
  Basis Set: (AUG-CC-PVTZ AUX)
    Blend: AUG-CC-PVTZ-JKFIT
	 Reference Energy          =    -667.2599165208725935 [Eh]
	 Singles Energy            =      -0.0000000000000000 [Eh]
	 Same-Spin Energy          =      -0.7352741584101312 [Eh]
	 Opposite-Spin Energy      =      -2.2665697835718941 [Eh]
	 Correlation Energy        =      -3.0018439419820253 [Eh]
	 Total Energy              =    -670.2617604628545678 [Eh]

	 ================> DF-SCS-MP2 Energies <==================
	-----------------------------------------------------------
	 SCS Same-Spin Scale       =       0.3333333333333333 [-]
	 SCS Opposite-Spin Scale   =       1.2000000000000000 [-]
	 SCS Same-Spin Energy      =      -0.2450913861367104 [Eh]
	 SCS Opposite-Spin Energy  =      -2.7198837402862730 [Eh]
	 SCS Correlation Energy    =      -2.9649751264229836 [Eh]
	 SCS Total Energy          =    -670.2248916472955216 [Eh]
	-----------------------------------------------------------

  Dipole Moment: [D]
     X:     0.2213      Y:     1.2713      Z:     0.3637     Total:     1.3407

*** Psi4 exiting successfully. Buy a developer a beer!
