                               Psi4 1.4a2.dev612

  ==> Input File <==

--------------------------------------------------------------------------
#psi4
#
memory 32 gb

molecule  {
0 1
  O       -0.0649480    -2.0007500    -0.4572220
  N        2.4573690    -1.4749290     0.4038410
  C        0.8099710     0.2105070    -0.2160820
  C        2.1525410    -0.1743900     0.0797160
  C       -0.2789970    -0.7898520    -0.2615780
  C       -1.5970974    -0.3747368    -0.0725401
  C        0.5343510     1.5458860    -0.5628900
  C        3.1364470     0.8361460     0.1179860
  C        1.5277130     2.5174420    -0.5614560
  C        2.8303350     2.1515420    -0.2122750
  C       -2.0336590     0.6403590     0.8794580
  C       -2.7013800    -1.0161980    -0.7629970
  C       -3.3755740     0.9555500     1.0975090
  C       -4.0377320    -0.6802290    -0.5577760
  C        3.8275740    -1.9241930     0.5318010
  C       -4.3779170     0.3056950     0.3735650
  H       -0.4794410     1.8136050    -0.8470490
  H        4.1617050     0.5791300     0.3641360
  H        1.7801010    -2.1461120     0.0568400
  H        1.2958720     3.5406330    -0.8437660
  H        3.6204230     2.8995150    -0.1925990
  H       -1.2541740     1.1373190     1.4511930
  H       -2.4205700    -1.7983260    -1.4636490
  H       -3.6394530     1.7093650     1.8355280
  H       -4.8171580    -1.1915530    -1.1177270
  H        4.4331860    -1.7182640    -0.3623870
  H        3.8136890    -3.0019290     0.7024740
  H        4.3131750    -1.4541550     1.3926990
  H       -5.4217990     0.5615290     0.5392290
units angstrom
no_reorient  #important for SAPT in psi4, default
symmetry c1  #important for SAPT in psi4, default
}

set PROPERTIES_ORIGIN ["COM"]
properties('MP2/aug-cc-pvtz', properties = ['dipole'])
--------------------------------------------------------------------------

    Molecular point group: c1
  Charge       = 0
  Multiplicity = 1
  Basis Set: AUG-CC-PVTZ
    Blend: AUG-CC-PVTZ
  Basis Set: (AUG-CC-PVTZ AUX)
    Blend: AUG-CC-PVTZ-JKFIT

    Orbital Energies [Eh]
    ---------------------

    Doubly Occupied:

       1A    -20.534791     2A    -15.560674     3A    -11.331679
       4A    -11.295935     5A    -11.261968     6A    -11.257254
       7A    -11.256728     8A    -11.256209     9A    -11.252156
      10A    -11.251609    11A    -11.251465    12A    -11.246966
      13A    -11.245510    14A    -11.237253    15A    -11.227910
      16A    -11.224975    17A     -1.372380    18A     -1.243240
      19A     -1.158431    20A     -1.140811    21A     -1.063328
      22A     -1.024563    23A     -1.018786    24A     -1.008989
      25A     -0.930058    26A     -0.898633    27A     -0.849789
      28A     -0.830914    29A     -0.806267    30A     -0.770549
      31A     -0.719432    32A     -0.701374    33A     -0.686939
      34A     -0.656809    35A     -0.648555    36A     -0.632423
      37A     -0.618493    38A     -0.614470    39A     -0.609897
      40A     -0.600278    41A     -0.591620    42A     -0.576543
      43A     -0.545986    44A     -0.541515    45A     -0.531400
      46A     -0.526398    47A     -0.510650    48A     -0.502945
      49A     -0.491315    50A     -0.480754    51A     -0.428603
      52A     -0.423073    53A     -0.349988    54A     -0.344003
      55A     -0.340521    56A     -0.290798

  @DF-RHF Final Energy:  -667.24723644430139

   => Energetics <=

    Nuclear Repulsion Energy =           1002.9198736960594260
    One-Electron Energy =               -2896.7850165955946977
    Two-Electron Energy =                1226.6179064552338787
    Total Energy =                       -667.2472364443015067
  Basis Set: (AUG-CC-PVTZ AUX)
    Blend: AUG-CC-PVTZ-RI
    Molecular point group: c1

    Geometry (in Angstrom), charge = 0, multiplicity = 1:

       Center              X                  Y                   Z               Mass
    ------------   -----------------  -----------------  -----------------  -----------------
         O           -0.045045024663    -1.994710262970    -0.449348259681    15.994914619570
         N            2.477271975337    -1.468889262970     0.411714740319    14.003074004430
         C            0.829873975337     0.216546737030    -0.208208259681    12.000000000000
         C            2.172443975337    -0.168350262970     0.087589740319    12.000000000000
         C           -0.259094024663    -0.783812262970    -0.253704259681    12.000000000000
         C           -1.577194424663    -0.368697062970    -0.064666359681    12.000000000000
         C            0.554253975337     1.551925737030    -0.555016259681    12.000000000000
         C            3.156349975337     0.842185737030     0.125859740319    12.000000000000
         C            1.547615975337     2.523481737030    -0.553582259681    12.000000000000
         C            2.850237975337     2.157581737030    -0.204401259681    12.000000000000
         C           -2.013756024663     0.646398737030     0.887331740319    12.000000000000
         C           -2.681477024663    -1.010158262970    -0.755123259681    12.000000000000
         C           -3.355671024663     0.961589737030     1.105382740319    12.000000000000
         C           -4.017829024663    -0.674189262970    -0.549902259681    12.000000000000
         C            3.847476975337    -1.918153262970     0.539674740319    12.000000000000
         C           -4.358014024663     0.311734737030     0.381438740319    12.000000000000
         H           -0.459538024663     1.819644737030    -0.839175259681     1.007825032230
         H            4.181607975337     0.585169737030     0.372009740319     1.007825032230
         H            1.800003975337    -2.140072262970     0.064713740319     1.007825032230
         H            1.315774975337     3.546672737030    -0.835892259681     1.007825032230
         H            3.640325975337     2.905554737030    -0.184725259681     1.007825032230
         H           -1.234271024663     1.143358737030     1.459066740319     1.007825032230
         H           -2.400667024663    -1.792286262970    -1.455775259681     1.007825032230
         H           -3.619550024663     1.715404737030     1.843401740319     1.007825032230
         H           -4.797255024663    -1.185513262970    -1.109853259681     1.007825032230
         H            4.453088975337    -1.712224262970    -0.354513259681     1.007825032230
         H            3.833591975337    -2.995889262970     0.710347740319     1.007825032230
         H            4.333077975337    -1.448115262970     1.400572740319     1.007825032230
         H           -5.401896024663     0.567568737030     0.547102740319     1.007825032230

  Basis Set: AUG-CC-PVTZ
    Blend: AUG-CC-PVTZ
  Basis Set: (AUG-CC-PVTZ AUX)
    Blend: AUG-CC-PVTZ-JKFIT
	 Reference Energy          =    -667.2472364443013930 [Eh]
	 Singles Energy            =      -0.0000000000000000 [Eh]
	 Same-Spin Energy          =      -0.7360497624013990 [Eh]
	 Opposite-Spin Energy      =      -2.2678630942590536 [Eh]
	 Correlation Energy        =      -3.0039128566604525 [Eh]
	 Total Energy              =    -670.2511493009618562 [Eh]

	 ================> DF-SCS-MP2 Energies <==================
	-----------------------------------------------------------
	 SCS Same-Spin Scale       =       0.3333333333333333 [-]
	 SCS Opposite-Spin Scale   =       1.2000000000000000 [-]
	 SCS Same-Spin Energy      =      -0.2453499208004663 [Eh]
	 SCS Opposite-Spin Energy  =      -2.7214357131108642 [Eh]
	 SCS Correlation Energy    =      -2.9667856339113303 [Eh]
	 SCS Total Energy          =    -670.2140220782126789 [Eh]
	-----------------------------------------------------------

  Dipole Moment: [D]
     X:     0.0428      Y:     1.2700      Z:     0.3844     Total:     1.3276

*** Psi4 exiting successfully. Buy a developer a beer!
