                               Psi4 1.3.2 release

  ==> Input File <==

--------------------------------------------------------------------------
#psi4
#
memory 32 gb

molecule  {
0 1
  O       -0.0649480    -2.0007500    -0.4572220
  N        2.4573690    -1.4749290     0.4038410
  C        0.8099710     0.2105070    -0.2160820
  C        2.1525410    -0.1743900     0.0797160
  C       -0.3133786    -0.5953517    -0.2301527
  C       -1.6915990    -0.3449750    -0.0589870
  C        0.5343510     1.5458860    -0.5628900
  C        3.1364470     0.8361460     0.1179860
  C        1.5277130     2.5174420    -0.5614560
  C        2.8303350     2.1515420    -0.2122750
  C       -2.0336590     0.6403590     0.8794580
  C       -2.7013800    -1.0161980    -0.7629970
  C       -3.3755740     0.9555500     1.0975090
  C       -4.0377320    -0.6802290    -0.5577760
  C        3.8275740    -1.9241930     0.5318010
  C       -4.3779170     0.3056950     0.3735650
  H       -0.4794410     1.8136050    -0.8470490
  H        4.1617050     0.5791300     0.3641360
  H        1.7801010    -2.1461120     0.0568400
  H        1.2958720     3.5406330    -0.8437660
  H        3.6204230     2.8995150    -0.1925990
  H       -1.2541740     1.1373190     1.4511930
  H       -2.4205700    -1.7983260    -1.4636490
  H       -3.6394530     1.7093650     1.8355280
  H       -4.8171580    -1.1915530    -1.1177270
  H        4.4331860    -1.7182640    -0.3623870
  H        3.8136890    -3.0019290     0.7024740
  H        4.3131750    -1.4541550     1.3926990
  H       -5.4217990     0.5615290     0.5392290
units angstrom
no_reorient  #important for SAPT in psi4, default
symmetry c1  #important for SAPT in psi4, default
}

set PROPERTIES_ORIGIN ["COM"]
properties('MP2/aug-cc-pvtz', properties = ['dipole'])
--------------------------------------------------------------------------

    Molecular point group: c1
  Charge       = 0
  Multiplicity = 1
  Basis Set: AUG-CC-PVTZ
    Blend: AUG-CC-PVTZ
  Basis Set: (AUG-CC-PVTZ AUX)
    Blend: AUG-CC-PVTZ-JKFIT

    Orbital Energies [Eh]
    ---------------------

    Doubly Occupied:

       1A    -20.503238     2A    -15.564737     3A    -11.336762
       4A    -11.309482     5A    -11.263419     6A    -11.260386
       7A    -11.257843     8A    -11.255251     9A    -11.255035
      10A    -11.252741    11A    -11.251058    12A    -11.246685
      13A    -11.246047    14A    -11.240885    15A    -11.235170
      16A    -11.230624    17A     -1.269663    18A     -1.236305
      19A     -1.166050    20A     -1.151424    21A     -1.072274
      22A     -1.034332    23A     -1.026495    24A     -1.016014
      25A     -0.937292    26A     -0.900655    27A     -0.855847
      28A     -0.839671    29A     -0.815338    30A     -0.775392
      31A     -0.727005    32A     -0.702420    33A     -0.683828
      34A     -0.665034    35A     -0.642815    36A     -0.634566
      37A     -0.621753    38A     -0.617082    39A     -0.607568
      40A     -0.598830    41A     -0.592769    42A     -0.555069
      43A     -0.541837    44A     -0.534193    45A     -0.526222
      46A     -0.520289    47A     -0.516146    48A     -0.507217
      49A     -0.483121    50A     -0.447275    51A     -0.431536
      52A     -0.406442    53A     -0.353641    54A     -0.345772
      55A     -0.339479    56A     -0.296201

  @DF-RHF Final Energy:  -667.19634815425752

   => Energetics <=

    Nuclear Repulsion Energy =           1002.8891152121996129
    One-Electron Energy =               -2896.7624793258146383
    Two-Electron Energy =                1226.6770159593575045
    Total Energy =                       -667.1963481542575209
  Basis Set: (AUG-CC-PVTZ AUX)
    Blend: AUG-CC-PVTZ-RI
    Molecular point group: c1

    Geometry (in Angstrom), charge = 0, multiplicity = 1:

       Center              X                  Y                   Z               Mass
    ------------   -----------------  -----------------  -----------------  -----------------
         O           -0.037718636719    -2.007458481092    -0.451905064661    15.994914619570
         N            2.484598363281    -1.481637481092     0.409157935339    14.003074004430
         C            0.837200363281     0.203798518908    -0.210765064661    12.000000000000
         C            2.179770363281    -0.181098481092     0.085032935339    12.000000000000
         C           -0.286149236719    -0.602060181092    -0.224835764661    12.000000000000
         C           -1.664369636719    -0.351683481092    -0.053670064661    12.000000000000
         C            0.561580363281     1.539177518908    -0.557573064661    12.000000000000
         C            3.163676363281     0.829437518908     0.123302935339    12.000000000000
         C            1.554942363281     2.510733518908    -0.556139064661    12.000000000000
         C            2.857564363281     2.144833518908    -0.206958064661    12.000000000000
         C           -2.006429636719     0.633650518908     0.884774935339    12.000000000000
         C           -2.674150636719    -1.022906481092    -0.757680064661    12.000000000000
         C           -3.348344636719     0.948841518908     1.102825935339    12.000000000000
         C           -4.010502636719    -0.686937481092    -0.552459064661    12.000000000000
         C            3.854803363281    -1.930901481092     0.537117935339    12.000000000000
         C           -4.350687636719     0.298986518908     0.378881935339    12.000000000000
         H           -0.452211636719     1.806896518908    -0.841732064661     1.007825032230
         H            4.188934363281     0.572421518908     0.369452935339     1.007825032230
         H            1.807330363281    -2.152820481092     0.062156935339     1.007825032230
         H            1.323101363281     3.533924518908    -0.838449064661     1.007825032230
         H            3.647652363281     2.892806518908    -0.187282064661     1.007825032230
         H           -1.226944636719     1.130610518908     1.456509935339     1.007825032230
         H           -2.393340636719    -1.805034481092    -1.458332064661     1.007825032230
         H           -3.612223636719     1.702656518908     1.840844935339     1.007825032230
         H           -4.789928636719    -1.198261481092    -1.112410064661     1.007825032230
         H            4.460415363281    -1.724972481092    -0.357070064661     1.007825032230
         H            3.840918363281    -3.008637481092     0.707790935339     1.007825032230
         H            4.340404363281    -1.460863481092     1.398015935339     1.007825032230
         H           -5.394569636719     0.554820518908     0.544545935339     1.007825032230

  Basis Set: AUG-CC-PVTZ
    Blend: AUG-CC-PVTZ
  Basis Set: (AUG-CC-PVTZ AUX)
    Blend: AUG-CC-PVTZ-JKFIT
	 Reference Energy          =    -667.1963481542575209 [Eh]
	 Singles Energy            =      -0.0000000000000000 [Eh]
	 Same-Spin Energy          =      -0.7419829000876823 [Eh]
	 Opposite-Spin Energy      =      -2.2792433137525463 [Eh]
	 Correlation Energy        =      -3.0212262138402286 [Eh]
	 Total Energy              =    -670.2175743680977575 [Eh]

	 ================> DF-SCS-MP2 Energies <==================
	-----------------------------------------------------------
	 SCS Same-Spin Scale       =       0.3333333333333333 [-]
	 SCS Opposite-Spin Scale   =       1.2000000000000000 [-]
	 SCS Same-Spin Energy      =      -0.2473276333625608 [Eh]
	 SCS Opposite-Spin Energy  =      -2.7350919765030555 [Eh]
	 SCS Correlation Energy    =      -2.9824196098656164 [Eh]
	 SCS Total Energy          =    -670.1787677641231085 [Eh]
	-----------------------------------------------------------

  Dipole Moment: [D]
     X:     0.5843      Y:     1.9325      Z:     0.4967     Total:     2.0791

*** Psi4 exiting successfully. Buy a developer a beer!
