                               Psi4 1.3.2 release

  ==> Input File <==

--------------------------------------------------------------------------
#psi4
#
memory 32 gb

molecule  {
0 1
  O       -0.0649480    -2.0007500    -0.4572220
  N        2.4494904    -1.4986859     0.4072905
  C        0.8099710     0.2105070    -0.2160820
  C        2.1525410    -0.1743900     0.0797160
  C       -0.2789970    -0.7898520    -0.2615780
  C       -1.6915990    -0.3449750    -0.0589870
  C        0.5343510     1.5458860    -0.5628900
  C        3.1364470     0.8361460     0.1179860
  C        1.5277130     2.5174420    -0.5614560
  C        2.8303350     2.1515420    -0.2122750
  C       -2.0336590     0.6403590     0.8794580
  C       -2.7013800    -1.0161980    -0.7629970
  C       -3.3755740     0.9555500     1.0975090
  C       -4.0377320    -0.6802290    -0.5577760
  C        3.8275740    -1.9241930     0.5318010
  C       -4.3779170     0.3056950     0.3735650
  H       -0.4794410     1.8136050    -0.8470490
  H        4.1617050     0.5791300     0.3641360
  H        1.7801010    -2.1461120     0.0568400
  H        1.2958720     3.5406330    -0.8437660
  H        3.6204230     2.8995150    -0.1925990
  H       -1.2541740     1.1373190     1.4511930
  H       -2.4205700    -1.7983260    -1.4636490
  H       -3.6394530     1.7093650     1.8355280
  H       -4.8171580    -1.1915530    -1.1177270
  H        4.4331860    -1.7182640    -0.3623870
  H        3.8136890    -3.0019290     0.7024740
  H        4.3131750    -1.4541550     1.3926990
  H       -5.4217990     0.5615290     0.5392290
units angstrom
no_reorient  #important for SAPT in psi4, default
symmetry c1  #important for SAPT in psi4, default
}

set PROPERTIES_ORIGIN ["COM"]
properties('MP2/aug-cc-pvtz', properties = ['dipole'])
--------------------------------------------------------------------------

    Molecular point group: c1
  Charge       = 0
  Multiplicity = 1
  Basis Set: AUG-CC-PVTZ
    Blend: AUG-CC-PVTZ
  Basis Set: (AUG-CC-PVTZ AUX)
    Blend: AUG-CC-PVTZ-JKFIT

    Orbital Energies [Eh]
    ---------------------

    Doubly Occupied:

       1A    -20.540146     2A    -15.559616     3A    -11.340528
       4A    -11.298208     5A    -11.255610     6A    -11.253405
       7A    -11.253156     8A    -11.251681     9A    -11.250458
      10A    -11.249615    11A    -11.247269    12A    -11.245198
      13A    -11.243761    14A    -11.239995    15A    -11.230695
      16A    -11.227634    17A     -1.372750    18A     -1.239140
      19A     -1.163815    20A     -1.143038    21A     -1.056666
      22A     -1.025809    23A     -1.020946    24A     -1.010305
      25A     -0.927894    26A     -0.889656    27A     -0.845051
      28A     -0.834698    29A     -0.809294    30A     -0.771376
      31A     -0.718290    32A     -0.701215    33A     -0.683745
      34A     -0.655018    35A     -0.645287    36A     -0.633443
      37A     -0.619488    38A     -0.613799    39A     -0.608177
      40A     -0.601304    41A     -0.596332    42A     -0.579219
      43A     -0.545099    44A     -0.541143    45A     -0.530187
      46A     -0.520718    47A     -0.512792    48A     -0.504452
      49A     -0.501499    50A     -0.486365    51A     -0.427206
      52A     -0.419905    53A     -0.350950    54A     -0.345372
      55A     -0.343495    56A     -0.294698

  @DF-RHF Final Energy:  -667.26216936759272

   => Energetics <=

    Nuclear Repulsion Energy =           1002.1327902040022764
    One-Electron Energy =               -2895.2367012222616722
    Two-Electron Energy =                1225.8417416506667905
    Total Energy =                       -667.2621693675926053
  Basis Set: (AUG-CC-PVTZ AUX)
    Blend: AUG-CC-PVTZ-RI
    Molecular point group: c1

    Geometry (in Angstrom), charge = 0, multiplicity = 1:

       Center              X                  Y                   Z               Mass
    ------------   -----------------  -----------------  -----------------  -----------------
         O           -0.039150446243    -1.994826189092    -0.450347506908    15.994914619570
         N            2.475287953757    -1.492762089092     0.414164993092    14.003074004430
         C            0.835768553757     0.216430810908    -0.209207506908    12.000000000000
         C            2.178338553757    -0.168466189092     0.086590493092    12.000000000000
         C           -0.253199446243    -0.783928189092    -0.254703506908    12.000000000000
         C           -1.665801446243    -0.339051189092    -0.052112506908    12.000000000000
         C            0.560148553757     1.551809810908    -0.556015506908    12.000000000000
         C            3.162244553757     0.842069810908     0.124860493092    12.000000000000
         C            1.553510553757     2.523365810908    -0.554581506908    12.000000000000
         C            2.856132553757     2.157465810908    -0.205400506908    12.000000000000
         C           -2.007861446243     0.646282810908     0.886332493092    12.000000000000
         C           -2.675582446243    -1.010274189092    -0.756122506908    12.000000000000
         C           -3.349776446243     0.961473810908     1.104383493092    12.000000000000
         C           -4.011934446243    -0.674305189092    -0.550901506908    12.000000000000
         C            3.853371553757    -1.918269189092     0.538675493092    12.000000000000
         C           -4.352119446243     0.311618810908     0.380439493092    12.000000000000
         H           -0.453643446243     1.819528810908    -0.840174506908     1.007825032230
         H            4.187502553757     0.585053810908     0.371010493092     1.007825032230
         H            1.805898553757    -2.140188189092     0.063714493092     1.007825032230
         H            1.321669553757     3.546556810908    -0.836891506908     1.007825032230
         H            3.646220553757     2.905438810908    -0.185724506908     1.007825032230
         H           -1.228376446243     1.143242810908     1.458067493092     1.007825032230
         H           -2.394772446243    -1.792402189092    -1.456774506908     1.007825032230
         H           -3.613655446243     1.715288810908     1.842402493092     1.007825032230
         H           -4.791360446243    -1.185629189092    -1.110852506908     1.007825032230
         H            4.458983553757    -1.712340189092    -0.355512506908     1.007825032230
         H            3.839486553757    -2.996005189092     0.709348493092     1.007825032230
         H            4.338972553757    -1.448231189092     1.399573493092     1.007825032230
         H           -5.396001446243     0.567452810908     0.546103493092     1.007825032230

  Basis Set: AUG-CC-PVTZ
    Blend: AUG-CC-PVTZ
  Basis Set: (AUG-CC-PVTZ AUX)
    Blend: AUG-CC-PVTZ-JKFIT
	 Reference Energy          =    -667.2621693675927190 [Eh]
	 Singles Energy            =      -0.0000000000000000 [Eh]
	 Same-Spin Energy          =      -0.7344358015784118 [Eh]
	 Opposite-Spin Energy      =      -2.2652087262015850 [Eh]
	 Correlation Energy        =      -2.9996445277799966 [Eh]
	 Total Energy              =    -670.2618138953727112 [Eh]

	 ================> DF-SCS-MP2 Energies <==================
	-----------------------------------------------------------
	 SCS Same-Spin Scale       =       0.3333333333333333 [-]
	 SCS Opposite-Spin Scale   =       1.2000000000000000 [-]
	 SCS Same-Spin Energy      =      -0.2448119338594706 [Eh]
	 SCS Opposite-Spin Energy  =      -2.7182504714419018 [Eh]
	 SCS Correlation Energy    =      -2.9630624053013723 [Eh]
	 SCS Total Energy          =    -670.2252317728940625 [Eh]
	-----------------------------------------------------------

  Dipole Moment: [D]
     X:     0.2620      Y:     1.3456      Z:     0.3023     Total:     1.4038

*** Psi4 exiting successfully. Buy a developer a beer!
