                               Psi4 1.3.2 release

  ==> Input File <==

--------------------------------------------------------------------------
#psi4
#
memory 32 gb

molecule  {
0 1
  O       -0.0649480    -2.0007500    -0.4572220
  N        2.4573690    -1.4749290     0.4038410
  C        0.8099710     0.2105070    -0.2160820
  C        2.1994995    -0.1647144     0.0779270
  C       -0.2789970    -0.7898520    -0.2615780
  C       -1.6915990    -0.3449750    -0.0589870
  C        0.5343510     1.5458860    -0.5628900
  C        3.1364470     0.8361460     0.1179860
  C        1.5277130     2.5174420    -0.5614560
  C        2.8303350     2.1515420    -0.2122750
  C       -2.0336590     0.6403590     0.8794580
  C       -2.7013800    -1.0161980    -0.7629970
  C       -3.3755740     0.9555500     1.0975090
  C       -4.0377320    -0.6802290    -0.5577760
  C        3.8275740    -1.9241930     0.5318010
  C       -4.3779170     0.3056950     0.3735650
  H       -0.4794410     1.8136050    -0.8470490
  H        4.1617050     0.5791300     0.3641360
  H        1.7801010    -2.1461120     0.0568400
  H        1.2958720     3.5406330    -0.8437660
  H        3.6204230     2.8995150    -0.1925990
  H       -1.2541740     1.1373190     1.4511930
  H       -2.4205700    -1.7983260    -1.4636490
  H       -3.6394530     1.7093650     1.8355280
  H       -4.8171580    -1.1915530    -1.1177270
  H        4.4331860    -1.7182640    -0.3623870
  H        3.8136890    -3.0019290     0.7024740
  H        4.3131750    -1.4541550     1.3926990
  H       -5.4217990     0.5615290     0.5392290
units angstrom
no_reorient  #important for SAPT in psi4, default
symmetry c1  #important for SAPT in psi4, default
}

set PROPERTIES_ORIGIN ["COM"]
properties('MP2/aug-cc-pvtz', properties = ['dipole'])
--------------------------------------------------------------------------

    Molecular point group: c1
  Charge       = 0
  Multiplicity = 1
  Basis Set: AUG-CC-PVTZ
    Blend: AUG-CC-PVTZ
  Basis Set: (AUG-CC-PVTZ AUX)
    Blend: AUG-CC-PVTZ-JKFIT

    Orbital Energies [Eh]
    ---------------------

    Doubly Occupied:

       1A    -20.539255     2A    -15.561416     3A    -11.340317
       4A    -11.296095     5A    -11.255379     6A    -11.254651
       7A    -11.253515     8A    -11.251297     9A    -11.250172
      10A    -11.249406    11A    -11.246980    12A    -11.244880
      13A    -11.243500    14A    -11.242231    15A    -11.226402
      16A    -11.224430    17A     -1.371937    18A     -1.244456
      19A     -1.163411    20A     -1.142237    21A     -1.056204
      22A     -1.025383    23A     -1.019847    24A     -1.011936
      25A     -0.928531    26A     -0.890575    27A     -0.845826
      28A     -0.833835    29A     -0.804955    30A     -0.770931
      31A     -0.718128    32A     -0.704199    33A     -0.682463
      34A     -0.656428    35A     -0.644753    36A     -0.633904
      37A     -0.621423    38A     -0.613853    39A     -0.608122
      40A     -0.600227    41A     -0.595991    42A     -0.576729
      43A     -0.544615    44A     -0.541915    45A     -0.532992
      46A     -0.520740    47A     -0.512741    48A     -0.501424
      49A     -0.499104    50A     -0.486291    51A     -0.429549
      52A     -0.419506    53A     -0.350928    54A     -0.344964
      55A     -0.343277    56A     -0.292716

  @DF-RHF Final Energy:  -667.25999112441104

   => Energetics <=

    Nuclear Repulsion Energy =           1002.1524250394489854
    One-Electron Energy =               -2895.2908887297639922
    Two-Electron Energy =                1225.8784725659038486
    Total Energy =                       -667.2599911244110444
  Basis Set: (AUG-CC-PVTZ AUX)
    Blend: AUG-CC-PVTZ-RI
    Molecular point group: c1

    Geometry (in Angstrom), charge = 0, multiplicity = 1:

       Center              X                  Y                   Z               Mass
    ------------   -----------------  -----------------  -----------------  -----------------
         O           -0.042342428866    -1.996952088840    -0.450016991994    15.994914619570
         N            2.479974571134    -1.471131088840     0.411046008006    14.003074004430
         C            0.832576571134     0.214304911160    -0.208876991994    12.000000000000
         C            2.222105071134    -0.160916488840     0.085132008006    12.000000000000
         C           -0.256391428866    -0.786054088840    -0.254372991994    12.000000000000
         C           -1.668993428866    -0.341177088840    -0.051781991994    12.000000000000
         C            0.556956571134     1.549683911160    -0.555684991994    12.000000000000
         C            3.159052571134     0.839943911160     0.125191008006    12.000000000000
         C            1.550318571134     2.521239911160    -0.554250991994    12.000000000000
         C            2.852940571134     2.155339911160    -0.205069991994    12.000000000000
         C           -2.011053428866     0.644156911160     0.886663008006    12.000000000000
         C           -2.678774428866    -1.012400088840    -0.755791991994    12.000000000000
         C           -3.352968428866     0.959347911160     1.104714008006    12.000000000000
         C           -4.015126428866    -0.676431088840    -0.550570991994    12.000000000000
         C            3.850179571134    -1.920395088840     0.539006008006    12.000000000000
         C           -4.355311428866     0.309492911160     0.380770008006    12.000000000000
         H           -0.456835428866     1.817402911160    -0.839843991994     1.007825032230
         H            4.184310571134     0.582927911160     0.371341008006     1.007825032230
         H            1.802706571134    -2.142314088840     0.064045008006     1.007825032230
         H            1.318477571134     3.544430911160    -0.836560991994     1.007825032230
         H            3.643028571134     2.903312911160    -0.185393991994     1.007825032230
         H           -1.231568428866     1.141116911160     1.458398008006     1.007825032230
         H           -2.397964428866    -1.794528088840    -1.456443991994     1.007825032230
         H           -3.616847428866     1.713162911160     1.842733008006     1.007825032230
         H           -4.794552428866    -1.187755088840    -1.110521991994     1.007825032230
         H            4.455791571134    -1.714466088840    -0.355181991994     1.007825032230
         H            3.836294571134    -2.998131088840     0.709679008006     1.007825032230
         H            4.335780571134    -1.450357088840     1.399904008006     1.007825032230
         H           -5.399193428866     0.565326911160     0.546434008006     1.007825032230

  Basis Set: AUG-CC-PVTZ
    Blend: AUG-CC-PVTZ
  Basis Set: (AUG-CC-PVTZ AUX)
    Blend: AUG-CC-PVTZ-JKFIT
	 Reference Energy          =    -667.2599911244110444 [Eh]
	 Singles Energy            =      -0.0000000000000000 [Eh]
	 Same-Spin Energy          =      -0.7346605489369857 [Eh]
	 Opposite-Spin Energy      =      -2.2653589186245520 [Eh]
	 Correlation Energy        =      -3.0000194675615379 [Eh]
	 Total Energy              =    -670.2600105919725593 [Eh]

	 ================> DF-SCS-MP2 Energies <==================
	-----------------------------------------------------------
	 SCS Same-Spin Scale       =       0.3333333333333333 [-]
	 SCS Opposite-Spin Scale   =       1.2000000000000000 [-]
	 SCS Same-Spin Energy      =      -0.2448868496456619 [Eh]
	 SCS Opposite-Spin Energy  =      -2.7184307023494623 [Eh]
	 SCS Correlation Energy    =      -2.9633175519951243 [Eh]
	 SCS Total Energy          =    -670.2233086764061909 [Eh]
	-----------------------------------------------------------

  Dipole Moment: [D]
     X:     0.2885      Y:     1.2532      Z:     0.3310     Total:     1.3279

*** Psi4 exiting successfully. Buy a developer a beer!
