                               Psi4 1.3.2 release

  ==> Input File <==

--------------------------------------------------------------------------
#psi4
#
memory 32 gb

molecule  {
0 1
  O       -0.0649480    -2.0007500    -0.4572220
  N        2.4573690    -1.4749290     0.4038410
  C        0.7747028     0.2471619    -0.2071885
  C        2.1525410    -0.1743900     0.0797160
  C       -0.2789970    -0.7898520    -0.2615780
  C       -1.6915990    -0.3449750    -0.0589870
  C        0.5343510     1.5458860    -0.5628900
  C        3.1364470     0.8361460     0.1179860
  C        1.5277130     2.5174420    -0.5614560
  C        2.8303350     2.1515420    -0.2122750
  C       -2.0336590     0.6403590     0.8794580
  C       -2.7013800    -1.0161980    -0.7629970
  C       -3.3755740     0.9555500     1.0975090
  C       -4.0377320    -0.6802290    -0.5577760
  C        3.8275740    -1.9241930     0.5318010
  C       -4.3779170     0.3056950     0.3735650
  H       -0.4794410     1.8136050    -0.8470490
  H        4.1617050     0.5791300     0.3641360
  H        1.7801010    -2.1461120     0.0568400
  H        1.2958720     3.5406330    -0.8437660
  H        3.6204230     2.8995150    -0.1925990
  H       -1.2541740     1.1373190     1.4511930
  H       -2.4205700    -1.7983260    -1.4636490
  H       -3.6394530     1.7093650     1.8355280
  H       -4.8171580    -1.1915530    -1.1177270
  H        4.4331860    -1.7182640    -0.3623870
  H        3.8136890    -3.0019290     0.7024740
  H        4.3131750    -1.4541550     1.3926990
  H       -5.4217990     0.5615290     0.5392290
units angstrom
no_reorient  #important for SAPT in psi4, default
symmetry c1  #important for SAPT in psi4, default
}

set PROPERTIES_ORIGIN ["COM"]
properties('MP2/aug-cc-pvtz', properties = ['dipole'])
--------------------------------------------------------------------------

    Molecular point group: c1
  Charge       = 0
  Multiplicity = 1
  Basis Set: AUG-CC-PVTZ
    Blend: AUG-CC-PVTZ
  Basis Set: (AUG-CC-PVTZ AUX)
    Blend: AUG-CC-PVTZ-JKFIT

    Orbital Energies [Eh]
    ---------------------

    Doubly Occupied:

       1A    -20.541660     2A    -15.564603     3A    -11.341152
       4A    -11.301318     5A    -11.258139     6A    -11.252616
       7A    -11.250953     8A    -11.249912     9A    -11.249454
      10A    -11.248151    11A    -11.246434    12A    -11.244672
      13A    -11.243216    14A    -11.239749    15A    -11.226953
      16A    -11.224419    17A     -1.373293    18A     -1.244278
      19A     -1.163662    20A     -1.144020    21A     -1.058070
      22A     -1.025489    23A     -1.020893    24A     -1.007931
      25A     -0.930746    26A     -0.889706    27A     -0.844064
      28A     -0.833093    29A     -0.807913    30A     -0.771058
      31A     -0.717152    32A     -0.704128    33A     -0.683981
      34A     -0.654709    35A     -0.644554    36A     -0.633246
      37A     -0.618311    38A     -0.615236    39A     -0.608148
      40A     -0.603063    41A     -0.596069    42A     -0.579533
      43A     -0.545225    44A     -0.542047    45A     -0.532305
      46A     -0.520508    47A     -0.512565    48A     -0.501280
      49A     -0.500852    50A     -0.486820    51A     -0.430608
      52A     -0.418593    53A     -0.354592    54A     -0.345351
      55A     -0.343306    56A     -0.288989

  @DF-RHF Final Energy:  -667.25983334873592

   => Energetics <=

    Nuclear Repulsion Energy =           1002.4761242312273453
    One-Electron Energy =               -2895.9143437522070599
    Two-Electron Energy =                1226.1783861722435631
    Total Energy =                       -667.2598333487360378
  Basis Set: (AUG-CC-PVTZ AUX)
    Blend: AUG-CC-PVTZ-RI
    Molecular point group: c1

    Geometry (in Angstrom), charge = 0, multiplicity = 1:

       Center              X                  Y                   Z               Mass
    ------------   -----------------  -----------------  -----------------  -----------------
         O           -0.037668237787    -1.998485731846    -0.450624240567    15.994914619570
         N            2.484648762213    -1.472664731846     0.410438759433    14.003074004430
         C            0.801982562213     0.249426168154    -0.200590740567    12.000000000000
         C            2.179820762213    -0.172125731846     0.086313759433    12.000000000000
         C           -0.251717237787    -0.787587731846    -0.254980240567    12.000000000000
         C           -1.664319237787    -0.342710731846    -0.052389240567    12.000000000000
         C            0.561630762213     1.548150268154    -0.556292240567    12.000000000000
         C            3.163726762213     0.838410268154     0.124583759433    12.000000000000
         C            1.554992762213     2.519706268154    -0.554858240567    12.000000000000
         C            2.857614762213     2.153806268154    -0.205677240567    12.000000000000
         C           -2.006379237787     0.642623268154     0.886055759433    12.000000000000
         C           -2.674100237787    -1.013933731846    -0.756399240567    12.000000000000
         C           -3.348294237787     0.957814268154     1.104106759433    12.000000000000
         C           -4.010452237787    -0.677964731846    -0.551178240567    12.000000000000
         C            3.854853762213    -1.921928731846     0.538398759433    12.000000000000
         C           -4.350637237787     0.307959268154     0.380162759433    12.000000000000
         H           -0.452161237787     1.815869268154    -0.840451240567     1.007825032230
         H            4.188984762213     0.581394268154     0.370733759433     1.007825032230
         H            1.807380762213    -2.143847731846     0.063437759433     1.007825032230
         H            1.323151762213     3.542897268154    -0.837168240567     1.007825032230
         H            3.647702762213     2.901779268154    -0.186001240567     1.007825032230
         H           -1.226894237787     1.139583268154     1.457790759433     1.007825032230
         H           -2.393290237787    -1.796061731846    -1.457051240567     1.007825032230
         H           -3.612173237787     1.711629268154     1.842125759433     1.007825032230
         H           -4.789878237787    -1.189288731846    -1.111129240567     1.007825032230
         H            4.460465762213    -1.715999731846    -0.355789240567     1.007825032230
         H            3.840968762213    -2.999664731846     0.709071759433     1.007825032230
         H            4.340454762213    -1.451890731846     1.399296759433     1.007825032230
         H           -5.394519237787     0.563793268154     0.545826759433     1.007825032230

  Basis Set: AUG-CC-PVTZ
    Blend: AUG-CC-PVTZ
  Basis Set: (AUG-CC-PVTZ AUX)
    Blend: AUG-CC-PVTZ-JKFIT
	 Reference Energy          =    -667.2598333487359241 [Eh]
	 Singles Energy            =      -0.0000000000000000 [Eh]
	 Same-Spin Energy          =      -0.7346762432272720 [Eh]
	 Opposite-Spin Energy      =      -2.2653207880899977 [Eh]
	 Correlation Energy        =      -2.9999970313172697 [Eh]
	 Total Energy              =    -670.2598303800532449 [Eh]

	 ================> DF-SCS-MP2 Energies <==================
	-----------------------------------------------------------
	 SCS Same-Spin Scale       =       0.3333333333333333 [-]
	 SCS Opposite-Spin Scale   =       1.2000000000000000 [-]
	 SCS Same-Spin Energy      =      -0.2448920810757573 [Eh]
	 SCS Opposite-Spin Energy  =      -2.7183849457079972 [Eh]
	 SCS Correlation Energy    =      -2.9632770267837545 [Eh]
	 SCS Total Energy          =    -670.2231103755196955 [Eh]
	-----------------------------------------------------------

  Dipole Moment: [D]
     X:     0.3535      Y:     1.1241      Z:     0.3502     Total:     1.2293

*** Psi4 exiting successfully. Buy a developer a beer!
