                               Psi4 1.4a2.dev612

  ==> Input File <==

--------------------------------------------------------------------------
#psi4
#
memory 32 gb

molecule  {
0 1
  O       -0.0649480    -2.0007500    -0.4572220
  N        2.4573690    -1.4749290     0.4038410
  C        0.8099710     0.2105070    -0.2160820
  C        2.1525410    -0.1743900     0.0797160
  C       -0.2640398    -0.7560815    -0.2247255
  C       -1.6915990    -0.3449750    -0.0589870
  C        0.5343510     1.5458860    -0.5628900
  C        3.1364470     0.8361460     0.1179860
  C        1.5277130     2.5174420    -0.5614560
  C        2.8303350     2.1515420    -0.2122750
  C       -2.0336590     0.6403590     0.8794580
  C       -2.7013800    -1.0161980    -0.7629970
  C       -3.3755740     0.9555500     1.0975090
  C       -4.0377320    -0.6802290    -0.5577760
  C        3.8275740    -1.9241930     0.5318010
  C       -4.3779170     0.3056950     0.3735650
  H       -0.4794410     1.8136050    -0.8470490
  H        4.1617050     0.5791300     0.3641360
  H        1.7801010    -2.1461120     0.0568400
  H        1.2958720     3.5406330    -0.8437660
  H        3.6204230     2.8995150    -0.1925990
  H       -1.2541740     1.1373190     1.4511930
  H       -2.4205700    -1.7983260    -1.4636490
  H       -3.6394530     1.7093650     1.8355280
  H       -4.8171580    -1.1915530    -1.1177270
  H        4.4331860    -1.7182640    -0.3623870
  H        3.8136890    -3.0019290     0.7024740
  H        4.3131750    -1.4541550     1.3926990
  H       -5.4217990     0.5615290     0.5392290
units angstrom
no_reorient  #important for SAPT in psi4, default
symmetry c1  #important for SAPT in psi4, default
}

set PROPERTIES_ORIGIN ["COM"]
properties('MP2/aug-cc-pvtz', properties = ['dipole'])
--------------------------------------------------------------------------

    Molecular point group: c1
  Charge       = 0
  Multiplicity = 1
  Basis Set: AUG-CC-PVTZ
    Blend: AUG-CC-PVTZ
  Basis Set: (AUG-CC-PVTZ AUX)
    Blend: AUG-CC-PVTZ-JKFIT

    Orbital Energies [Eh]
    ---------------------

    Doubly Occupied:

       1A    -20.533464     2A    -15.563166     3A    -11.340032
       4A    -11.300285     5A    -11.257785     6A    -11.255748
       7A    -11.255471     8A    -11.250815     9A    -11.249990
      10A    -11.249635    11A    -11.247103    12A    -11.244336
      13A    -11.243356    14A    -11.238710    15A    -11.230726
      16A    -11.227733    17A     -1.347850    18A     -1.245301
      19A     -1.163223    20A     -1.144838    21A     -1.059559
      22A     -1.025280    23A     -1.022101    24A     -1.012055
      25A     -0.931589    26A     -0.891834    27A     -0.845754
      28A     -0.835138    29A     -0.809515    30A     -0.772290
      31A     -0.718699    32A     -0.702466    33A     -0.683171
      34A     -0.656377    35A     -0.641530    36A     -0.633304
      37A     -0.619768    38A     -0.616112    39A     -0.605391
      40A     -0.599952    41A     -0.595512    42A     -0.576265
      43A     -0.543737    44A     -0.540522    45A     -0.530240
      46A     -0.519772    47A     -0.512606    48A     -0.504332
      49A     -0.500180    50A     -0.479220    51A     -0.430605
      52A     -0.419933    53A     -0.351792    54A     -0.344557
      55A     -0.342716    56A     -0.293906

  @DF-RHF Final Energy:  -667.25613999948018

   => Energetics <=

    Nuclear Repulsion Energy =           1002.6094033015328932
    One-Electron Energy =               -2896.2163936193410336
    Two-Electron Energy =                1226.3508503183279572
    Total Energy =                       -667.2561399994801832
  Basis Set: (AUG-CC-PVTZ AUX)
    Blend: AUG-CC-PVTZ-RI
    Molecular point group: c1

    Geometry (in Angstrom), charge = 0, multiplicity = 1:

       Center              X                  Y                   Z               Mass
    ------------   -----------------  -----------------  -----------------  -----------------
         O           -0.040523309395    -1.998321767626    -0.452213574790    15.994914619570
         N            2.481793690605    -1.472500767626     0.408849425210    14.003074004430
         C            0.834395690605     0.212935232374    -0.211073574790    12.000000000000
         C            2.176965690605    -0.171961767626     0.084724425210    12.000000000000
         C           -0.239615109395    -0.753653267626    -0.219717074790    12.000000000000
         C           -1.667174309395    -0.342546767626    -0.053978574790    12.000000000000
         C            0.558775690605     1.548314232374    -0.557881574790    12.000000000000
         C            3.160871690605     0.838574232374     0.122994425210    12.000000000000
         C            1.552137690605     2.519870232374    -0.556447574790    12.000000000000
         C            2.854759690605     2.153970232374    -0.207266574790    12.000000000000
         C           -2.009234309395     0.642787232374     0.884466425210    12.000000000000
         C           -2.676955309395    -1.013769767626    -0.757988574790    12.000000000000
         C           -3.351149309395     0.957978232374     1.102517425210    12.000000000000
         C           -4.013307309395    -0.677800767626    -0.552767574790    12.000000000000
         C            3.851998690605    -1.921764767626     0.536809425210    12.000000000000
         C           -4.353492309395     0.308123232374     0.378573425210    12.000000000000
         H           -0.455016309395     1.816033232374    -0.842040574790     1.007825032230
         H            4.186129690605     0.581558232374     0.369144425210     1.007825032230
         H            1.804525690605    -2.143683767626     0.061848425210     1.007825032230
         H            1.320296690605     3.543061232374    -0.838757574790     1.007825032230
         H            3.644847690605     2.901943232374    -0.187590574790     1.007825032230
         H           -1.229749309395     1.139747232374     1.456201425210     1.007825032230
         H           -2.396145309395    -1.795897767626    -1.458640574790     1.007825032230
         H           -3.615028309395     1.711793232374     1.840536425210     1.007825032230
         H           -4.792733309395    -1.189124767626    -1.112718574790     1.007825032230
         H            4.457610690605    -1.715835767626    -0.357378574790     1.007825032230
         H            3.838113690605    -2.999500767626     0.707482425210     1.007825032230
         H            4.337599690605    -1.451726767626     1.397707425210     1.007825032230
         H           -5.397374309395     0.563957232374     0.544237425210     1.007825032230

  Basis Set: AUG-CC-PVTZ
    Blend: AUG-CC-PVTZ
  Basis Set: (AUG-CC-PVTZ AUX)
    Blend: AUG-CC-PVTZ-JKFIT
	 Reference Energy          =    -667.2561399994801832 [Eh]
	 Singles Energy            =      -0.0000000000000000 [Eh]
	 Same-Spin Energy          =      -0.7358304081774373 [Eh]
	 Opposite-Spin Energy      =      -2.2676531712839312 [Eh]
	 Correlation Energy        =      -3.0034835794613683 [Eh]
	 Total Energy              =    -670.2596235789415005 [Eh]

	 ================> DF-SCS-MP2 Energies <==================
	-----------------------------------------------------------
	 SCS Same-Spin Scale       =       0.3333333333333333 [-]
	 SCS Opposite-Spin Scale   =       1.2000000000000000 [-]
	 SCS Same-Spin Energy      =      -0.2452768027258124 [Eh]
	 SCS Opposite-Spin Energy  =      -2.7211838055407171 [Eh]
	 SCS Correlation Energy    =      -2.9664606082665297 [Eh]
	 SCS Total Energy          =    -670.2226006077466991 [Eh]
	-----------------------------------------------------------

  Dipole Moment: [D]
     X:     0.5115      Y:     1.3890      Z:     0.3828     Total:     1.5289

*** Psi4 exiting successfully. Buy a developer a beer!
