                               Psi4 1.3.2 release

  ==> Input File <==

--------------------------------------------------------------------------
#psi4
#
memory 32 gb

molecule  {
0 1
  O       -0.0649480    -2.0007500    -0.4572220
  N        2.4573690    -1.4749290     0.4038410
  C        0.8099710     0.2105070    -0.2160820
  C        2.3406243    -0.2283110     0.1211549
  C       -0.2789970    -0.7898520    -0.2615780
  C       -1.6915990    -0.3449750    -0.0589870
  C        0.5343510     1.5458860    -0.5628900
  C        3.1364470     0.8361460     0.1179860
  C        1.5277130     2.5174420    -0.5614560
  C        2.8303350     2.1515420    -0.2122750
  C       -2.0336590     0.6403590     0.8794580
  C       -2.7013800    -1.0161980    -0.7629970
  C       -3.3755740     0.9555500     1.0975090
  C       -4.0377320    -0.6802290    -0.5577760
  C        3.8275740    -1.9241930     0.5318010
  C       -4.3779170     0.3056950     0.3735650
  H       -0.4794410     1.8136050    -0.8470490
  H        4.1617050     0.5791300     0.3641360
  H        1.7801010    -2.1461120     0.0568400
  H        1.2958720     3.5406330    -0.8437660
  H        3.6204230     2.8995150    -0.1925990
  H       -1.2541740     1.1373190     1.4511930
  H       -2.4205700    -1.7983260    -1.4636490
  H       -3.6394530     1.7093650     1.8355280
  H       -4.8171580    -1.1915530    -1.1177270
  H        4.4331860    -1.7182640    -0.3623870
  H        3.8136890    -3.0019290     0.7024740
  H        4.3131750    -1.4541550     1.3926990
  H       -5.4217990     0.5615290     0.5392290
units angstrom
no_reorient  #important for SAPT in psi4, default
symmetry c1  #important for SAPT in psi4, default
}

set PROPERTIES_ORIGIN ["COM"]
properties('MP2/aug-cc-pvtz', properties = ['dipole'])
--------------------------------------------------------------------------

    Molecular point group: c1
  Charge       = 0
  Multiplicity = 1
  Basis Set: AUG-CC-PVTZ
    Blend: AUG-CC-PVTZ
  Basis Set: (AUG-CC-PVTZ AUX)
    Blend: AUG-CC-PVTZ-JKFIT

    Orbital Energies [Eh]
    ---------------------

    Doubly Occupied:

       1A    -20.535595     2A    -15.574533     3A    -11.336712
       4A    -11.300619     5A    -11.261067     6A    -11.256776
       7A    -11.252587     8A    -11.248934     9A    -11.248307
      10A    -11.247107    11A    -11.245262    12A    -11.244918
      13A    -11.242992    14A    -11.241759    15A    -11.221862
      16A    -11.214811    17A     -1.369149    18A     -1.283398
      19A     -1.161073    20A     -1.136432    21A     -1.053156
      22A     -1.024367    23A     -1.020574    24A     -1.004172
      25A     -0.942080    26A     -0.892337    27A     -0.846108
      28A     -0.830759    29A     -0.799884    30A     -0.763148
      31A     -0.733547    32A     -0.710510    33A     -0.681750
      34A     -0.662935    35A     -0.644846    36A     -0.636750
      37A     -0.626407    38A     -0.620406    39A     -0.607119
      40A     -0.594478    41A     -0.592701    42A     -0.572914
      43A     -0.548246    44A     -0.541864    45A     -0.537421
      46A     -0.519065    47A     -0.511857    48A     -0.499338
      49A     -0.490515    50A     -0.466904    51A     -0.444445
      52A     -0.411187    53A     -0.350182    54A     -0.342957
      55A     -0.341654    56A     -0.284051

  @DF-RHF Final Energy:  -667.21960194450253

   => Energetics <=

    Nuclear Repulsion Energy =           1001.1459579790057433
    One-Electron Energy =               -2893.1820693325043976
    Two-Electron Energy =                1224.8165094089961258
    Total Energy =                       -667.2196019445025286
  Basis Set: (AUG-CC-PVTZ AUX)
    Blend: AUG-CC-PVTZ-RI
    Molecular point group: c1

    Geometry (in Angstrom), charge = 0, multiplicity = 1:

       Center              X                  Y                   Z               Mass
    ------------   -----------------  -----------------  -----------------  -----------------
         O           -0.050364692693    -1.993336929040    -0.452474289496    15.994914619570
         N            2.471952307307    -1.467515929040     0.408588710504    14.003074004430
         C            0.824554307307     0.217920070960    -0.211334289496    12.000000000000
         C            2.355207607307    -0.220897929040     0.125902610504    12.000000000000
         C           -0.264413692693    -0.782438929040    -0.256830289496    12.000000000000
         C           -1.677015692693    -0.337561929040    -0.054239289496    12.000000000000
         C            0.548934307307     1.553299070960    -0.558142289496    12.000000000000
         C            3.151030307307     0.843559070960     0.122733710504    12.000000000000
         C            1.542296307307     2.524855070960    -0.556708289496    12.000000000000
         C            2.844918307307     2.158955070960    -0.207527289496    12.000000000000
         C           -2.019075692693     0.647772070960     0.884205710504    12.000000000000
         C           -2.686796692693    -1.008784929040    -0.758249289496    12.000000000000
         C           -3.360990692693     0.962963070960     1.102256710504    12.000000000000
         C           -4.023148692693    -0.672815929040    -0.553028289496    12.000000000000
         C            3.842157307307    -1.916779929040     0.536548710504    12.000000000000
         C           -4.363333692693     0.313108070960     0.378312710504    12.000000000000
         H           -0.464857692693     1.821018070960    -0.842301289496     1.007825032230
         H            4.176288307307     0.586543070960     0.368883710504     1.007825032230
         H            1.794684307307    -2.138698929040     0.061587710504     1.007825032230
         H            1.310455307307     3.548046070960    -0.839018289496     1.007825032230
         H            3.635006307307     2.906928070960    -0.187851289496     1.007825032230
         H           -1.239590692693     1.144732070960     1.455940710504     1.007825032230
         H           -2.405986692693    -1.790912929040    -1.458901289496     1.007825032230
         H           -3.624869692693     1.716778070960     1.840275710504     1.007825032230
         H           -4.802574692693    -1.184139929040    -1.112979289496     1.007825032230
         H            4.447769307307    -1.710850929040    -0.357639289496     1.007825032230
         H            3.828272307307    -2.994515929040     0.707221710504     1.007825032230
         H            4.327758307307    -1.446741929040     1.397446710504     1.007825032230
         H           -5.407215692693     0.568942070960     0.543976710504     1.007825032230

  Basis Set: AUG-CC-PVTZ
    Blend: AUG-CC-PVTZ
  Basis Set: (AUG-CC-PVTZ AUX)
    Blend: AUG-CC-PVTZ-JKFIT
	 Reference Energy          =    -667.2196019445025286 [Eh]
	 Singles Energy            =      -0.0000000000000000 [Eh]
	 Same-Spin Energy          =      -0.7357819839884477 [Eh]
	 Opposite-Spin Energy      =      -2.2677637399806319 [Eh]
	 Correlation Energy        =      -3.0035457239690797 [Eh]
	 Total Energy              =    -670.2231476684715972 [Eh]

	 ================> DF-SCS-MP2 Energies <==================
	-----------------------------------------------------------
	 SCS Same-Spin Scale       =       0.3333333333333333 [-]
	 SCS Opposite-Spin Scale   =       1.2000000000000000 [-]
	 SCS Same-Spin Energy      =      -0.2452606613294826 [Eh]
	 SCS Opposite-Spin Energy  =      -2.7213164879767580 [Eh]
	 SCS Correlation Energy    =      -2.9665771493062407 [Eh]
	 SCS Total Energy          =    -670.1861790938087324 [Eh]
	-----------------------------------------------------------

  Dipole Moment: [D]
     X:     0.5906      Y:     0.7759      Z:     0.4749     Total:     1.0846

*** Psi4 exiting successfully. Buy a developer a beer!
