                               Psi4 1.3.2 release

  ==> Input File <==

--------------------------------------------------------------------------
#psi4
#
memory 32 gb

molecule  {
0 1
  O       -0.0649480    -2.0007500    -0.4572220
  N        2.4573690    -1.4749290     0.4038410
  C        0.8099710     0.2105070    -0.2160820
  C        2.1450472    -0.1980535     0.0818884
  C       -0.2789970    -0.7898520    -0.2615780
  C       -1.6915990    -0.3449750    -0.0589870
  C        0.5343510     1.5458860    -0.5628900
  C        3.1364470     0.8361460     0.1179860
  C        1.5277130     2.5174420    -0.5614560
  C        2.8303350     2.1515420    -0.2122750
  C       -2.0336590     0.6403590     0.8794580
  C       -2.7013800    -1.0161980    -0.7629970
  C       -3.3755740     0.9555500     1.0975090
  C       -4.0377320    -0.6802290    -0.5577760
  C        3.8275740    -1.9241930     0.5318010
  C       -4.3779170     0.3056950     0.3735650
  H       -0.4794410     1.8136050    -0.8470490
  H        4.1617050     0.5791300     0.3641360
  H        1.7801010    -2.1461120     0.0568400
  H        1.2958720     3.5406330    -0.8437660
  H        3.6204230     2.8995150    -0.1925990
  H       -1.2541740     1.1373190     1.4511930
  H       -2.4205700    -1.7983260    -1.4636490
  H       -3.6394530     1.7093650     1.8355280
  H       -4.8171580    -1.1915530    -1.1177270
  H        4.4331860    -1.7182640    -0.3623870
  H        3.8136890    -3.0019290     0.7024740
  H        4.3131750    -1.4541550     1.3926990
  H       -5.4217990     0.5615290     0.5392290
units angstrom
no_reorient  #important for SAPT in psi4, default
symmetry c1  #important for SAPT in psi4, default
}

set PROPERTIES_ORIGIN ["COM"]
properties('MP2/aug-cc-pvtz', properties = ['dipole'])
--------------------------------------------------------------------------

    Molecular point group: c1
  Charge       = 0
  Multiplicity = 1
  Basis Set: AUG-CC-PVTZ
    Blend: AUG-CC-PVTZ
  Basis Set: (AUG-CC-PVTZ AUX)
    Blend: AUG-CC-PVTZ-JKFIT

    Orbital Energies [Eh]
    ---------------------

    Doubly Occupied:

       1A    -20.538992     2A    -15.565510     3A    -11.339016
       4A    -11.299190     5A    -11.259829     6A    -11.251861
       7A    -11.251617     8A    -11.250879     9A    -11.249794
      10A    -11.248665    11A    -11.246515    12A    -11.244541
      13A    -11.243130    14A    -11.237172    15A    -11.229981
      16A    -11.224309    17A     -1.372125    18A     -1.252482
      19A     -1.162993    20A     -1.140547    21A     -1.055057
      22A     -1.025061    23A     -1.020339    24A     -1.007870
      25A     -0.933180    26A     -0.887429    27A     -0.844471
      28A     -0.834041    29A     -0.807670    30A     -0.771275
      31A     -0.717387    32A     -0.703151    33A     -0.684339
      34A     -0.656139    35A     -0.644861    36A     -0.633661
      37A     -0.619574    38A     -0.617032    39A     -0.608306
      40A     -0.600431    41A     -0.595597    42A     -0.577879
      43A     -0.544734    44A     -0.544185    45A     -0.530855
      46A     -0.519599    47A     -0.512521    48A     -0.502913
      49A     -0.500835    50A     -0.486247    51A     -0.433118
      52A     -0.417657    53A     -0.349778    54A     -0.344753
      55A     -0.342729    56A     -0.289600

  @DF-RHF Final Energy:  -667.26217189616295

   => Energetics <=

    Nuclear Repulsion Energy =           1002.5637779449198206
    One-Electron Energy =               -2896.1050594682551491
    Two-Electron Energy =                1226.2791096271723745
    Total Energy =                       -667.2621718961629540
  Basis Set: (AUG-CC-PVTZ AUX)
    Blend: AUG-CC-PVTZ-RI
    Molecular point group: c1

    Geometry (in Angstrom), charge = 0, multiplicity = 1:

       Center              X                  Y                   Z               Mass
    ------------   -----------------  -----------------  -----------------  -----------------
         O           -0.039247078391    -1.995056921896    -0.450242178467    15.994914619570
         N            2.483069921609    -1.469235921896     0.410820821533    14.003074004430
         C            0.835671921609     0.216200078104    -0.209102178467    12.000000000000
         C            2.170748121609    -0.192360421896     0.088868221533    12.000000000000
         C           -0.253296078391    -0.784158921896    -0.254598178467    12.000000000000
         C           -1.665898078391    -0.339281921896    -0.052007178467    12.000000000000
         C            0.560051921609     1.551579078104    -0.555910178467    12.000000000000
         C            3.162147921609     0.841839078104     0.124965821533    12.000000000000
         C            1.553413921609     2.523135078104    -0.554476178467    12.000000000000
         C            2.856035921609     2.157235078104    -0.205295178467    12.000000000000
         C           -2.007958078391     0.646052078104     0.886437821533    12.000000000000
         C           -2.675679078391    -1.010504921896    -0.756017178467    12.000000000000
         C           -3.349873078391     0.961243078104     1.104488821533    12.000000000000
         C           -4.012031078391    -0.674535921896    -0.550796178467    12.000000000000
         C            3.853274921609    -1.918499921896     0.538780821533    12.000000000000
         C           -4.352216078391     0.311388078104     0.380544821533    12.000000000000
         H           -0.453740078391     1.819298078104    -0.840069178467     1.007825032230
         H            4.187405921609     0.584823078104     0.371115821533     1.007825032230
         H            1.805801921609    -2.140418921896     0.063819821533     1.007825032230
         H            1.321572921609     3.546326078104    -0.836786178467     1.007825032230
         H            3.646123921609     2.905208078104    -0.185619178467     1.007825032230
         H           -1.228473078391     1.143012078104     1.458172821533     1.007825032230
         H           -2.394869078391    -1.792632921896    -1.456669178467     1.007825032230
         H           -3.613752078391     1.715058078104     1.842507821533     1.007825032230
         H           -4.791457078391    -1.185859921896    -1.110747178467     1.007825032230
         H            4.458886921609    -1.712570921896    -0.355407178467     1.007825032230
         H            3.839389921609    -2.996235921896     0.709453821533     1.007825032230
         H            4.338875921609    -1.448461921896     1.399678821533     1.007825032230
         H           -5.396098078391     0.567222078104     0.546208821533     1.007825032230

  Basis Set: AUG-CC-PVTZ
    Blend: AUG-CC-PVTZ
  Basis Set: (AUG-CC-PVTZ AUX)
    Blend: AUG-CC-PVTZ-JKFIT
	 Reference Energy          =    -667.2621718961629540 [Eh]
	 Singles Energy            =      -0.0000000000000000 [Eh]
	 Same-Spin Energy          =      -0.7346507377210063 [Eh]
	 Opposite-Spin Energy      =      -2.2652984832380461 [Eh]
	 Correlation Energy        =      -2.9999492209590524 [Eh]
	 Total Energy              =    -670.2621211171219784 [Eh]

	 ================> DF-SCS-MP2 Energies <==================
	-----------------------------------------------------------
	 SCS Same-Spin Scale       =       0.3333333333333333 [-]
	 SCS Opposite-Spin Scale   =       1.2000000000000000 [-]
	 SCS Same-Spin Energy      =      -0.2448835792403354 [Eh]
	 SCS Opposite-Spin Energy  =      -2.7183581798856551 [Eh]
	 SCS Correlation Energy    =      -2.9632417591259905 [Eh]
	 SCS Total Energy          =    -670.2254136552888895 [Eh]
	-----------------------------------------------------------

  Dipole Moment: [D]
     X:     0.4283      Y:     1.0555      Z:     0.3897     Total:     1.2039

*** Psi4 exiting successfully. Buy a developer a beer!
