                               Psi4 1.4a2.dev612

  ==> Input File <==

--------------------------------------------------------------------------
#psi4
#
memory 32 gb

molecule  {
0 1
  O       -0.0649480    -2.0007500    -0.4572220
  N        2.4573690    -1.4749290     0.4038410
  C        0.6673823     0.1828754    -0.2404244
  C        2.1525410    -0.1743900     0.0797160
  C       -0.2789970    -0.7898520    -0.2615780
  C       -1.6915990    -0.3449750    -0.0589870
  C        0.5343510     1.5458860    -0.5628900
  C        3.1364470     0.8361460     0.1179860
  C        1.5277130     2.5174420    -0.5614560
  C        2.8303350     2.1515420    -0.2122750
  C       -2.0336590     0.6403590     0.8794580
  C       -2.7013800    -1.0161980    -0.7629970
  C       -3.3755740     0.9555500     1.0975090
  C       -4.0377320    -0.6802290    -0.5577760
  C        3.8275740    -1.9241930     0.5318010
  C       -4.3779170     0.3056950     0.3735650
  H       -0.4794410     1.8136050    -0.8470490
  H        4.1617050     0.5791300     0.3641360
  H        1.7801010    -2.1461120     0.0568400
  H        1.2958720     3.5406330    -0.8437660
  H        3.6204230     2.8995150    -0.1925990
  H       -1.2541740     1.1373190     1.4511930
  H       -2.4205700    -1.7983260    -1.4636490
  H       -3.6394530     1.7093650     1.8355280
  H       -4.8171580    -1.1915530    -1.1177270
  H        4.4331860    -1.7182640    -0.3623870
  H        3.8136890    -3.0019290     0.7024740
  H        4.3131750    -1.4541550     1.3926990
  H       -5.4217990     0.5615290     0.5392290
units angstrom
no_reorient  #important for SAPT in psi4, default
symmetry c1  #important for SAPT in psi4, default
}

set PROPERTIES_ORIGIN ["COM"]
properties('MP2/aug-cc-pvtz', properties = ['dipole'])
--------------------------------------------------------------------------

    Molecular point group: c1
  Charge       = 0
  Multiplicity = 1
  Basis Set: AUG-CC-PVTZ
    Blend: AUG-CC-PVTZ
  Basis Set: (AUG-CC-PVTZ AUX)
    Blend: AUG-CC-PVTZ-JKFIT

    Orbital Energies [Eh]
    ---------------------

    Doubly Occupied:

       1A    -20.528719     2A    -15.571161     3A    -11.324731
       4A    -11.315762     5A    -11.263710     6A    -11.261755
       7A    -11.260795     8A    -11.247177     9A    -11.246397
      10A    -11.243287    11A    -11.242001    12A    -11.241658
      13A    -11.239971    14A    -11.239318    15A    -11.230178
      16A    -11.227948    17A     -1.366645    18A     -1.246712
      19A     -1.160977    20A     -1.140902    21A     -1.068265
      22A     -1.022225    23A     -1.018230    24A     -1.007953
      25A     -0.938559    26A     -0.899772    27A     -0.844065
      28A     -0.830204    29A     -0.806085    30A     -0.768218
      31A     -0.718036    32A     -0.711781    33A     -0.680689
      34A     -0.656645    35A     -0.642744    36A     -0.633664
      37A     -0.618800    38A     -0.616351    39A     -0.606610
      40A     -0.604629    41A     -0.592823    42A     -0.577151
      43A     -0.547157    44A     -0.545768    45A     -0.534922
      46A     -0.518532    47A     -0.508492    48A     -0.497990
      49A     -0.490856    50A     -0.477677    51A     -0.433650
      52A     -0.418323    53A     -0.355681    54A     -0.342317
      55A     -0.339822    56A     -0.289929

  @DF-RHF Final Energy:  -667.23658083010923

   => Energetics <=

    Nuclear Repulsion Energy =           1002.7205577490470887
    One-Electron Energy =               -2896.3854340704288006
    Two-Electron Energy =                1226.4282954912723653
    Total Energy =                       -667.2365808301092329
  Basis Set: (AUG-CC-PVTZ AUX)
    Blend: AUG-CC-PVTZ-RI
    Molecular point group: c1

    Geometry (in Angstrom), charge = 0, multiplicity = 1:

       Center              X                  Y                   Z               Mass
    ------------   -----------------  -----------------  -----------------  -----------------
         O           -0.031567585279    -1.994831354560    -0.448734940044    15.994914619570
         N            2.490749414721    -1.469010354560     0.412328059956    14.003074004430
         C            0.700762714721     0.188794045440    -0.231937340044    12.000000000000
         C            2.185921414721    -0.168471354560     0.088203059956    12.000000000000
         C           -0.245616585279    -0.783933354560    -0.253090940044    12.000000000000
         C           -1.658218585279    -0.339056354560    -0.050499940044    12.000000000000
         C            0.567731414721     1.551804645440    -0.554402940044    12.000000000000
         C            3.169827414721     0.842064645440     0.126473059956    12.000000000000
         C            1.561093414721     2.523360645440    -0.552968940044    12.000000000000
         C            2.863715414721     2.157460645440    -0.203787940044    12.000000000000
         C           -2.000278585279     0.646277645440     0.887945059956    12.000000000000
         C           -2.667999585279    -1.010279354560    -0.754509940044    12.000000000000
         C           -3.342193585279     0.961468645440     1.105996059956    12.000000000000
         C           -4.004351585279    -0.674310354560    -0.549288940044    12.000000000000
         C            3.860954414721    -1.918274354560     0.540288059956    12.000000000000
         C           -4.344536585279     0.311613645440     0.382052059956    12.000000000000
         H           -0.446060585279     1.819523645440    -0.838561940044     1.007825032230
         H            4.195085414721     0.585048645440     0.372623059956     1.007825032230
         H            1.813481414721    -2.140193354560     0.065327059956     1.007825032230
         H            1.329252414721     3.546551645440    -0.835278940044     1.007825032230
         H            3.653803414721     2.905433645440    -0.184111940044     1.007825032230
         H           -1.220793585279     1.143237645440     1.459680059956     1.007825032230
         H           -2.387189585279    -1.792407354560    -1.455161940044     1.007825032230
         H           -3.606072585279     1.715283645440     1.844015059956     1.007825032230
         H           -4.783777585279    -1.185634354560    -1.109239940044     1.007825032230
         H            4.466566414721    -1.712345354560    -0.353899940044     1.007825032230
         H            3.847069414721    -2.996010354560     0.710961059956     1.007825032230
         H            4.346555414721    -1.448236354560     1.401186059956     1.007825032230
         H           -5.388418585279     0.567447645440     0.547716059956     1.007825032230

  Basis Set: AUG-CC-PVTZ
    Blend: AUG-CC-PVTZ
  Basis Set: (AUG-CC-PVTZ AUX)
    Blend: AUG-CC-PVTZ-JKFIT
	 Reference Energy          =    -667.2365808301092329 [Eh]
	 Singles Energy            =      -0.0000000000000000 [Eh]
	 Same-Spin Energy          =      -0.7359528712183121 [Eh]
	 Opposite-Spin Energy      =      -2.2675375985733108 [Eh]
	 Correlation Energy        =      -3.0034904697916227 [Eh]
	 Total Energy              =    -670.2400712999008192 [Eh]

	 ================> DF-SCS-MP2 Energies <==================
	-----------------------------------------------------------
	 SCS Same-Spin Scale       =       0.3333333333333333 [-]
	 SCS Opposite-Spin Scale   =       1.2000000000000000 [-]
	 SCS Same-Spin Energy      =      -0.2453176237394374 [Eh]
	 SCS Opposite-Spin Energy  =      -2.7210451182879729 [Eh]
	 SCS Correlation Energy    =      -2.9663627420274103 [Eh]
	 SCS Total Energy          =    -670.2029435721366326 [Eh]
	-----------------------------------------------------------

  Dipole Moment: [D]
     X:     1.0184      Y:     1.3200      Z:     0.4159     Total:     1.7183

*** Psi4 exiting successfully. Buy a developer a beer!
