                               Psi4 1.3.2 release

  ==> Input File <==

--------------------------------------------------------------------------
#psi4
#
memory 32 gb

molecule  {
0 1
  O       -0.0649480    -2.0007500    -0.4572220
  N        2.4573690    -1.4749290     0.4038410
  C        0.8099710     0.2105070    -0.2160820
  C        2.1447271    -0.1976926     0.0838107
  C       -0.2789970    -0.7898520    -0.2615780
  C       -1.6915990    -0.3449750    -0.0589870
  C        0.5343510     1.5458860    -0.5628900
  C        3.1364470     0.8361460     0.1179860
  C        1.5277130     2.5174420    -0.5614560
  C        2.8303350     2.1515420    -0.2122750
  C       -2.0336590     0.6403590     0.8794580
  C       -2.7013800    -1.0161980    -0.7629970
  C       -3.3755740     0.9555500     1.0975090
  C       -4.0377320    -0.6802290    -0.5577760
  C        3.8275740    -1.9241930     0.5318010
  C       -4.3779170     0.3056950     0.3735650
  H       -0.4794410     1.8136050    -0.8470490
  H        4.1617050     0.5791300     0.3641360
  H        1.7801010    -2.1461120     0.0568400
  H        1.2958720     3.5406330    -0.8437660
  H        3.6204230     2.8995150    -0.1925990
  H       -1.2541740     1.1373190     1.4511930
  H       -2.4205700    -1.7983260    -1.4636490
  H       -3.6394530     1.7093650     1.8355280
  H       -4.8171580    -1.1915530    -1.1177270
  H        4.4331860    -1.7182640    -0.3623870
  H        3.8136890    -3.0019290     0.7024740
  H        4.3131750    -1.4541550     1.3926990
  H       -5.4217990     0.5615290     0.5392290
units angstrom
no_reorient  #important for SAPT in psi4, default
symmetry c1  #important for SAPT in psi4, default
}

set PROPERTIES_ORIGIN ["COM"]
properties('MP2/aug-cc-pvtz', properties = ['dipole'])
--------------------------------------------------------------------------

    Molecular point group: c1
  Charge       = 0
  Multiplicity = 1
  Basis Set: AUG-CC-PVTZ
    Blend: AUG-CC-PVTZ
  Basis Set: (AUG-CC-PVTZ AUX)
    Blend: AUG-CC-PVTZ-JKFIT

    Orbital Energies [Eh]
    ---------------------

    Doubly Occupied:

       1A    -20.539005     2A    -15.565504     3A    -11.339022
       4A    -11.299192     5A    -11.259835     6A    -11.251858
       7A    -11.251613     8A    -11.250881     9A    -11.249797
      10A    -11.248667    11A    -11.246517    12A    -11.244544
      13A    -11.243132    14A    -11.237168    15A    -11.229966
      16A    -11.224300    17A     -1.372132    18A     -1.252474
      19A     -1.162995    20A     -1.140543    21A     -1.055059
      22A     -1.025062    23A     -1.020337    24A     -1.007879
      25A     -0.933181    26A     -0.887433    27A     -0.844477
      28A     -0.834042    29A     -0.807673    30A     -0.771285
      31A     -0.717396    32A     -0.703175    33A     -0.684340
      34A     -0.656144    35A     -0.644865    36A     -0.633667
      37A     -0.619577    38A     -0.617021    39A     -0.608309
      40A     -0.600443    41A     -0.595599    42A     -0.577890
      43A     -0.544728    44A     -0.544194    45A     -0.530865
      46A     -0.519591    47A     -0.512536    48A     -0.502917
      49A     -0.500838    50A     -0.486256    51A     -0.433092
      52A     -0.417661    53A     -0.349782    54A     -0.344752
      55A     -0.342733    56A     -0.289579

  @DF-RHF Final Energy:  -667.26220408978816

   => Energetics <=

    Nuclear Repulsion Energy =           1002.5649978494520838
    One-Electron Energy =               -2896.1073576205003519
    Two-Electron Energy =                1226.2801556812601120
    Total Energy =                       -667.2622040897881561
  Basis Set: (AUG-CC-PVTZ AUX)
    Blend: AUG-CC-PVTZ-RI
    Molecular point group: c1

    Geometry (in Angstrom), charge = 0, multiplicity = 1:

       Center              X                  Y                   Z               Mass
    ------------   -----------------  -----------------  -----------------  -----------------
         O           -0.039228882251    -1.995077437319    -0.450351451945    15.994914619570
         N            2.483088117749    -1.469256437319     0.410711548055    14.003074004430
         C            0.835690117749     0.216179562681    -0.209211451945    12.000000000000
         C            2.170446217749    -0.192020037319     0.090681248055    12.000000000000
         C           -0.253277882251    -0.784179437319    -0.254707451945    12.000000000000
         C           -1.665879882251    -0.339302437319    -0.052116451945    12.000000000000
         C            0.560070117749     1.551558562681    -0.556019451945    12.000000000000
         C            3.162166117749     0.841818562681     0.124856548055    12.000000000000
         C            1.553432117749     2.523114562681    -0.554585451945    12.000000000000
         C            2.856054117749     2.157214562681    -0.205404451945    12.000000000000
         C           -2.007939882251     0.646031562681     0.886328548055    12.000000000000
         C           -2.675660882251    -1.010525437319    -0.756126451945    12.000000000000
         C           -3.349854882251     0.961222562681     1.104379548055    12.000000000000
         C           -4.012012882251    -0.674556437319    -0.550905451945    12.000000000000
         C            3.853293117749    -1.918520437319     0.538671548055    12.000000000000
         C           -4.352197882251     0.311367562681     0.380435548055    12.000000000000
         H           -0.453721882251     1.819277562681    -0.840178451945     1.007825032230
         H            4.187424117749     0.584802562681     0.371006548055     1.007825032230
         H            1.805820117749    -2.140439437319     0.063710548055     1.007825032230
         H            1.321591117749     3.546305562681    -0.836895451945     1.007825032230
         H            3.646142117749     2.905187562681    -0.185728451945     1.007825032230
         H           -1.228454882251     1.142991562681     1.458063548055     1.007825032230
         H           -2.394850882251    -1.792653437319    -1.456778451945     1.007825032230
         H           -3.613733882251     1.715037562681     1.842398548055     1.007825032230
         H           -4.791438882251    -1.185880437319    -1.110856451945     1.007825032230
         H            4.458905117749    -1.712591437319    -0.355516451945     1.007825032230
         H            3.839408117749    -2.996256437319     0.709344548055     1.007825032230
         H            4.338894117749    -1.448482437319     1.399569548055     1.007825032230
         H           -5.396079882251     0.567201562681     0.546099548055     1.007825032230

  Basis Set: AUG-CC-PVTZ
    Blend: AUG-CC-PVTZ
  Basis Set: (AUG-CC-PVTZ AUX)
    Blend: AUG-CC-PVTZ-JKFIT
	 Reference Energy          =    -667.2622040897881561 [Eh]
	 Singles Energy            =      -0.0000000000000000 [Eh]
	 Same-Spin Energy          =      -0.7346491098409056 [Eh]
	 Opposite-Spin Energy      =      -2.2652970969858379 [Eh]
	 Correlation Energy        =      -2.9999462068267437 [Eh]
	 Total Energy              =    -670.2621502966148910 [Eh]

	 ================> DF-SCS-MP2 Energies <==================
	-----------------------------------------------------------
	 SCS Same-Spin Scale       =       0.3333333333333333 [-]
	 SCS Opposite-Spin Scale   =       1.2000000000000000 [-]
	 SCS Same-Spin Energy      =      -0.2448830366136352 [Eh]
	 SCS Opposite-Spin Energy  =      -2.7183565163830052 [Eh]
	 SCS Correlation Energy    =      -2.9632395529966402 [Eh]
	 SCS Total Energy          =    -670.2254436427847395 [Eh]
	-----------------------------------------------------------

  Dipole Moment: [D]
     X:     0.4278      Y:     1.0548      Z:     0.3903     Total:     1.2033

*** Psi4 exiting successfully. Buy a developer a beer!
