                               Psi4 1.3.2 release

  ==> Input File <==

--------------------------------------------------------------------------
#psi4
#
memory 32 gb

molecule  {
0 1
  O       -0.0649480    -2.0007500    -0.4572220
  N        2.5489450    -1.4477199     0.4126930
  C        0.8099710     0.2105070    -0.2160820
  C        2.1525410    -0.1743900     0.0797160
  C       -0.2789970    -0.7898520    -0.2615780
  C       -1.6915990    -0.3449750    -0.0589870
  C        0.5343510     1.5458860    -0.5628900
  C        3.1364470     0.8361460     0.1179860
  C        1.5277130     2.5174420    -0.5614560
  C        2.8303350     2.1515420    -0.2122750
  C       -2.0336590     0.6403590     0.8794580
  C       -2.7013800    -1.0161980    -0.7629970
  C       -3.3755740     0.9555500     1.0975090
  C       -4.0377320    -0.6802290    -0.5577760
  C        3.8275740    -1.9241930     0.5318010
  C       -4.3779170     0.3056950     0.3735650
  H       -0.4794410     1.8136050    -0.8470490
  H        4.1617050     0.5791300     0.3641360
  H        1.7801010    -2.1461120     0.0568400
  H        1.2958720     3.5406330    -0.8437660
  H        3.6204230     2.8995150    -0.1925990
  H       -1.2541740     1.1373190     1.4511930
  H       -2.4205700    -1.7983260    -1.4636490
  H       -3.6394530     1.7093650     1.8355280
  H       -4.8171580    -1.1915530    -1.1177270
  H        4.4331860    -1.7182640    -0.3623870
  H        3.8136890    -3.0019290     0.7024740
  H        4.3131750    -1.4541550     1.3926990
  H       -5.4217990     0.5615290     0.5392290
units angstrom
no_reorient  #important for SAPT in psi4, default
symmetry c1  #important for SAPT in psi4, default
}

set PROPERTIES_ORIGIN ["COM"]
properties('MP2/aug-cc-pvtz', properties = ['dipole'])
--------------------------------------------------------------------------

    Molecular point group: c1
  Charge       = 0
  Multiplicity = 1
  Basis Set: AUG-CC-PVTZ
    Blend: AUG-CC-PVTZ
  Basis Set: (AUG-CC-PVTZ AUX)
    Blend: AUG-CC-PVTZ-JKFIT

    Orbital Energies [Eh]
    ---------------------

    Doubly Occupied:

       1A    -20.541897     2A    -15.563866     3A    -11.341950
       4A    -11.298982     5A    -11.253786     6A    -11.252323
       7A    -11.252053     8A    -11.251132     9A    -11.251060
      10A    -11.250243    11A    -11.247944    12A    -11.245735
      13A    -11.244324    14A    -11.241108    15A    -11.227223
      16A    -11.226064    17A     -1.374174    18A     -1.253647
      19A     -1.164511    20A     -1.145034    21A     -1.056775
      22A     -1.026590    23A     -1.022687    24A     -1.015298
      25A     -0.927603    26A     -0.886579    27A     -0.846394
      28A     -0.835764    29A     -0.802728    30A     -0.771480
      31A     -0.718543    32A     -0.697359    33A     -0.684286
      34A     -0.660504    35A     -0.647069    36A     -0.633712
      37A     -0.624497    38A     -0.619821    39A     -0.612022
      40A     -0.604462    41A     -0.596890    42A     -0.583842
      43A     -0.546240    44A     -0.536865    45A     -0.528739
      46A     -0.516065    47A     -0.512085    48A     -0.505022
      49A     -0.502146    50A     -0.486628    51A     -0.423638
      52A     -0.417680    53A     -0.351090    54A     -0.346207
      55A     -0.344020    56A     -0.289846

  @DF-RHF Final Energy:  -667.24864909165990

   => Energetics <=

    Nuclear Repulsion Energy =           1002.3997862262001490
    One-Electron Energy =               -2895.6804044435966716
    Two-Electron Energy =                1226.0319691257366230
    Total Energy =                       -667.2486490916598996
  Basis Set: (AUG-CC-PVTZ AUX)
    Blend: AUG-CC-PVTZ-RI
    Molecular point group: c1

    Geometry (in Angstrom), charge = 0, multiplicity = 1:

       Center              X                  Y                   Z               Mass
    ------------   -----------------  -----------------  -----------------  -----------------
         O           -0.045747660883    -1.998206964253    -0.450705875974    15.994914619570
         N            2.568145339117    -1.445176864253     0.419209124026    14.003074004430
         C            0.829171339117     0.213050035747    -0.209565875974    12.000000000000
         C            2.171741339117    -0.171846964253     0.086232124026    12.000000000000
         C           -0.259796660883    -0.787308964253    -0.255061875974    12.000000000000
         C           -1.672398660883    -0.342431964253    -0.052470875974    12.000000000000
         C            0.553551339117     1.548429035747    -0.556373875974    12.000000000000
         C            3.155647339117     0.838689035747     0.124502124026    12.000000000000
         C            1.546913339117     2.519985035747    -0.554939875974    12.000000000000
         C            2.849535339117     2.154085035747    -0.205758875974    12.000000000000
         C           -2.014458660883     0.642902035747     0.885974124026    12.000000000000
         C           -2.682179660883    -1.013654964253    -0.756480875974    12.000000000000
         C           -3.356373660883     0.958093035747     1.104025124026    12.000000000000
         C           -4.018531660883    -0.677685964253    -0.551259875974    12.000000000000
         C            3.846774339117    -1.921649964253     0.538317124026    12.000000000000
         C           -4.358716660883     0.308238035747     0.380081124026    12.000000000000
         H           -0.460240660883     1.816148035747    -0.840532875974     1.007825032230
         H            4.180905339117     0.581673035747     0.370652124026     1.007825032230
         H            1.799301339117    -2.143568964253     0.063356124026     1.007825032230
         H            1.315072339117     3.543176035747    -0.837249875974     1.007825032230
         H            3.639623339117     2.902058035747    -0.186082875974     1.007825032230
         H           -1.234973660883     1.139862035747     1.457709124026     1.007825032230
         H           -2.401369660883    -1.795782964253    -1.457132875974     1.007825032230
         H           -3.620252660883     1.711908035747     1.842044124026     1.007825032230
         H           -4.797957660883    -1.189009964253    -1.111210875974     1.007825032230
         H            4.452386339117    -1.715720964253    -0.355870875974     1.007825032230
         H            3.832889339117    -2.999385964253     0.708990124026     1.007825032230
         H            4.332375339117    -1.451611964253     1.399215124026     1.007825032230
         H           -5.402598660883     0.564072035747     0.545745124026     1.007825032230

  Basis Set: AUG-CC-PVTZ
    Blend: AUG-CC-PVTZ
  Basis Set: (AUG-CC-PVTZ AUX)
    Blend: AUG-CC-PVTZ-JKFIT
	 Reference Energy          =    -667.2486490916598996 [Eh]
	 Singles Energy            =      -0.0000000000000000 [Eh]
	 Same-Spin Energy          =      -0.7358694521322144 [Eh]
	 Opposite-Spin Energy      =      -2.2667857295305112 [Eh]
	 Correlation Energy        =      -3.0026551816627256 [Eh]
	 Total Energy              =    -670.2513042733226030 [Eh]

	 ================> DF-SCS-MP2 Energies <==================
	-----------------------------------------------------------
	 SCS Same-Spin Scale       =       0.3333333333333333 [-]
	 SCS Opposite-Spin Scale   =       1.2000000000000000 [-]
	 SCS Same-Spin Energy      =      -0.2452898173774048 [Eh]
	 SCS Opposite-Spin Energy  =      -2.7201428754366135 [Eh]
	 SCS Correlation Energy    =      -2.9654326928140184 [Eh]
	 SCS Total Energy          =    -670.2140817844739331 [Eh]
	-----------------------------------------------------------

  Dipole Moment: [D]
     X:     0.0843      Y:     1.1773      Z:     0.3609     Total:     1.2343

*** Psi4 exiting successfully. Buy a developer a beer!
