                               Psi4 1.3.2 release

  ==> Input File <==

--------------------------------------------------------------------------
#psi4
#
memory 32 gb

molecule  {
0 1
  O       -0.0649480    -2.0007500    -0.4572220
  N        2.4573690    -1.4749290     0.4038410
  C        0.8099710     0.2105070    -0.2160820
  C        2.2724985    -0.1367918     0.1496945
  C       -0.2789970    -0.7898520    -0.2615780
  C       -1.6915990    -0.3449750    -0.0589870
  C        0.5343510     1.5458860    -0.5628900
  C        3.1364470     0.8361460     0.1179860
  C        1.5277130     2.5174420    -0.5614560
  C        2.8303350     2.1515420    -0.2122750
  C       -2.0336590     0.6403590     0.8794580
  C       -2.7013800    -1.0161980    -0.7629970
  C       -3.3755740     0.9555500     1.0975090
  C       -4.0377320    -0.6802290    -0.5577760
  C        3.8275740    -1.9241930     0.5318010
  C       -4.3779170     0.3056950     0.3735650
  H       -0.4794410     1.8136050    -0.8470490
  H        4.1617050     0.5791300     0.3641360
  H        1.7801010    -2.1461120     0.0568400
  H        1.2958720     3.5406330    -0.8437660
  H        3.6204230     2.8995150    -0.1925990
  H       -1.2541740     1.1373190     1.4511930
  H       -2.4205700    -1.7983260    -1.4636490
  H       -3.6394530     1.7093650     1.8355280
  H       -4.8171580    -1.1915530    -1.1177270
  H        4.4331860    -1.7182640    -0.3623870
  H        3.8136890    -3.0019290     0.7024740
  H        4.3131750    -1.4541550     1.3926990
  H       -5.4217990     0.5615290     0.5392290
units angstrom
no_reorient  #important for SAPT in psi4, default
symmetry c1  #important for SAPT in psi4, default
}

set PROPERTIES_ORIGIN ["COM"]
properties('MP2/aug-cc-pvtz', properties = ['dipole'])
--------------------------------------------------------------------------

    Molecular point group: c1
  Charge       = 0
  Multiplicity = 1
  Basis Set: AUG-CC-PVTZ
    Blend: AUG-CC-PVTZ
  Basis Set: (AUG-CC-PVTZ AUX)
    Blend: AUG-CC-PVTZ-JKFIT

    Orbital Energies [Eh]
    ---------------------

    Doubly Occupied:

       1A    -20.539169     2A    -15.559626     3A    -11.340875
       4A    -11.293173     5A    -11.257579     6A    -11.254694
       7A    -11.252200     8A    -11.251272     9A    -11.250219
      10A    -11.249621    11A    -11.247755    12A    -11.247030
      13A    -11.244871    14A    -11.243527    15A    -11.228029
      16A    -11.215731    17A     -1.371485    18A     -1.243646
      19A     -1.163382    20A     -1.143240    21A     -1.057689
      22A     -1.027913    23A     -1.023370    24A     -1.008961
      25A     -0.926324    26A     -0.894508    27A     -0.847143
      28A     -0.833221    29A     -0.800383    30A     -0.768660
      31A     -0.719584    32A     -0.710071    33A     -0.681534
      34A     -0.657664    35A     -0.643946    36A     -0.635957
      37A     -0.624507    38A     -0.611403    39A     -0.608133
      40A     -0.597800    41A     -0.595959    42A     -0.575192
      43A     -0.544441    44A     -0.542122    45A     -0.534824
      46A     -0.520856    47A     -0.513598    48A     -0.501384
      49A     -0.493302    50A     -0.479588    51A     -0.429047
      52A     -0.419311    53A     -0.352741    54A     -0.344785
      55A     -0.343669    56A     -0.293291

  @DF-RHF Final Energy:  -667.24019017356022

   => Energetics <=

    Nuclear Repulsion Energy =           1001.5676214869570231
    One-Electron Energy =               -2894.0956179524628169
    Two-Electron Energy =                1225.2878062919455715
    Total Energy =                       -667.2401901735602223
  Basis Set: (AUG-CC-PVTZ AUX)
    Blend: AUG-CC-PVTZ-RI
    Molecular point group: c1

    Geometry (in Angstrom), charge = 0, multiplicity = 1:

       Center              X                  Y                   Z               Mass
    ------------   -----------------  -----------------  -----------------  -----------------
         O           -0.046492069731    -1.998539353899    -0.454096628027    15.994914619570
         N            2.475824930269    -1.472718353899     0.406966371973    14.003074004430
         C            0.828426930269     0.212717646101    -0.212956628027    12.000000000000
         C            2.290954430269    -0.134581153899     0.152819871973    12.000000000000
         C           -0.260541069731    -0.787641353899    -0.258452628027    12.000000000000
         C           -1.673143069731    -0.342764353899    -0.055861628027    12.000000000000
         C            0.552806930269     1.548096646101    -0.559764628027    12.000000000000
         C            3.154902930269     0.838356646101     0.121111371973    12.000000000000
         C            1.546168930269     2.519652646101    -0.558330628027    12.000000000000
         C            2.848790930269     2.153752646101    -0.209149628027    12.000000000000
         C           -2.015203069731     0.642569646101     0.882583371973    12.000000000000
         C           -2.682924069731    -1.013987353899    -0.759871628027    12.000000000000
         C           -3.357118069731     0.957760646101     1.100634371973    12.000000000000
         C           -4.019276069731    -0.678018353899    -0.554650628027    12.000000000000
         C            3.846029930269    -1.921982353899     0.534926371973    12.000000000000
         C           -4.359461069731     0.307905646101     0.376690371973    12.000000000000
         H           -0.460985069731     1.815815646101    -0.843923628027     1.007825032230
         H            4.180160930269     0.581340646101     0.367261371973     1.007825032230
         H            1.798556930269    -2.143901353899     0.059965371973     1.007825032230
         H            1.314327930269     3.542843646101    -0.840640628027     1.007825032230
         H            3.638878930269     2.901725646101    -0.189473628027     1.007825032230
         H           -1.235718069731     1.139529646101     1.454318371973     1.007825032230
         H           -2.402114069731    -1.796115353899    -1.460523628027     1.007825032230
         H           -3.620997069731     1.711575646101     1.838653371973     1.007825032230
         H           -4.798702069731    -1.189342353899    -1.114601628027     1.007825032230
         H            4.451641930269    -1.716053353899    -0.359261628027     1.007825032230
         H            3.832144930269    -2.999718353899     0.705599371973     1.007825032230
         H            4.331630930269    -1.451944353899     1.395824371973     1.007825032230
         H           -5.403343069731     0.563739646101     0.542354371973     1.007825032230

  Basis Set: AUG-CC-PVTZ
    Blend: AUG-CC-PVTZ
  Basis Set: (AUG-CC-PVTZ AUX)
    Blend: AUG-CC-PVTZ-JKFIT
	 Reference Energy          =    -667.2401901735602223 [Eh]
	 Singles Energy            =      -0.0000000000000000 [Eh]
	 Same-Spin Energy          =      -0.7346970293044618 [Eh]
	 Opposite-Spin Energy      =      -2.2663801567020871 [Eh]
	 Correlation Energy        =      -3.0010771860065488 [Eh]
	 Total Energy              =    -670.2412673595667911 [Eh]

	 ================> DF-SCS-MP2 Energies <==================
	-----------------------------------------------------------
	 SCS Same-Spin Scale       =       0.3333333333333333 [-]
	 SCS Opposite-Spin Scale   =       1.2000000000000000 [-]
	 SCS Same-Spin Energy      =      -0.2448990097681539 [Eh]
	 SCS Opposite-Spin Energy  =      -2.7196561880425043 [Eh]
	 SCS Correlation Energy    =      -2.9645551978106583 [Eh]
	 SCS Total Energy          =    -670.2047453713709046 [Eh]
	-----------------------------------------------------------

  Dipole Moment: [D]
     X:     0.1962      Y:     1.3394      Z:     0.3198     Total:     1.3910

*** Psi4 exiting successfully. Buy a developer a beer!
