                               Psi4 1.3.2 release

  ==> Input File <==

--------------------------------------------------------------------------
#psi4
#
memory 32 gb

molecule  {
0 1
  O       -0.0649480    -2.0007500    -0.4572220
  N        2.4573690    -1.4749290     0.4038410
  C        0.7963006     0.1627652    -0.2119596
  C        2.1525410    -0.1743900     0.0797160
  C       -0.2789970    -0.7898520    -0.2615780
  C       -1.6915990    -0.3449750    -0.0589870
  C        0.5343510     1.5458860    -0.5628900
  C        3.1364470     0.8361460     0.1179860
  C        1.5277130     2.5174420    -0.5614560
  C        2.8303350     2.1515420    -0.2122750
  C       -2.0336590     0.6403590     0.8794580
  C       -2.7013800    -1.0161980    -0.7629970
  C       -3.3755740     0.9555500     1.0975090
  C       -4.0377320    -0.6802290    -0.5577760
  C        3.8275740    -1.9241930     0.5318010
  C       -4.3779170     0.3056950     0.3735650
  H       -0.4794410     1.8136050    -0.8470490
  H        4.1617050     0.5791300     0.3641360
  H        1.7801010    -2.1461120     0.0568400
  H        1.2958720     3.5406330    -0.8437660
  H        3.6204230     2.8995150    -0.1925990
  H       -1.2541740     1.1373190     1.4511930
  H       -2.4205700    -1.7983260    -1.4636490
  H       -3.6394530     1.7093650     1.8355280
  H       -4.8171580    -1.1915530    -1.1177270
  H        4.4331860    -1.7182640    -0.3623870
  H        3.8136890    -3.0019290     0.7024740
  H        4.3131750    -1.4541550     1.3926990
  H       -5.4217990     0.5615290     0.5392290
units angstrom
no_reorient  #important for SAPT in psi4, default
symmetry c1  #important for SAPT in psi4, default
}

set PROPERTIES_ORIGIN ["COM"]
properties('MP2/aug-cc-pvtz', properties = ['dipole'])
--------------------------------------------------------------------------

    Molecular point group: c1
  Charge       = 0
  Multiplicity = 1
  Basis Set: AUG-CC-PVTZ
    Blend: AUG-CC-PVTZ
  Basis Set: (AUG-CC-PVTZ AUX)
    Blend: AUG-CC-PVTZ-JKFIT

    Orbital Energies [Eh]
    ---------------------

    Doubly Occupied:

       1A    -20.534782     2A    -15.562029     3A    -11.334923
       4A    -11.299759     5A    -11.258393     6A    -11.257110
       7A    -11.256260     8A    -11.250506     9A    -11.249385
      10A    -11.248588    11A    -11.246051    12A    -11.244215
      13A    -11.242768    14A    -11.237771    15A    -11.231095
      16A    -11.227807    17A     -1.370384    18A     -1.245203
      19A     -1.162536    20A     -1.139437    21A     -1.057480
      22A     -1.024797    23A     -1.020392    24A     -1.009998
      25A     -0.930855    26A     -0.891088    27A     -0.846666
      28A     -0.834361    29A     -0.805738    30A     -0.771530
      31A     -0.718893    32A     -0.702107    33A     -0.682213
      34A     -0.657684    35A     -0.644482    36A     -0.633370
      37A     -0.619718    38A     -0.615764    39A     -0.607505
      40A     -0.600938    41A     -0.595156    42A     -0.575181
      43A     -0.545888    44A     -0.543354    45A     -0.530488
      46A     -0.520031    47A     -0.511624    48A     -0.502374
      49A     -0.499758    50A     -0.484298    51A     -0.429521
      52A     -0.420300    53A     -0.348193    54A     -0.343964
      55A     -0.341847    56A     -0.294265

  @DF-RHF Final Energy:  -667.25922397418447

   => Energetics <=

    Nuclear Repulsion Energy =           1002.6165111346551839
    One-Electron Energy =               -2896.2298239213814668
    Two-Electron Energy =                1226.3540888125419315
    Total Energy =                       -667.2592239741843514
  Basis Set: (AUG-CC-PVTZ AUX)
    Blend: AUG-CC-PVTZ-RI
    Molecular point group: c1

    Geometry (in Angstrom), charge = 0, multiplicity = 1:

       Center              X                  Y                   Z               Mass
    ------------   -----------------  -----------------  -----------------  -----------------
         O           -0.038895968489    -1.993688186740    -0.450353026557    15.994914619570
         N            2.483421031511    -1.467867186740     0.410709973443    14.003074004430
         C            0.822352631511     0.169827013260    -0.205090626557    12.000000000000
         C            2.178593031511    -0.167328186740     0.086584973443    12.000000000000
         C           -0.252944968489    -0.782790186740    -0.254709026557    12.000000000000
         C           -1.665546968489    -0.337913186740    -0.052118026557    12.000000000000
         C            0.560403031511     1.552947813260    -0.556021026557    12.000000000000
         C            3.162499031511     0.843207813260     0.124854973443    12.000000000000
         C            1.553765031511     2.524503813260    -0.554587026557    12.000000000000
         C            2.856387031511     2.158603813260    -0.205406026557    12.000000000000
         C           -2.007606968489     0.647420813260     0.886326973443    12.000000000000
         C           -2.675327968489    -1.009136186740    -0.756128026557    12.000000000000
         C           -3.349521968489     0.962611813260     1.104377973443    12.000000000000
         C           -4.011679968489    -0.673167186740    -0.550907026557    12.000000000000
         C            3.853626031511    -1.917131186740     0.538669973443    12.000000000000
         C           -4.351864968489     0.312756813260     0.380433973443    12.000000000000
         H           -0.453388968489     1.820666813260    -0.840180026557     1.007825032230
         H            4.187757031511     0.586191813260     0.371004973443     1.007825032230
         H            1.806153031511    -2.139050186740     0.063708973443     1.007825032230
         H            1.321924031511     3.547694813260    -0.836897026557     1.007825032230
         H            3.646475031511     2.906576813260    -0.185730026557     1.007825032230
         H           -1.228121968489     1.144380813260     1.458061973443     1.007825032230
         H           -2.394517968489    -1.791264186740    -1.456780026557     1.007825032230
         H           -3.613400968489     1.716426813260     1.842396973443     1.007825032230
         H           -4.791105968489    -1.184491186740    -1.110858026557     1.007825032230
         H            4.459238031511    -1.711202186740    -0.355518026557     1.007825032230
         H            3.839741031511    -2.994867186740     0.709342973443     1.007825032230
         H            4.339227031511    -1.447093186740     1.399567973443     1.007825032230
         H           -5.395746968489     0.568590813260     0.546097973443     1.007825032230

  Basis Set: AUG-CC-PVTZ
    Blend: AUG-CC-PVTZ
  Basis Set: (AUG-CC-PVTZ AUX)
    Blend: AUG-CC-PVTZ-JKFIT
	 Reference Energy          =    -667.2592239741844651 [Eh]
	 Singles Energy            =      -0.0000000000000000 [Eh]
	 Same-Spin Energy          =      -0.7348810513399513 [Eh]
	 Opposite-Spin Energy      =      -2.2659027243612724 [Eh]
	 Correlation Energy        =      -3.0007837757012235 [Eh]
	 Total Energy              =    -670.2600077498857445 [Eh]

	 ================> DF-SCS-MP2 Energies <==================
	-----------------------------------------------------------
	 SCS Same-Spin Scale       =       0.3333333333333333 [-]
	 SCS Opposite-Spin Scale   =       1.2000000000000000 [-]
	 SCS Same-Spin Energy      =      -0.2449603504466504 [Eh]
	 SCS Opposite-Spin Energy  =      -2.7190832692335269 [Eh]
	 SCS Correlation Energy    =      -2.9640436196801776 [Eh]
	 SCS Total Energy          =    -670.2232675938646480 [Eh]
	-----------------------------------------------------------

  Dipole Moment: [D]
     X:     0.5118      Y:     1.3226      Z:     0.3587     Total:     1.4628

*** Psi4 exiting successfully. Buy a developer a beer!
