                               Psi4 1.3.2 release

  ==> Input File <==

--------------------------------------------------------------------------
#psi4
#
memory 32 gb

molecule  {
0 1
  O       -0.0649480    -2.0007500    -0.4572220
  N        2.4573690    -1.4749290     0.4038410
  C        0.8569059     0.2229884    -0.2088002
  C        2.1525410    -0.1743900     0.0797160
  C       -0.2789970    -0.7898520    -0.2615780
  C       -1.6915990    -0.3449750    -0.0589870
  C        0.5343510     1.5458860    -0.5628900
  C        3.1364470     0.8361460     0.1179860
  C        1.5277130     2.5174420    -0.5614560
  C        2.8303350     2.1515420    -0.2122750
  C       -2.0336590     0.6403590     0.8794580
  C       -2.7013800    -1.0161980    -0.7629970
  C       -3.3755740     0.9555500     1.0975090
  C       -4.0377320    -0.6802290    -0.5577760
  C        3.8275740    -1.9241930     0.5318010
  C       -4.3779170     0.3056950     0.3735650
  H       -0.4794410     1.8136050    -0.8470490
  H        4.1617050     0.5791300     0.3641360
  H        1.7801010    -2.1461120     0.0568400
  H        1.2958720     3.5406330    -0.8437660
  H        3.6204230     2.8995150    -0.1925990
  H       -1.2541740     1.1373190     1.4511930
  H       -2.4205700    -1.7983260    -1.4636490
  H       -3.6394530     1.7093650     1.8355280
  H       -4.8171580    -1.1915530    -1.1177270
  H        4.4331860    -1.7182640    -0.3623870
  H        3.8136890    -3.0019290     0.7024740
  H        4.3131750    -1.4541550     1.3926990
  H       -5.4217990     0.5615290     0.5392290
units angstrom
no_reorient  #important for SAPT in psi4, default
symmetry c1  #important for SAPT in psi4, default
}

set PROPERTIES_ORIGIN ["COM"]
properties('MP2/aug-cc-pvtz', properties = ['dipole'])
--------------------------------------------------------------------------

    Molecular point group: c1
  Charge       = 0
  Multiplicity = 1
  Basis Set: AUG-CC-PVTZ
    Blend: AUG-CC-PVTZ
  Basis Set: (AUG-CC-PVTZ AUX)
    Blend: AUG-CC-PVTZ-JKFIT

    Orbital Energies [Eh]
    ---------------------

    Doubly Occupied:

       1A    -20.542315     2A    -15.559123     3A    -11.343648
       4A    -11.290252     5A    -11.256024     6A    -11.252535
       7A    -11.251204     8A    -11.250893     9A    -11.250444
      10A    -11.249544    11A    -11.248274    12A    -11.245825
      13A    -11.244453    14A    -11.238119    15A    -11.228997
      16A    -11.225874    17A     -1.373545    18A     -1.244118
      19A     -1.164292    20A     -1.143360    21A     -1.053381
      22A     -1.026382    23A     -1.021575    24A     -1.011236
      25A     -0.927036    26A     -0.885951    27A     -0.844670
      28A     -0.835959    29A     -0.809493    30A     -0.771476
      31A     -0.717766    32A     -0.699104    33A     -0.684043
      34A     -0.655345    35A     -0.645803    36A     -0.633273
      37A     -0.620080    38A     -0.614822    39A     -0.608438
      40A     -0.600399    41A     -0.596501    42A     -0.577519
      43A     -0.544850    44A     -0.541094    45A     -0.529568
      46A     -0.520658    47A     -0.514337    48A     -0.507455
      49A     -0.502037    50A     -0.488062    51A     -0.428272
      52A     -0.416476    53A     -0.349709    54A     -0.345696
      55A     -0.343561    56A     -0.293678

  @DF-RHF Final Energy:  -667.26067239950260

   => Energetics <=

    Nuclear Repulsion Energy =           1002.5143888127461196
    One-Electron Energy =               -2896.0130441105620775
    Two-Electron Energy =                1226.2379828983132484
    Total Energy =                       -667.2606723995027096
  Basis Set: (AUG-CC-PVTZ AUX)
    Blend: AUG-CC-PVTZ-RI
    Molecular point group: c1

    Geometry (in Angstrom), charge = 0, multiplicity = 1:

       Center              X                  Y                   Z               Mass
    ------------   -----------------  -----------------  -----------------  -----------------
         O           -0.042341087320    -1.997111585029    -0.450532623200    15.994914619570
         N            2.479975912680    -1.471290585029     0.410530376800    14.003074004430
         C            0.879512812680     0.226626814971    -0.202110823200    12.000000000000
         C            2.175147912680    -0.170751585029     0.086405376800    12.000000000000
         C           -0.256390087320    -0.786213585029    -0.254888623200    12.000000000000
         C           -1.668992087320    -0.341336585029    -0.052297623200    12.000000000000
         C            0.556957912680     1.549524414971    -0.556200623200    12.000000000000
         C            3.159053912680     0.839784414971     0.124675376800    12.000000000000
         C            1.550319912680     2.521080414971    -0.554766623200    12.000000000000
         C            2.852941912680     2.155180414971    -0.205585623200    12.000000000000
         C           -2.011052087320     0.643997414971     0.886147376800    12.000000000000
         C           -2.678773087320    -1.012559585029    -0.756307623200    12.000000000000
         C           -3.352967087320     0.959188414971     1.104198376800    12.000000000000
         C           -4.015125087320    -0.676590585029    -0.551086623200    12.000000000000
         C            3.850180912680    -1.920554585029     0.538490376800    12.000000000000
         C           -4.355310087320     0.309333414971     0.380254376800    12.000000000000
         H           -0.456834087320     1.817243414971    -0.840359623200     1.007825032230
         H            4.184311912680     0.582768414971     0.370825376800     1.007825032230
         H            1.802707912680    -2.142473585029     0.063529376800     1.007825032230
         H            1.318478912680     3.544271414971    -0.837076623200     1.007825032230
         H            3.643029912680     2.903153414971    -0.185909623200     1.007825032230
         H           -1.231567087320     1.140957414971     1.457882376800     1.007825032230
         H           -2.397963087320    -1.794687585029    -1.456959623200     1.007825032230
         H           -3.616846087320     1.713003414971     1.842217376800     1.007825032230
         H           -4.794551087320    -1.187914585029    -1.111037623200     1.007825032230
         H            4.455792912680    -1.714625585029    -0.355697623200     1.007825032230
         H            3.836295912680    -2.998290585029     0.709163376800     1.007825032230
         H            4.335781912680    -1.450516585029     1.399388376800     1.007825032230
         H           -5.399192087320     0.565167414971     0.545918376800     1.007825032230

  Basis Set: AUG-CC-PVTZ
    Blend: AUG-CC-PVTZ
  Basis Set: (AUG-CC-PVTZ AUX)
    Blend: AUG-CC-PVTZ-JKFIT
	 Reference Energy          =    -667.2606723995025959 [Eh]
	 Singles Energy            =      -0.0000000000000000 [Eh]
	 Same-Spin Energy          =      -0.7344094127508670 [Eh]
	 Opposite-Spin Energy      =      -2.2651501736764037 [Eh]
	 Correlation Energy        =      -2.9995595864272708 [Eh]
	 Total Energy              =    -670.2602319859298632 [Eh]

	 ================> DF-SCS-MP2 Energies <==================
	-----------------------------------------------------------
	 SCS Same-Spin Scale       =       0.3333333333333333 [-]
	 SCS Opposite-Spin Scale   =       1.2000000000000000 [-]
	 SCS Same-Spin Energy      =      -0.2448031375836223 [Eh]
	 SCS Opposite-Spin Energy  =      -2.7181802084116842 [Eh]
	 SCS Correlation Energy    =      -2.9629833459953065 [Eh]
	 SCS Total Energy          =    -670.2236557454979220 [Eh]
	-----------------------------------------------------------

  Dipole Moment: [D]
     X:     0.1185      Y:     1.1733      Z:     0.3236     Total:     1.2228

*** Psi4 exiting successfully. Buy a developer a beer!
