                               Psi4 1.3.2 release

  ==> Input File <==

--------------------------------------------------------------------------
#psi4
#
memory 32 gb

molecule  {
0 1
  O       -0.0224513    -1.9920327    -0.4598538
  N        2.4573690    -1.4749290     0.4038410
  C        0.8099710     0.2105070    -0.2160820
  C        2.1525410    -0.1743900     0.0797160
  C       -0.2789970    -0.7898520    -0.2615780
  C       -1.6915990    -0.3449750    -0.0589870
  C        0.5343510     1.5458860    -0.5628900
  C        3.1364470     0.8361460     0.1179860
  C        1.5277130     2.5174420    -0.5614560
  C        2.8303350     2.1515420    -0.2122750
  C       -2.0336590     0.6403590     0.8794580
  C       -2.7013800    -1.0161980    -0.7629970
  C       -3.3755740     0.9555500     1.0975090
  C       -4.0377320    -0.6802290    -0.5577760
  C        3.8275740    -1.9241930     0.5318010
  C       -4.3779170     0.3056950     0.3735650
  H       -0.4794410     1.8136050    -0.8470490
  H        4.1617050     0.5791300     0.3641360
  H        1.7801010    -2.1461120     0.0568400
  H        1.2958720     3.5406330    -0.8437660
  H        3.6204230     2.8995150    -0.1925990
  H       -1.2541740     1.1373190     1.4511930
  H       -2.4205700    -1.7983260    -1.4636490
  H       -3.6394530     1.7093650     1.8355280
  H       -4.8171580    -1.1915530    -1.1177270
  H        4.4331860    -1.7182640    -0.3623870
  H        3.8136890    -3.0019290     0.7024740
  H        4.3131750    -1.4541550     1.3926990
  H       -5.4217990     0.5615290     0.5392290
units angstrom
no_reorient  #important for SAPT in psi4, default
symmetry c1  #important for SAPT in psi4, default
}

set PROPERTIES_ORIGIN ["COM"]
properties('MP2/aug-cc-pvtz', properties = ['dipole'])
--------------------------------------------------------------------------

    Molecular point group: c1
  Charge       = 0
  Multiplicity = 1
  Basis Set: AUG-CC-PVTZ
    Blend: AUG-CC-PVTZ
  Basis Set: (AUG-CC-PVTZ AUX)
    Blend: AUG-CC-PVTZ-JKFIT

    Orbital Energies [Eh]
    ---------------------

    Doubly Occupied:

       1A    -20.539799     2A    -15.559916     3A    -11.340517
       4A    -11.295973     5A    -11.255932     6A    -11.252959
       7A    -11.251588     8A    -11.251578     9A    -11.251378
      10A    -11.251070    11A    -11.248618    12A    -11.246122
      13A    -11.244723    14A    -11.237042    15A    -11.227936
      16A    -11.224930    17A     -1.373094    18A     -1.242718
      19A     -1.164884    20A     -1.141076    21A     -1.056310
      22A     -1.026669    23A     -1.020859    24A     -1.008918
      25A     -0.928677    26A     -0.888402    27A     -0.845623
      28A     -0.835350    29A     -0.806741    30A     -0.772234
      31A     -0.718222    32A     -0.700317    33A     -0.683986
      34A     -0.654954    35A     -0.646759    36A     -0.633608
      37A     -0.618838    38A     -0.614171    39A     -0.608837
      40A     -0.601140    41A     -0.596978    42A     -0.575981
      43A     -0.545374    44A     -0.541017    45A     -0.530945
      46A     -0.520745    47A     -0.513365    48A     -0.503270
      49A     -0.502139    50A     -0.486550    51A     -0.428152
      52A     -0.418536    53A     -0.350164    54A     -0.346566
      55A     -0.343946    56A     -0.290811

  @DF-RHF Final Energy:  -667.26246648277993

   => Energetics <=

    Nuclear Repulsion Energy =           1002.7634164412427253
    One-Electron Energy =               -2896.5177510493049340
    Two-Electron Energy =                1226.4918681252822807
    Total Energy =                       -667.2624664827799279
  Basis Set: (AUG-CC-PVTZ AUX)
    Blend: AUG-CC-PVTZ-RI
    Molecular point group: c1

    Geometry (in Angstrom), charge = 0, multiplicity = 1:

       Center              X                  Y                   Z               Mass
    ------------   -----------------  -----------------  -----------------  -----------------
         O           -0.000396317428    -1.988345282922    -0.452551077905    15.994914619570
         N            2.479423982572    -1.471241582922     0.411143722095    14.003074004430
         C            0.832025982572     0.214194417078    -0.208779277905    12.000000000000
         C            2.174595982572    -0.170702582922     0.087018722095    12.000000000000
         C           -0.256942017428    -0.786164582922    -0.254275277905    12.000000000000
         C           -1.669544017428    -0.341287582922    -0.051684277905    12.000000000000
         C            0.556405982572     1.549573417078    -0.555587277905    12.000000000000
         C            3.158501982572     0.839833417078     0.125288722095    12.000000000000
         C            1.549767982572     2.521129417078    -0.554153277905    12.000000000000
         C            2.852389982572     2.155229417078    -0.204972277905    12.000000000000
         C           -2.011604017428     0.644046417078     0.886760722095    12.000000000000
         C           -2.679325017428    -1.012510582922    -0.755694277905    12.000000000000
         C           -3.353519017428     0.959237417078     1.104811722095    12.000000000000
         C           -4.015677017428    -0.676541582922    -0.550473277905    12.000000000000
         C            3.849628982572    -1.920505582922     0.539103722095    12.000000000000
         C           -4.355862017428     0.309382417078     0.380867722095    12.000000000000
         H           -0.457386017428     1.817292417078    -0.839746277905     1.007825032230
         H            4.183759982572     0.582817417078     0.371438722095     1.007825032230
         H            1.802155982572    -2.142424582922     0.064142722095     1.007825032230
         H            1.317926982572     3.544320417078    -0.836463277905     1.007825032230
         H            3.642477982572     2.903202417078    -0.185296277905     1.007825032230
         H           -1.232119017428     1.141006417078     1.458495722095     1.007825032230
         H           -2.398515017428    -1.794638582922    -1.456346277905     1.007825032230
         H           -3.617398017428     1.713052417078     1.842830722095     1.007825032230
         H           -4.795103017428    -1.187865582922    -1.110424277905     1.007825032230
         H            4.455240982572    -1.714576582922    -0.355084277905     1.007825032230
         H            3.835743982572    -2.998241582922     0.709776722095     1.007825032230
         H            4.335229982572    -1.450467582922     1.400001722095     1.007825032230
         H           -5.399744017428     0.565216417078     0.546531722095     1.007825032230

  Basis Set: AUG-CC-PVTZ
    Blend: AUG-CC-PVTZ
  Basis Set: (AUG-CC-PVTZ AUX)
    Blend: AUG-CC-PVTZ-JKFIT
	 Reference Energy          =    -667.2624664827799279 [Eh]
	 Singles Energy            =      -0.0000000000000000 [Eh]
	 Same-Spin Energy          =      -0.7347380573901794 [Eh]
	 Opposite-Spin Energy      =      -2.2653821120514239 [Eh]
	 Correlation Energy        =      -3.0001201694416033 [Eh]
	 Total Energy              =    -670.2625866522215574 [Eh]

	 ================> DF-SCS-MP2 Energies <==================
	-----------------------------------------------------------
	 SCS Same-Spin Scale       =       0.3333333333333333 [-]
	 SCS Opposite-Spin Scale   =       1.2000000000000000 [-]
	 SCS Same-Spin Energy      =      -0.2449126857967265 [Eh]
	 SCS Opposite-Spin Energy  =      -2.7184585344617087 [Eh]
	 SCS Correlation Energy    =      -2.9633712202584350 [Eh]
	 SCS Total Energy          =    -670.2258377030383372 [Eh]
	-----------------------------------------------------------

  Dipole Moment: [D]
     X:     0.1295      Y:     1.1752      Z:     0.3567     Total:     1.2350

*** Psi4 exiting successfully. Buy a developer a beer!
