                               Psi4 1.3.2 release

  ==> Input File <==

--------------------------------------------------------------------------
#psi4
#
memory 32 gb

molecule  {
0 1
  O       -0.0649480    -2.0007500    -0.4572220
  N        2.4573690    -1.4749290     0.4038410
  C        0.9032234     0.2373022    -0.2009220
  C        2.1525410    -0.1743900     0.0797160
  C       -0.2789970    -0.7898520    -0.2615780
  C       -1.6915990    -0.3449750    -0.0589870
  C        0.5343510     1.5458860    -0.5628900
  C        3.1364470     0.8361460     0.1179860
  C        1.5277130     2.5174420    -0.5614560
  C        2.8303350     2.1515420    -0.2122750
  C       -2.0336590     0.6403590     0.8794580
  C       -2.7013800    -1.0161980    -0.7629970
  C       -3.3755740     0.9555500     1.0975090
  C       -4.0377320    -0.6802290    -0.5577760
  C        3.8275740    -1.9241930     0.5318010
  C       -4.3779170     0.3056950     0.3735650
  H       -0.4794410     1.8136050    -0.8470490
  H        4.1617050     0.5791300     0.3641360
  H        1.7801010    -2.1461120     0.0568400
  H        1.2958720     3.5406330    -0.8437660
  H        3.6204230     2.8995150    -0.1925990
  H       -1.2541740     1.1373190     1.4511930
  H       -2.4205700    -1.7983260    -1.4636490
  H       -3.6394530     1.7093650     1.8355280
  H       -4.8171580    -1.1915530    -1.1177270
  H        4.4331860    -1.7182640    -0.3623870
  H        3.8136890    -3.0019290     0.7024740
  H        4.3131750    -1.4541550     1.3926990
  H       -5.4217990     0.5615290     0.5392290
units angstrom
no_reorient  #important for SAPT in psi4, default
symmetry c1  #important for SAPT in psi4, default
}

set PROPERTIES_ORIGIN ["COM"]
properties('MP2/aug-cc-pvtz', properties = ['dipole'])
--------------------------------------------------------------------------

    Molecular point group: c1
  Charge       = 0
  Multiplicity = 1
  Basis Set: AUG-CC-PVTZ
    Blend: AUG-CC-PVTZ
  Basis Set: (AUG-CC-PVTZ AUX)
    Blend: AUG-CC-PVTZ-JKFIT

    Orbital Energies [Eh]
    ---------------------

    Doubly Occupied:

       1A    -20.544336     2A    -15.556565     3A    -11.346195
       4A    -11.283152     5A    -11.255072     6A    -11.253477
       7A    -11.252129     8A    -11.251966     9A    -11.249260
      10A    -11.248742    11A    -11.246764    12A    -11.246520
      13A    -11.245175    14A    -11.237564    15A    -11.229406
      16A    -11.226165    17A     -1.374121    18A     -1.244171
      19A     -1.164926    20A     -1.145174    21A     -1.051230
      22A     -1.027111    23A     -1.023098    24A     -1.012244
      25A     -0.924989    26A     -0.883667    27A     -0.843902
      28A     -0.837406    29A     -0.811386    30A     -0.771075
      31A     -0.717441    32A     -0.697419    33A     -0.684521
      34A     -0.654714    35A     -0.646460    36A     -0.633093
      37A     -0.621338    38A     -0.614427    39A     -0.608662
      40A     -0.599808    41A     -0.596143    42A     -0.577038
      43A     -0.544521    44A     -0.540170    45A     -0.528450
      46A     -0.521165    47A     -0.515691    48A     -0.510281
      49A     -0.502529    50A     -0.489366    51A     -0.427465
      52A     -0.412283    53A     -0.349484    54A     -0.346167
      55A     -0.343226    56A     -0.295678

  @DF-RHF Final Energy:  -667.25271431658280

   => Energetics <=

    Nuclear Repulsion Energy =           1002.5526779031739579
    One-Electron Energy =               -2896.0817392377284705
    Two-Electron Energy =                1226.2763470179718297
    Total Energy =                       -667.2527143165827965
  Basis Set: (AUG-CC-PVTZ AUX)
    Blend: AUG-CC-PVTZ-RI
    Molecular point group: c1

    Geometry (in Angstrom), charge = 0, multiplicity = 1:

       Center              X                  Y                   Z               Mass
    ------------   -----------------  -----------------  -----------------  -----------------
         O           -0.044974013672    -1.997925255483    -0.450980460850    15.994914619570
         N            2.477342986328    -1.472104255483     0.410082539150    14.003074004430
         C            0.923197386328     0.240126944517    -0.194680460850    12.000000000000
         C            2.172514986328    -0.171565255483     0.085957539150    12.000000000000
         C           -0.259023013672    -0.787027255483    -0.255336460850    12.000000000000
         C           -1.671625013672    -0.342150255483    -0.052745460850    12.000000000000
         C            0.554324986328     1.548710744517    -0.556648460850    12.000000000000
         C            3.156420986328     0.838970744517     0.124227539150    12.000000000000
         C            1.547686986328     2.520266744517    -0.555214460850    12.000000000000
         C            2.850308986328     2.154366744517    -0.206033460850    12.000000000000
         C           -2.013685013672     0.643183744517     0.885699539150    12.000000000000
         C           -2.681406013672    -1.013373255483    -0.756755460850    12.000000000000
         C           -3.355600013672     0.958374744517     1.103750539150    12.000000000000
         C           -4.017758013672    -0.677404255483    -0.551534460850    12.000000000000
         C            3.847547986328    -1.921368255483     0.538042539150    12.000000000000
         C           -4.357943013672     0.308519744517     0.379806539150    12.000000000000
         H           -0.459467013672     1.816429744517    -0.840807460850     1.007825032230
         H            4.181678986328     0.581954744517     0.370377539150     1.007825032230
         H            1.800074986328    -2.143287255483     0.063081539150     1.007825032230
         H            1.315845986328     3.543457744517    -0.837524460850     1.007825032230
         H            3.640396986328     2.902339744517    -0.186357460850     1.007825032230
         H           -1.234200013672     1.140143744517     1.457434539150     1.007825032230
         H           -2.400596013672    -1.795501255483    -1.457407460850     1.007825032230
         H           -3.619479013672     1.712189744517     1.841769539150     1.007825032230
         H           -4.797184013672    -1.188728255483    -1.111485460850     1.007825032230
         H            4.453159986328    -1.715439255483    -0.356145460850     1.007825032230
         H            3.833662986328    -2.999104255483     0.708715539150     1.007825032230
         H            4.333148986328    -1.451330255483     1.398940539150     1.007825032230
         H           -5.401825013672     0.564353744517     0.545470539150     1.007825032230

  Basis Set: AUG-CC-PVTZ
    Blend: AUG-CC-PVTZ
  Basis Set: (AUG-CC-PVTZ AUX)
    Blend: AUG-CC-PVTZ-JKFIT
	 Reference Energy          =    -667.2527143165827965 [Eh]
	 Singles Energy            =      -0.0000000000000000 [Eh]
	 Same-Spin Energy          =      -0.7343555942961081 [Eh]
	 Opposite-Spin Energy      =      -2.2653652066586600 [Eh]
	 Correlation Energy        =      -2.9997208009547682 [Eh]
	 Total Energy              =    -670.2524351175375159 [Eh]

	 ================> DF-SCS-MP2 Energies <==================
	-----------------------------------------------------------
	 SCS Same-Spin Scale       =       0.3333333333333333 [-]
	 SCS Opposite-Spin Scale   =       1.2000000000000000 [-]
	 SCS Same-Spin Energy      =      -0.2447851980987027 [Eh]
	 SCS Opposite-Spin Energy  =      -2.7184382479903921 [Eh]
	 SCS Correlation Energy    =      -2.9632234460890947 [Eh]
	 SCS Total Energy          =    -670.2159377626718424 [Eh]
	-----------------------------------------------------------

  Dipole Moment: [D]
     X:    -0.0623      Y:     1.1510      Z:     0.3017     Total:     1.1916

*** Psi4 exiting successfully. Buy a developer a beer!
