                               Psi4 1.4a2.dev612

  ==> Input File <==

--------------------------------------------------------------------------
#psi4
#
memory 32 gb

molecule  {
0 1
  O       -0.0649480    -2.0007500    -0.4572220
  N        2.4573690    -1.4749290     0.4038410
  C        0.8099710     0.2105070    -0.2160820
  C        2.1525410    -0.1743900     0.0797160
  C       -0.2508218    -0.7218100    -0.1876710
  C       -1.6915990    -0.3449750    -0.0589870
  C        0.5343510     1.5458860    -0.5628900
  C        3.1364470     0.8361460     0.1179860
  C        1.5277130     2.5174420    -0.5614560
  C        2.8303350     2.1515420    -0.2122750
  C       -2.0336590     0.6403590     0.8794580
  C       -2.7013800    -1.0161980    -0.7629970
  C       -3.3755740     0.9555500     1.0975090
  C       -4.0377320    -0.6802290    -0.5577760
  C        3.8275740    -1.9241930     0.5318010
  C       -4.3779170     0.3056950     0.3735650
  H       -0.4794410     1.8136050    -0.8470490
  H        4.1617050     0.5791300     0.3641360
  H        1.7801010    -2.1461120     0.0568400
  H        1.2958720     3.5406330    -0.8437660
  H        3.6204230     2.8995150    -0.1925990
  H       -1.2541740     1.1373190     1.4511930
  H       -2.4205700    -1.7983260    -1.4636490
  H       -3.6394530     1.7093650     1.8355280
  H       -4.8171580    -1.1915530    -1.1177270
  H        4.4331860    -1.7182640    -0.3623870
  H        3.8136890    -3.0019290     0.7024740
  H        4.3131750    -1.4541550     1.3926990
  H       -5.4217990     0.5615290     0.5392290
units angstrom
no_reorient  #important for SAPT in psi4, default
symmetry c1  #important for SAPT in psi4, default
}

set PROPERTIES_ORIGIN ["COM"]
properties('MP2/aug-cc-pvtz', properties = ['dipole'])
--------------------------------------------------------------------------

    Molecular point group: c1
  Charge       = 0
  Multiplicity = 1
  Basis Set: AUG-CC-PVTZ
    Blend: AUG-CC-PVTZ
  Basis Set: (AUG-CC-PVTZ AUX)
    Blend: AUG-CC-PVTZ-JKFIT

    Orbital Energies [Eh]
    ---------------------

    Doubly Occupied:

       1A    -20.526721     2A    -15.564525     3A    -11.339634
       4A    -11.303421     5A    -11.258937     6A    -11.258505
       7A    -11.258227     8A    -11.251081     9A    -11.249730
      10A    -11.249283    11A    -11.247161    12A    -11.243712
      13A    -11.243163    14A    -11.238461    15A    -11.232585
      16A    -11.229575    17A     -1.324292    18A     -1.245808
      19A     -1.162950    20A     -1.147529    21A     -1.063390
      22A     -1.025660    23A     -1.022601    24A     -1.014106
      25A     -0.933793    26A     -0.894942    27A     -0.846641
      28A     -0.835181    29A     -0.811493    30A     -0.773185
      31A     -0.719477    32A     -0.703570    33A     -0.683166
      34A     -0.657267    35A     -0.639459    36A     -0.633674
      37A     -0.620123    38A     -0.617049    39A     -0.604838
      40A     -0.597498    41A     -0.594624    42A     -0.572382
      43A     -0.545029    44A     -0.538207    45A     -0.529856
      46A     -0.519215    47A     -0.512215    48A     -0.504432
      49A     -0.498306    50A     -0.470875    51A     -0.431776
      52A     -0.418589    53A     -0.352852    54A     -0.344074
      55A     -0.341725    56A     -0.295658

  @DF-RHF Final Energy:  -667.24389036795901

   => Energetics <=

    Nuclear Repulsion Energy =           1002.7014184770931706
    One-Electron Energy =               -2896.4061658319888011
    Two-Electron Energy =                1226.4608569869365056
    Total Energy =                       -667.2438903679590112
  Basis Set: (AUG-CC-PVTZ AUX)
    Blend: AUG-CC-PVTZ-RI
    Molecular point group: c1

    Geometry (in Angstrom), charge = 0, multiplicity = 1:

       Center              X                  Y                   Z               Mass
    ------------   -----------------  -----------------  -----------------  -----------------
         O           -0.041274688907    -2.000269937010    -0.454319944294    15.994914619570
         N            2.481042311093    -1.474448937010     0.406743055706    14.003074004430
         C            0.833644311093     0.210987062990    -0.213179944294    12.000000000000
         C            2.176214311093    -0.173909937010     0.082618055706    12.000000000000
         C           -0.227148488907    -0.721329937010    -0.184768944294    12.000000000000
         C           -1.667925688907    -0.344494937010    -0.056084944294    12.000000000000
         C            0.558024311093     1.546366062990    -0.559987944294    12.000000000000
         C            3.160120311093     0.836626062990     0.120888055706    12.000000000000
         C            1.551386311093     2.517922062990    -0.558553944294    12.000000000000
         C            2.854008311093     2.152022062990    -0.209372944294    12.000000000000
         C           -2.009985688907     0.640839062990     0.882360055706    12.000000000000
         C           -2.677706688907    -1.015717937010    -0.760094944294    12.000000000000
         C           -3.351900688907     0.956030062990     1.100411055706    12.000000000000
         C           -4.014058688907    -0.679748937010    -0.554873944294    12.000000000000
         C            3.851247311093    -1.923712937010     0.534703055706    12.000000000000
         C           -4.354243688907     0.306175062990     0.376467055706    12.000000000000
         H           -0.455767688907     1.814085062990    -0.844146944294     1.007825032230
         H            4.185378311093     0.579610062990     0.367038055706     1.007825032230
         H            1.803774311093    -2.145631937010     0.059742055706     1.007825032230
         H            1.319545311093     3.541113062990    -0.840863944294     1.007825032230
         H            3.644096311093     2.899995062990    -0.189696944294     1.007825032230
         H           -1.230500688907     1.137799062990     1.454095055706     1.007825032230
         H           -2.396896688907    -1.797845937010    -1.460746944294     1.007825032230
         H           -3.615779688907     1.709845062990     1.838430055706     1.007825032230
         H           -4.793484688907    -1.191072937010    -1.114824944294     1.007825032230
         H            4.456859311093    -1.717783937010    -0.359484944294     1.007825032230
         H            3.837362311093    -3.001448937010     0.705376055706     1.007825032230
         H            4.336848311093    -1.453674937010     1.395601055706     1.007825032230
         H           -5.398125688907     0.562009062990     0.542131055706     1.007825032230

  Basis Set: AUG-CC-PVTZ
    Blend: AUG-CC-PVTZ
  Basis Set: (AUG-CC-PVTZ AUX)
    Blend: AUG-CC-PVTZ-JKFIT
	 Reference Energy          =    -667.2438903679590112 [Eh]
	 Singles Energy            =      -0.0000000000000000 [Eh]
	 Same-Spin Energy          =      -0.7372436033645187 [Eh]
	 Opposite-Spin Energy      =      -2.2704280984634972 [Eh]
	 Correlation Energy        =      -3.0076717018280159 [Eh]
	 Total Energy              =    -670.2515620697870418 [Eh]

	 ================> DF-SCS-MP2 Energies <==================
	-----------------------------------------------------------
	 SCS Same-Spin Scale       =       0.3333333333333333 [-]
	 SCS Opposite-Spin Scale   =       1.2000000000000000 [-]
	 SCS Same-Spin Energy      =      -0.2457478677881729 [Eh]
	 SCS Opposite-Spin Energy  =      -2.7245137181561967 [Eh]
	 SCS Correlation Energy    =      -2.9702615859443697 [Eh]
	 SCS Total Energy          =    -670.2141519539034107 [Eh]
	-----------------------------------------------------------

  Dipole Moment: [D]
     X:     0.6946      Y:     1.5580      Z:     0.4146     Total:     1.7555

*** Psi4 exiting successfully. Buy a developer a beer!
