                               Psi4 1.4a3.dev225

  ==> Input File <==

--------------------------------------------------------------------------
#psi4
#
memory 32 gb

molecule  {
0 1
  O       -0.0649480    -2.0007500    -0.4572220
  N        2.4573690    -1.4749290     0.4038410
  C        0.8099710     0.2105070    -0.2160820
  C        2.1525410    -0.1743900     0.0797160
  C       -0.2789970    -0.7898520    -0.2615780
  C       -1.6915990    -0.3449750    -0.0589870
  C        0.5343510     1.5458860    -0.5628900
  C        3.1364470     0.8361460     0.1179860
  C        1.5277130     2.5174420    -0.5614560
  C        2.8303350     2.1515420    -0.2122750
  C       -2.0336590     0.6403590     0.8794580
  C       -2.7013800    -1.0161980    -0.7629970
  C       -3.3755740     0.9555500     1.0975090
  C       -4.0377320    -0.6802290    -0.5577760
  C        3.8748993    -1.9397101     0.5362206
  C       -4.3779170     0.3056950     0.3735650
  H       -0.4794410     1.8136050    -0.8470490
  H        4.1617050     0.5791300     0.3641360
  H        1.7801010    -2.1461120     0.0568400
  H        1.2958720     3.5406330    -0.8437660
  H        3.6204230     2.8995150    -0.1925990
  H       -1.2541740     1.1373190     1.4511930
  H       -2.4205700    -1.7983260    -1.4636490
  H       -3.6394530     1.7093650     1.8355280
  H       -4.8171580    -1.1915530    -1.1177270
  H        4.4331860    -1.7182640    -0.3623870
  H        3.8136890    -3.0019290     0.7024740
  H        4.3131750    -1.4541550     1.3926990
  H       -5.4217990     0.5615290     0.5392290
units angstrom
no_reorient  #important for SAPT in psi4, default
symmetry c1  #important for SAPT in psi4, default
}

set PROPERTIES_ORIGIN ["COM"]
properties('MP2/aug-cc-pvtz', properties = ['dipole'])
--------------------------------------------------------------------------

    Molecular point group: c1
  Charge       = 0
  Multiplicity = 1
  Basis Set: AUG-CC-PVTZ
    Blend: AUG-CC-PVTZ
  Basis Set: (AUG-CC-PVTZ AUX)
    Blend: AUG-CC-PVTZ-JKFIT

    Orbital Energies [Eh]
    ---------------------

    Doubly Occupied:

       1A    -20.538684     2A    -15.561203     3A    -11.339124
       4A    -11.296322     5A    -11.257713     6A    -11.251982
       7A    -11.251825     8A    -11.250797     9A    -11.249704
      10A    -11.248695    11A    -11.246441    12A    -11.244448
      13A    -11.243039    14A    -11.237213    15A    -11.227936
      16A    -11.224701    17A     -1.371434    18A     -1.235487
      19A     -1.162831    20A     -1.139286    21A     -1.055303
      22A     -1.024896    23A     -1.019740    24A     -1.007536
      25A     -0.933051    26A     -0.888211    27A     -0.844379
      28A     -0.834078    29A     -0.806840    30A     -0.770292
      31A     -0.716835    32A     -0.699426    33A     -0.680992
      34A     -0.652995    35A     -0.642989    36A     -0.632239
      37A     -0.619169    38A     -0.616825    39A     -0.606149
      40A     -0.600322    41A     -0.595606    42A     -0.570123
      43A     -0.551814    44A     -0.545514    45A     -0.530464
      46A     -0.520754    47A     -0.513126    48A     -0.502268
      49A     -0.500602    50A     -0.486319    51A     -0.431364
      52A     -0.418017    53A     -0.349861    54A     -0.344538
      55A     -0.342687    56A     -0.290621

  @DF-RHF Final Energy:  -667.26080897474424

   => Energetics <=

    Nuclear Repulsion Energy =           1001.4885513931877767
    One-Electron Energy =               -2894.0490950143384907
    Two-Electron Energy =                1225.2997346464064776
    Total Energy =                       -667.2608089747443501
  Basis Set: (AUG-CC-PVTZ AUX)
    Blend: AUG-CC-PVTZ-RI
    Molecular point group: c1

    Geometry (in Angstrom), charge = 0, multiplicity = 1:

       Center              X                  Y                   Z               Mass
    ------------   -----------------  -----------------  -----------------  -----------------
         O           -0.042363279675    -1.995520005422    -0.450369920942    15.994914619570
         N            2.479953720325    -1.469699005422     0.410693079058    14.003074004430
         C            0.832555720325     0.215736994578    -0.209229920942    12.000000000000
         C            2.175125720325    -0.169160005422     0.086568079058    12.000000000000
         C           -0.256412279675    -0.784622005422    -0.254725920942    12.000000000000
         C           -1.669014279675    -0.339745005422    -0.052134920942    12.000000000000
         C            0.556935720325     1.551115994578    -0.556037920942    12.000000000000
         C            3.159031720325     0.841375994578     0.124838079058    12.000000000000
         C            1.550297720325     2.522671994578    -0.554603920942    12.000000000000
         C            2.852919720325     2.156771994578    -0.205422920942    12.000000000000
         C           -2.011074279675     0.645588994578     0.886310079058    12.000000000000
         C           -2.678795279675    -1.010968005422    -0.756144920942    12.000000000000
         C           -3.352989279675     0.960779994578     1.104361079058    12.000000000000
         C           -4.015147279675    -0.674999005422    -0.550923920942    12.000000000000
         C            3.897484020325    -1.934480105422     0.543072679058    12.000000000000
         C           -4.355332279675     0.310924994578     0.380417079058    12.000000000000
         H           -0.456856279675     1.818834994578    -0.840196920942     1.007825032230
         H            4.184289720325     0.584359994578     0.370988079058     1.007825032230
         H            1.802685720325    -2.140882005422     0.063692079058     1.007825032230
         H            1.318456720325     3.545862994578    -0.836913920942     1.007825032230
         H            3.643007720325     2.904744994578    -0.185746920942     1.007825032230
         H           -1.231589279675     1.142548994578     1.458045079058     1.007825032230
         H           -2.397985279675    -1.793096005422    -1.456796920942     1.007825032230
         H           -3.616868279675     1.714594994578     1.842380079058     1.007825032230
         H           -4.794573279675    -1.186323005422    -1.110874920942     1.007825032230
         H            4.455770720325    -1.713034005422    -0.355534920942     1.007825032230
         H            3.836273720325    -2.996699005422     0.709326079058     1.007825032230
         H            4.335759720325    -1.448925005422     1.399551079058     1.007825032230
         H           -5.399214279675     0.566758994578     0.546081079058     1.007825032230

  Basis Set: AUG-CC-PVTZ
    Blend: AUG-CC-PVTZ
  Basis Set: (AUG-CC-PVTZ AUX)
    Blend: AUG-CC-PVTZ-JKFIT
	 Reference Energy          =    -667.2608089747442364 [Eh]
	 Singles Energy            =      -0.0000000000000000 [Eh]
	 Same-Spin Energy          =      -0.7343851635512630 [Eh]
	 Opposite-Spin Energy      =      -2.2654930736386820 [Eh]
	 Correlation Energy        =      -2.9998782371899448 [Eh]
	 Total Energy              =    -670.2606872119341688 [Eh]

	 ================> DF-SCS-MP2 Energies <==================
	-----------------------------------------------------------
	 SCS Same-Spin Scale       =       0.3333333333333333 [-]
	 SCS Opposite-Spin Scale   =       1.2000000000000000 [-]
	 SCS Same-Spin Energy      =      -0.2447950545170877 [Eh]
	 SCS Opposite-Spin Energy  =      -2.7185916883664185 [Eh]
	 SCS Correlation Energy    =      -2.9633867428835061 [Eh]
	 SCS Total Energy          =    -670.2241957176277083 [Eh]
	-----------------------------------------------------------

  Dipole Moment: [D]
     X:     0.4943      Y:     1.1115      Z:     0.3626     Total:     1.2693

*** Psi4 exiting successfully. Buy a developer a beer!
