                               Psi4 1.3.2 release

  ==> Input File <==

--------------------------------------------------------------------------
#psi4
#
memory 32 gb

molecule  {
0 1
  O       -0.0649480    -2.0007500    -0.4572220
  N        2.4573690    -1.4749290     0.4038410
  C        0.8099710     0.2105070    -0.2160820
  C        2.1525410    -0.1743900     0.0797160
  C       -0.2961878    -0.6926019    -0.2458654
  C       -1.6915990    -0.3449750    -0.0589870
  C        0.5343510     1.5458860    -0.5628900
  C        3.1364470     0.8361460     0.1179860
  C        1.5277130     2.5174420    -0.5614560
  C        2.8303350     2.1515420    -0.2122750
  C       -2.0336590     0.6403590     0.8794580
  C       -2.7013800    -1.0161980    -0.7629970
  C       -3.3755740     0.9555500     1.0975090
  C       -4.0377320    -0.6802290    -0.5577760
  C        3.8275740    -1.9241930     0.5318010
  C       -4.3779170     0.3056950     0.3735650
  H       -0.4794410     1.8136050    -0.8470490
  H        4.1617050     0.5791300     0.3641360
  H        1.7801010    -2.1461120     0.0568400
  H        1.2958720     3.5406330    -0.8437660
  H        3.6204230     2.8995150    -0.1925990
  H       -1.2541740     1.1373190     1.4511930
  H       -2.4205700    -1.7983260    -1.4636490
  H       -3.6394530     1.7093650     1.8355280
  H       -4.8171580    -1.1915530    -1.1177270
  H        4.4331860    -1.7182640    -0.3623870
  H        3.8136890    -3.0019290     0.7024740
  H        4.3131750    -1.4541550     1.3926990
  H       -5.4217990     0.5615290     0.5392290
units angstrom
no_reorient  #important for SAPT in psi4, default
symmetry c1  #important for SAPT in psi4, default
}

set PROPERTIES_ORIGIN ["COM"]
properties('MP2/aug-cc-pvtz', properties = ['dipole'])
--------------------------------------------------------------------------

    Molecular point group: c1
  Charge       = 0
  Multiplicity = 1
  Basis Set: AUG-CC-PVTZ
    Blend: AUG-CC-PVTZ
  Basis Set: (AUG-CC-PVTZ AUX)
    Blend: AUG-CC-PVTZ-JKFIT

    Orbital Energies [Eh]
    ---------------------

    Doubly Occupied:

       1A    -20.522596     2A    -15.562923     3A    -11.339726
       4A    -11.303186     5A    -11.257810     6A    -11.257266
       7A    -11.256412     8A    -11.253523     9A    -11.252976
      10A    -11.250985    11A    -11.249744    12A    -11.246055
      13A    -11.245004    14A    -11.239771    15A    -11.231931
      16A    -11.228205    17A     -1.310580    18A     -1.243457
      19A     -1.166119    20A     -1.146687    21A     -1.064911
      22A     -1.029025    23A     -1.024649    24A     -1.012904
      25A     -0.933176    26A     -0.895686    27A     -0.849996
      28A     -0.837622    29A     -0.811141    30A     -0.773638
      31A     -0.721933    32A     -0.701584    33A     -0.682883
      34A     -0.658976    35A     -0.641698    36A     -0.633417
      37A     -0.620056    38A     -0.615907    39A     -0.605421
      40A     -0.598123    41A     -0.594720    42A     -0.566735
      43A     -0.542656    44A     -0.536134    45A     -0.527696
      46A     -0.520429    47A     -0.515219    48A     -0.504528
      49A     -0.498699    50A     -0.465388    51A     -0.430439
      52A     -0.418736    53A     -0.352628    54A     -0.345291
      55A     -0.343373    56A     -0.294165

  @DF-RHF Final Energy:  -667.23910084497334

   => Energetics <=

    Nuclear Repulsion Energy =           1002.6256093086227565
    One-Electron Energy =               -2896.2603391195211771
    Two-Electron Energy =                1226.3956289659251979
    Total Energy =                       -667.2391008449733363
  Basis Set: (AUG-CC-PVTZ AUX)
    Blend: AUG-CC-PVTZ-RI
    Molecular point group: c1

    Geometry (in Angstrom), charge = 0, multiplicity = 1:

       Center              X                  Y                   Z               Mass
    ------------   -----------------  -----------------  -----------------  -----------------
         O           -0.038695850738    -2.001930276540    -0.451011873494    15.994914619570
         N            2.483621149262    -1.476109276540     0.410051126506    14.003074004430
         C            0.836223149262     0.209326723460    -0.209871873494    12.000000000000
         C            2.178793149262    -0.175570276540     0.085926126506    12.000000000000
         C           -0.269935650738    -0.693782176540    -0.239655273494    12.000000000000
         C           -1.665346850738    -0.346155276540    -0.052776873494    12.000000000000
         C            0.560603149262     1.544705723460    -0.556679873494    12.000000000000
         C            3.162699149262     0.834965723460     0.124196126506    12.000000000000
         C            1.553965149262     2.516261723460    -0.555245873494    12.000000000000
         C            2.856587149262     2.150361723460    -0.206064873494    12.000000000000
         C           -2.007406850738     0.639178723460     0.885668126506    12.000000000000
         C           -2.675127850738    -1.017378276540    -0.756786873494    12.000000000000
         C           -3.349321850738     0.954369723460     1.103719126506    12.000000000000
         C           -4.011479850738    -0.681409276540    -0.551565873494    12.000000000000
         C            3.853826149262    -1.925373276540     0.538011126506    12.000000000000
         C           -4.351664850738     0.304514723460     0.379775126506    12.000000000000
         H           -0.453188850738     1.812424723460    -0.840838873494     1.007825032230
         H            4.187957149262     0.577949723460     0.370346126506     1.007825032230
         H            1.806353149262    -2.147292276540     0.063050126506     1.007825032230
         H            1.322124149262     3.539452723460    -0.837555873494     1.007825032230
         H            3.646675149262     2.898334723460    -0.186388873494     1.007825032230
         H           -1.227921850738     1.136138723460     1.457403126506     1.007825032230
         H           -2.394317850738    -1.799506276540    -1.457438873494     1.007825032230
         H           -3.613200850738     1.708184723460     1.841738126506     1.007825032230
         H           -4.790905850738    -1.192733276540    -1.111516873494     1.007825032230
         H            4.459438149262    -1.719444276540    -0.356176873494     1.007825032230
         H            3.839941149262    -3.003109276540     0.708684126506     1.007825032230
         H            4.339427149262    -1.455335276540     1.398909126506     1.007825032230
         H           -5.395546850738     0.560348723460     0.545439126506     1.007825032230

  Basis Set: AUG-CC-PVTZ
    Blend: AUG-CC-PVTZ
  Basis Set: (AUG-CC-PVTZ AUX)
    Blend: AUG-CC-PVTZ-JKFIT
	 Reference Energy          =    -667.2391008449733363 [Eh]
	 Singles Energy            =      -0.0000000000000000 [Eh]
	 Same-Spin Energy          =      -0.7381419411343810 [Eh]
	 Opposite-Spin Energy      =      -2.2720187090945680 [Eh]
	 Correlation Energy        =      -3.0101606502289489 [Eh]
	 Total Energy              =    -670.2492614952022905 [Eh]

	 ================> DF-SCS-MP2 Energies <==================
	-----------------------------------------------------------
	 SCS Same-Spin Scale       =       0.3333333333333333 [-]
	 SCS Opposite-Spin Scale   =       1.2000000000000000 [-]
	 SCS Same-Spin Energy      =      -0.2460473137114603 [Eh]
	 SCS Opposite-Spin Energy  =      -2.7264224509134816 [Eh]
	 SCS Correlation Energy    =      -2.9724697646249418 [Eh]
	 SCS Total Energy          =    -670.2115706095983114 [Eh]
	-----------------------------------------------------------

  Dipole Moment: [D]
     X:     0.4265      Y:     1.6075      Z:     0.4259     Total:     1.7168

*** Psi4 exiting successfully. Buy a developer a beer!
