                               Psi4 1.4a2.dev612

  ==> Input File <==

--------------------------------------------------------------------------
#psi4
#
memory 32 gb

molecule  {
0 1
  O       -0.0649480    -2.0007500    -0.4572220
  N        2.4573690    -1.4749290     0.4038410
  C        0.8099710     0.2105070    -0.2160820
  C        2.1525410    -0.1743900     0.0797160
  C       -0.2789970    -0.7898520    -0.2615780
  C       -1.7861006    -0.3152132    -0.0454339
  C        0.5343510     1.5458860    -0.5628900
  C        3.1364470     0.8361460     0.1179860
  C        1.5277130     2.5174420    -0.5614560
  C        2.8303350     2.1515420    -0.2122750
  C       -2.0336590     0.6403590     0.8794580
  C       -2.7013800    -1.0161980    -0.7629970
  C       -3.3755740     0.9555500     1.0975090
  C       -4.0377320    -0.6802290    -0.5577760
  C        3.8275740    -1.9241930     0.5318010
  C       -4.3779170     0.3056950     0.3735650
  H       -0.4794410     1.8136050    -0.8470490
  H        4.1617050     0.5791300     0.3641360
  H        1.7801010    -2.1461120     0.0568400
  H        1.2958720     3.5406330    -0.8437660
  H        3.6204230     2.8995150    -0.1925990
  H       -1.2541740     1.1373190     1.4511930
  H       -2.4205700    -1.7983260    -1.4636490
  H       -3.6394530     1.7093650     1.8355280
  H       -4.8171580    -1.1915530    -1.1177270
  H        4.4331860    -1.7182640    -0.3623870
  H        3.8136890    -3.0019290     0.7024740
  H        4.3131750    -1.4541550     1.3926990
  H       -5.4217990     0.5615290     0.5392290
units angstrom
no_reorient  #important for SAPT in psi4, default
symmetry c1  #important for SAPT in psi4, default
}

set PROPERTIES_ORIGIN ["COM"]
properties('MP2/aug-cc-pvtz', properties = ['dipole'])
--------------------------------------------------------------------------

    Molecular point group: c1
  Charge       = 0
  Multiplicity = 1
  Basis Set: AUG-CC-PVTZ
    Blend: AUG-CC-PVTZ
  Basis Set: (AUG-CC-PVTZ AUX)
    Blend: AUG-CC-PVTZ-JKFIT

    Orbital Energies [Eh]
    ---------------------

    Doubly Occupied:

       1A    -20.542420     2A    -15.562348     3A    -11.343994
       4A    -11.297665     5A    -11.257424     6A    -11.253023
       7A    -11.252997     8A    -11.246800     9A    -11.245690
      10A    -11.244274    11A    -11.242960    12A    -11.242231
      13A    -11.239113    14A    -11.239056    15A    -11.229240
      16A    -11.226236    17A     -1.371560    18A     -1.244795
      19A     -1.171732    20A     -1.142551    21A     -1.051265
      22A     -1.028676    23A     -1.022535    24A     -1.010348
      25A     -0.928979    26A     -0.881542    27A     -0.842338
      28A     -0.835396    29A     -0.808188    30A     -0.771953
      31A     -0.717598    32A     -0.701494    33A     -0.680978
      34A     -0.654858    35A     -0.641036    36A     -0.635908
      37A     -0.619699    38A     -0.615405    39A     -0.606531
      40A     -0.603659    41A     -0.597652    42A     -0.577882
      43A     -0.544427    44A     -0.542421    45A     -0.531008
      46A     -0.519490    47A     -0.511644    48A     -0.509791
      49A     -0.503727    50A     -0.488787    51A     -0.429584
      52A     -0.408888    53A     -0.351541    54A     -0.348257
      55A     -0.343902    56A     -0.292573

  @DF-RHF Final Energy:  -667.25359187305969

   => Energetics <=

    Nuclear Repulsion Energy =           1002.2860090841709280
    One-Electron Energy =               -2895.5670701800713687
    Two-Electron Energy =                1226.0274692228408639
    Total Energy =                       -667.2535918730595768
  Basis Set: (AUG-CC-PVTZ AUX)
    Blend: AUG-CC-PVTZ-RI
    Molecular point group: c1

    Geometry (in Angstrom), charge = 0, multiplicity = 1:

       Center              X                  Y                   Z               Mass
    ------------   -----------------  -----------------  -----------------  -----------------
         O           -0.034301104851    -1.998093892376    -0.450889116340    15.994914619570
         N            2.488015895149    -1.472272892376     0.410173883660    14.003074004430
         C            0.840617895149     0.213163107624    -0.209749116340    12.000000000000
         C            2.183187895149    -0.171733892376     0.086048883660    12.000000000000
         C           -0.248350104851    -0.787195892376    -0.255245116340    12.000000000000
         C           -1.755453704851    -0.312557092376    -0.039101016340    12.000000000000
         C            0.564997895149     1.548542107624    -0.556557116340    12.000000000000
         C            3.167093895149     0.838802107624     0.124318883660    12.000000000000
         C            1.558359895149     2.520098107624    -0.555123116340    12.000000000000
         C            2.860981895149     2.154198107624    -0.205942116340    12.000000000000
         C           -2.003012104851     0.643015107624     0.885790883660    12.000000000000
         C           -2.670733104851    -1.013541892376    -0.756664116340    12.000000000000
         C           -3.344927104851     0.958206107624     1.103841883660    12.000000000000
         C           -4.007085104851    -0.677572892376    -0.551443116340    12.000000000000
         C            3.858220895149    -1.921536892376     0.538133883660    12.000000000000
         C           -4.347270104851     0.308351107624     0.379897883660    12.000000000000
         H           -0.448794104851     1.816261107624    -0.840716116340     1.007825032230
         H            4.192351895149     0.581786107624     0.370468883660     1.007825032230
         H            1.810747895149    -2.143455892376     0.063172883660     1.007825032230
         H            1.326518895149     3.543289107624    -0.837433116340     1.007825032230
         H            3.651069895149     2.902171107624    -0.186266116340     1.007825032230
         H           -1.223527104851     1.139975107624     1.457525883660     1.007825032230
         H           -2.389923104851    -1.795669892376    -1.457316116340     1.007825032230
         H           -3.608806104851     1.712021107624     1.841860883660     1.007825032230
         H           -4.786511104851    -1.188896892376    -1.111394116340     1.007825032230
         H            4.463832895149    -1.715607892376    -0.356054116340     1.007825032230
         H            3.844335895149    -2.999272892376     0.708806883660     1.007825032230
         H            4.343821895149    -1.451498892376     1.399031883660     1.007825032230
         H           -5.391152104851     0.564185107624     0.545561883660     1.007825032230

  Basis Set: AUG-CC-PVTZ
    Blend: AUG-CC-PVTZ
  Basis Set: (AUG-CC-PVTZ AUX)
    Blend: AUG-CC-PVTZ-JKFIT
	 Reference Energy          =    -667.2535918730596904 [Eh]
	 Singles Energy            =      -0.0000000000000000 [Eh]
	 Same-Spin Energy          =      -0.7343182572536755 [Eh]
	 Opposite-Spin Energy      =      -2.2647753444471688 [Eh]
	 Correlation Energy        =      -2.9990936017008440 [Eh]
	 Total Energy              =    -670.2526854747604830 [Eh]

	 ================> DF-SCS-MP2 Energies <==================
	-----------------------------------------------------------
	 SCS Same-Spin Scale       =       0.3333333333333333 [-]
	 SCS Opposite-Spin Scale   =       1.2000000000000000 [-]
	 SCS Same-Spin Energy      =      -0.2447727524178918 [Eh]
	 SCS Opposite-Spin Energy  =      -2.7177304133366023 [Eh]
	 SCS Correlation Energy    =      -2.9625031657544940 [Eh]
	 SCS Total Energy          =    -670.2160950388141600 [Eh]
	-----------------------------------------------------------

  Dipole Moment: [D]
     X:     0.5271      Y:     1.1430      Z:     0.3154     Total:     1.2976

*** Psi4 exiting successfully. Buy a developer a beer!
