                               Psi4 1.3.2 release

  ==> Input File <==

--------------------------------------------------------------------------
#psi4
#
memory 32 gb

molecule  {
0 1
  O       -0.0649480    -2.0007500    -0.4572220
  N        2.4573690    -1.4749290     0.4038410
  C        0.8099710     0.2105070    -0.2160820
  C        2.1188560    -0.2668262     0.0955418
  C       -0.2789970    -0.7898520    -0.2615780
  C       -1.6915990    -0.3449750    -0.0589870
  C        0.5343510     1.5458860    -0.5628900
  C        3.1364470     0.8361460     0.1179860
  C        1.5277130     2.5174420    -0.5614560
  C        2.8303350     2.1515420    -0.2122750
  C       -2.0336590     0.6403590     0.8794580
  C       -2.7013800    -1.0161980    -0.7629970
  C       -3.3755740     0.9555500     1.0975090
  C       -4.0377320    -0.6802290    -0.5577760
  C        3.8275740    -1.9241930     0.5318010
  C       -4.3779170     0.3056950     0.3735650
  H       -0.4794410     1.8136050    -0.8470490
  H        4.1617050     0.5791300     0.3641360
  H        1.7801010    -2.1461120     0.0568400
  H        1.2958720     3.5406330    -0.8437660
  H        3.6204230     2.8995150    -0.1925990
  H       -1.2541740     1.1373190     1.4511930
  H       -2.4205700    -1.7983260    -1.4636490
  H       -3.6394530     1.7093650     1.8355280
  H       -4.8171580    -1.1915530    -1.1177270
  H        4.4331860    -1.7182640    -0.3623870
  H        3.8136890    -3.0019290     0.7024740
  H        4.3131750    -1.4541550     1.3926990
  H       -5.4217990     0.5615290     0.5392290
units angstrom
no_reorient  #important for SAPT in psi4, default
symmetry c1  #important for SAPT in psi4, default
}

set PROPERTIES_ORIGIN ["COM"]
properties('MP2/aug-cc-pvtz', properties = ['dipole'])
--------------------------------------------------------------------------

    Molecular point group: c1
  Charge       = 0
  Multiplicity = 1
  Basis Set: AUG-CC-PVTZ
    Blend: AUG-CC-PVTZ
  Basis Set: (AUG-CC-PVTZ AUX)
    Blend: AUG-CC-PVTZ-JKFIT

    Orbital Energies [Eh]
    ---------------------

    Doubly Occupied:

       1A    -20.536592     2A    -15.576386     3A    -11.335479
       4A    -11.304419     5A    -11.268379     6A    -11.249589
       7A    -11.249225     8A    -11.248404     9A    -11.248351
      10A    -11.246588    11A    -11.244882    12A    -11.243201
      13A    -11.241804    14A    -11.232966    15A    -11.232575
      16A    -11.219363    17A     -1.371035    18A     -1.279361
      19A     -1.161317    20A     -1.135514    21A     -1.052232
      22A     -1.023936    23A     -1.020106    24A     -1.002315
      25A     -0.943589    26A     -0.883215    27A     -0.842714
      28A     -0.832549    29A     -0.808221    30A     -0.771543
      31A     -0.716937    32A     -0.706746    33A     -0.686841
      34A     -0.659249    35A     -0.643737    36A     -0.634650
      37A     -0.628339    38A     -0.617038    39A     -0.609254
      40A     -0.595510    41A     -0.593676    42A     -0.577108
      43A     -0.551532    44A     -0.543711    45A     -0.528757
      46A     -0.517785    47A     -0.511985    48A     -0.499569
      49A     -0.497030    50A     -0.485957    51A     -0.443567
      52A     -0.412439    53A     -0.347841    54A     -0.343495
      55A     -0.341212    56A     -0.282062

  @DF-RHF Final Energy:  -667.25053657000774

   => Energetics <=

    Nuclear Repulsion Energy =           1002.7998157815742388
    One-Electron Energy =               -2896.5369528459673347
    Two-Electron Energy =                1226.4866004943855842
    Total Energy =                       -667.2505365700076254
  Basis Set: (AUG-CC-PVTZ AUX)
    Blend: AUG-CC-PVTZ-RI
    Molecular point group: c1

    Geometry (in Angstrom), charge = 0, multiplicity = 1:

       Center              X                  Y                   Z               Mass
    ------------   -----------------  -----------------  -----------------  -----------------
         O           -0.037758235067    -1.991147525790    -0.451018308367    15.994914619570
         N            2.484558764933    -1.465326525790     0.410044691633    14.003074004430
         C            0.837160764933     0.220109474210    -0.209878308367    12.000000000000
         C            2.146045764933    -0.257223725790     0.101745491633    12.000000000000
         C           -0.251807235067    -0.780249525790    -0.255374308367    12.000000000000
         C           -1.664409235067    -0.335372525790    -0.052783308367    12.000000000000
         C            0.561540764933     1.555488474210    -0.556686308367    12.000000000000
         C            3.163636764933     0.845748474210     0.124189691633    12.000000000000
         C            1.554902764933     2.527044474210    -0.555252308367    12.000000000000
         C            2.857524764933     2.161144474210    -0.206071308367    12.000000000000
         C           -2.006469235067     0.649961474210     0.885661691633    12.000000000000
         C           -2.674190235067    -1.006595525790    -0.756793308367    12.000000000000
         C           -3.348384235067     0.965152474210     1.103712691633    12.000000000000
         C           -4.010542235067    -0.670626525790    -0.551572308367    12.000000000000
         C            3.854763764933    -1.914590525790     0.538004691633    12.000000000000
         C           -4.350727235067     0.315297474210     0.379768691633    12.000000000000
         H           -0.452251235067     1.823207474210    -0.840845308367     1.007825032230
         H            4.188894764933     0.588732474210     0.370339691633     1.007825032230
         H            1.807290764933    -2.136509525790     0.063043691633     1.007825032230
         H            1.323061764933     3.550235474210    -0.837562308367     1.007825032230
         H            3.647612764933     2.909117474210    -0.186395308367     1.007825032230
         H           -1.226984235067     1.146921474210     1.457396691633     1.007825032230
         H           -2.393380235067    -1.788723525790    -1.457445308367     1.007825032230
         H           -3.612263235067     1.718967474210     1.841731691633     1.007825032230
         H           -4.789968235067    -1.181950525790    -1.111523308367     1.007825032230
         H            4.460375764933    -1.708661525790    -0.356183308367     1.007825032230
         H            3.840878764933    -2.992326525790     0.708677691633     1.007825032230
         H            4.340364764933    -1.444552525790     1.398902691633     1.007825032230
         H           -5.394609235067     0.571131474210     0.545432691633     1.007825032230

  Basis Set: AUG-CC-PVTZ
    Blend: AUG-CC-PVTZ
  Basis Set: (AUG-CC-PVTZ AUX)
    Blend: AUG-CC-PVTZ-JKFIT
	 Reference Energy          =    -667.2505365700077391 [Eh]
	 Singles Energy            =      -0.0000000000000000 [Eh]
	 Same-Spin Energy          =      -0.7347832124725602 [Eh]
	 Opposite-Spin Energy      =      -2.2656500073888917 [Eh]
	 Correlation Energy        =      -3.0004332198614518 [Eh]
	 Total Energy              =    -670.2509697898691456 [Eh]

	 ================> DF-SCS-MP2 Energies <==================
	-----------------------------------------------------------
	 SCS Same-Spin Scale       =       0.3333333333333333 [-]
	 SCS Opposite-Spin Scale   =       1.2000000000000000 [-]
	 SCS Same-Spin Energy      =      -0.2449277374908534 [Eh]
	 SCS Opposite-Spin Energy  =      -2.7187800088666698 [Eh]
	 SCS Correlation Energy    =      -2.9637077463575232 [Eh]
	 SCS Total Energy          =    -670.2142443163652388 [Eh]
	-----------------------------------------------------------

  Dipole Moment: [D]
     X:     0.7593      Y:     0.6122      Z:     0.5242     Total:     1.1073

*** Psi4 exiting successfully. Buy a developer a beer!
