                               Psi4 1.3.2 release

  ==> Input File <==

--------------------------------------------------------------------------
#psi4
#
memory 32 gb

molecule  {
0 1
  O       -0.0649480    -2.0007500    -0.4572220
  N        2.4573690    -1.4749290     0.4038410
  C        0.8099710     0.2105070    -0.2160820
  C        2.1669397    -0.1274402     0.0712576
  C       -0.2789970    -0.7898520    -0.2615780
  C       -1.6915990    -0.3449750    -0.0589870
  C        0.5343510     1.5458860    -0.5628900
  C        3.1364470     0.8361460     0.1179860
  C        1.5277130     2.5174420    -0.5614560
  C        2.8303350     2.1515420    -0.2122750
  C       -2.0336590     0.6403590     0.8794580
  C       -2.7013800    -1.0161980    -0.7629970
  C       -3.3755740     0.9555500     1.0975090
  C       -4.0377320    -0.6802290    -0.5577760
  C        3.8275740    -1.9241930     0.5318010
  C       -4.3779170     0.3056950     0.3735650
  H       -0.4794410     1.8136050    -0.8470490
  H        4.1617050     0.5791300     0.3641360
  H        1.7801010    -2.1461120     0.0568400
  H        1.2958720     3.5406330    -0.8437660
  H        3.6204230     2.8995150    -0.1925990
  H       -1.2541740     1.1373190     1.4511930
  H       -2.4205700    -1.7983260    -1.4636490
  H       -3.6394530     1.7093650     1.8355280
  H       -4.8171580    -1.1915530    -1.1177270
  H        4.4331860    -1.7182640    -0.3623870
  H        3.8136890    -3.0019290     0.7024740
  H        4.3131750    -1.4541550     1.3926990
  H       -5.4217990     0.5615290     0.5392290
units angstrom
no_reorient  #important for SAPT in psi4, default
symmetry c1  #important for SAPT in psi4, default
}

set PROPERTIES_ORIGIN ["COM"]
properties('MP2/aug-cc-pvtz', properties = ['dipole'])
--------------------------------------------------------------------------

    Molecular point group: c1
  Charge       = 0
  Multiplicity = 1
  Basis Set: AUG-CC-PVTZ
    Blend: AUG-CC-PVTZ
  Basis Set: (AUG-CC-PVTZ AUX)
    Blend: AUG-CC-PVTZ-JKFIT

    Orbital Energies [Eh]
    ---------------------

    Doubly Occupied:

       1A    -20.541033     2A    -15.554926     3A    -11.342260
       4A    -11.293171     5A    -11.254754     6A    -11.254166
       7A    -11.252376     8A    -11.251881     9A    -11.251037
      10A    -11.250560    11A    -11.247958    12A    -11.245741
      13A    -11.244314    14A    -11.241458    15A    -11.228990
      16A    -11.226544    17A     -1.373175    18A     -1.230175
      19A     -1.164461    20A     -1.144656    21A     -1.058413
      22A     -1.026637    23A     -1.021864    24A     -1.013942
      25A     -0.922091    26A     -0.891137    27A     -0.846664
      28A     -0.835633    29A     -0.807331    30A     -0.772544
      31A     -0.719427    32A     -0.698589    33A     -0.681437
      34A     -0.656254    35A     -0.644926    36A     -0.632839
      37A     -0.621668    38A     -0.611374    39A     -0.607459
      40A     -0.601186    41A     -0.596865    42A     -0.576545
      43A     -0.545994    44A     -0.540450    45A     -0.529057
      46A     -0.521630    47A     -0.513692    48A     -0.504364
      49A     -0.501792    50A     -0.486920    51A     -0.423420
      52A     -0.419982    53A     -0.352121    54A     -0.345912
      55A     -0.344200    56A     -0.297016

  @DF-RHF Final Energy:  -667.25959669378869

   => Energetics <=

    Nuclear Repulsion Energy =           1002.4490525409072461
    One-Electron Energy =               -2895.8872706092670342
    Two-Electron Energy =                1226.1786213745710938
    Total Energy =                       -667.2595966937885805
  Basis Set: (AUG-CC-PVTZ AUX)
    Blend: AUG-CC-PVTZ-RI
    Molecular point group: c1

    Geometry (in Angstrom), charge = 0, multiplicity = 1:

       Center              X                  Y                   Z               Mass
    ------------   -----------------  -----------------  -----------------  -----------------
         O           -0.040491561366    -1.999070947229    -0.449637868790    15.994914619570
         N            2.481825438634    -1.473249947229     0.411425131210    14.003074004430
         C            0.834427438634     0.212186052771    -0.208497868790    12.000000000000
         C            2.191396138634    -0.125761147229     0.078841731210    12.000000000000
         C           -0.254540561366    -0.788172947229    -0.253993868790    12.000000000000
         C           -1.667142561366    -0.343295947229    -0.051402868790    12.000000000000
         C            0.558807438634     1.547565052771    -0.555305868790    12.000000000000
         C            3.160903438634     0.837825052771     0.125570131210    12.000000000000
         C            1.552169438634     2.519121052771    -0.553871868790    12.000000000000
         C            2.854791438634     2.153221052771    -0.204690868790    12.000000000000
         C           -2.009202561366     0.642038052771     0.887042131210    12.000000000000
         C           -2.676923561366    -1.014518947229    -0.755412868790    12.000000000000
         C           -3.351117561366     0.957229052771     1.105093131210    12.000000000000
         C           -4.013275561366    -0.678549947229    -0.550191868790    12.000000000000
         C            3.852030438634    -1.922513947229     0.539385131210    12.000000000000
         C           -4.353460561366     0.307374052771     0.381149131210    12.000000000000
         H           -0.454984561366     1.815284052771    -0.839464868790     1.007825032230
         H            4.186161438634     0.580809052771     0.371720131210     1.007825032230
         H            1.804557438634    -2.144432947229     0.064424131210     1.007825032230
         H            1.320328438634     3.542312052771    -0.836181868790     1.007825032230
         H            3.644879438634     2.901194052771    -0.185014868790     1.007825032230
         H           -1.229717561366     1.138998052771     1.458777131210     1.007825032230
         H           -2.396113561366    -1.796646947229    -1.456064868790     1.007825032230
         H           -3.614996561366     1.711044052771     1.843112131210     1.007825032230
         H           -4.792701561366    -1.189873947229    -1.110142868790     1.007825032230
         H            4.457642438634    -1.716584947229    -0.354802868790     1.007825032230
         H            3.838145438634    -3.000249947229     0.710058131210     1.007825032230
         H            4.337631438634    -1.452475947229     1.400283131210     1.007825032230
         H           -5.397342561366     0.563208052771     0.546813131210     1.007825032230

  Basis Set: AUG-CC-PVTZ
    Blend: AUG-CC-PVTZ
  Basis Set: (AUG-CC-PVTZ AUX)
    Blend: AUG-CC-PVTZ-JKFIT
	 Reference Energy          =    -667.2595966937886942 [Eh]
	 Singles Energy            =      -0.0000000000000000 [Eh]
	 Same-Spin Energy          =      -0.7345053340989505 [Eh]
	 Opposite-Spin Energy      =      -2.2653776781024266 [Eh]
	 Correlation Energy        =      -2.9998830122013773 [Eh]
	 Total Energy              =    -670.2594797059900884 [Eh]

	 ================> DF-SCS-MP2 Energies <==================
	-----------------------------------------------------------
	 SCS Same-Spin Scale       =       0.3333333333333333 [-]
	 SCS Opposite-Spin Scale   =       1.2000000000000000 [-]
	 SCS Same-Spin Energy      =      -0.2448351113663168 [Eh]
	 SCS Opposite-Spin Energy  =      -2.7184532137229120 [Eh]
	 SCS Correlation Energy    =      -2.9632883250892288 [Eh]
	 SCS Total Energy          =    -670.2228850188779461 [Eh]
	-----------------------------------------------------------

  Dipole Moment: [D]
     X:     0.1161      Y:     1.4990      Z:     0.2569     Total:     1.5253

*** Psi4 exiting successfully. Buy a developer a beer!
