                               Psi4 1.4a2.dev612

  ==> Input File <==

--------------------------------------------------------------------------
#psi4
#
memory 32 gb

molecule  {
0 1
  O       -0.0649480    -2.0007500    -0.4572220
  N        2.4573690    -1.4749290     0.4038410
  C        0.8099710     0.2105070    -0.2160820
  C        2.1525410    -0.1743900     0.0797160
  C       -0.2956753    -0.8230805    -0.2981837
  C       -1.6915990    -0.3449750    -0.0589870
  C        0.5343510     1.5458860    -0.5628900
  C        3.1364470     0.8361460     0.1179860
  C        1.5277130     2.5174420    -0.5614560
  C        2.8303350     2.1515420    -0.2122750
  C       -2.0336590     0.6403590     0.8794580
  C       -2.7013800    -1.0161980    -0.7629970
  C       -3.3755740     0.9555500     1.0975090
  C       -4.0377320    -0.6802290    -0.5577760
  C        3.8275740    -1.9241930     0.5318010
  C       -4.3779170     0.3056950     0.3735650
  H       -0.4794410     1.8136050    -0.8470490
  H        4.1617050     0.5791300     0.3641360
  H        1.7801010    -2.1461120     0.0568400
  H        1.2958720     3.5406330    -0.8437660
  H        3.6204230     2.8995150    -0.1925990
  H       -1.2541740     1.1373190     1.4511930
  H       -2.4205700    -1.7983260    -1.4636490
  H       -3.6394530     1.7093650     1.8355280
  H       -4.8171580    -1.1915530    -1.1177270
  H        4.4331860    -1.7182640    -0.3623870
  H        3.8136890    -3.0019290     0.7024740
  H        4.3131750    -1.4541550     1.3926990
  H       -5.4217990     0.5615290     0.5392290
units angstrom
no_reorient  #important for SAPT in psi4, default
symmetry c1  #important for SAPT in psi4, default
}

set PROPERTIES_ORIGIN ["COM"]
properties('MP2/aug-cc-pvtz', properties = ['dipole'])
--------------------------------------------------------------------------

    Molecular point group: c1
  Charge       = 0
  Multiplicity = 1
  Basis Set: AUG-CC-PVTZ
    Blend: AUG-CC-PVTZ
  Basis Set: (AUG-CC-PVTZ AUX)
    Blend: AUG-CC-PVTZ-JKFIT

    Orbital Energies [Eh]
    ---------------------

    Doubly Occupied:

       1A    -20.545616     2A    -15.560764     3A    -11.340165
       4A    -11.294297     5A    -11.256438     6A    -11.252248
       7A    -11.250493     8A    -11.249700     9A    -11.249680
      10A    -11.249039    11A    -11.246977    12A    -11.245616
      13A    -11.243762    14A    -11.238013    15A    -11.227094
      16A    -11.224065    17A     -1.397645    18A     -1.243336
      19A     -1.163882    20A     -1.139271    21A     -1.053226
      22A     -1.026025    23A     -1.018606    24A     -1.007933
      25A     -0.927405    26A     -0.885855    27A     -0.844906
      28A     -0.833478    29A     -0.805572    30A     -0.770985
      31A     -0.717436    32A     -0.700839    33A     -0.684245
      34A     -0.656486    35A     -0.649167    36A     -0.633653
      37A     -0.618681    38A     -0.614394    39A     -0.611269
      40A     -0.601974    41A     -0.596593    42A     -0.577576
      43A     -0.551838    44A     -0.541173    45A     -0.531744
      46A     -0.520588    47A     -0.512798    48A     -0.503396
      49A     -0.501956    50A     -0.491906    51A     -0.428060
      52A     -0.415921    53A     -0.349280    54A     -0.345933
      55A     -0.343084    56A     -0.290236

  @DF-RHF Final Energy:  -667.26384544429959

   => Energetics <=

    Nuclear Repulsion Energy =           1002.4108654141219859
    One-Electron Energy =               -2895.7847897459632804
    Two-Electron Energy =                1226.1100788875419312
    Total Energy =                       -667.2638454442994771
  Basis Set: (AUG-CC-PVTZ AUX)
    Blend: AUG-CC-PVTZ-RI
    Molecular point group: c1

    Geometry (in Angstrom), charge = 0, multiplicity = 1:

       Center              X                  Y                   Z               Mass
    ------------   -----------------  -----------------  -----------------  -----------------
         O           -0.038724983890    -1.994513197805    -0.448037830621    15.994914619570
         N            2.483592016110    -1.468692197805     0.413025169379    14.003074004430
         C            0.836194016110     0.216743802195    -0.206897830621    12.000000000000
         C            2.178764016110    -0.168153197805     0.088900169379    12.000000000000
         C           -0.269452283890    -0.816843697805    -0.288999530621    12.000000000000
         C           -1.665375983890    -0.338738197805    -0.049802830621    12.000000000000
         C            0.560574016110     1.552122802195    -0.553705830621    12.000000000000
         C            3.162670016110     0.842382802195     0.127170169379    12.000000000000
         C            1.553936016110     2.523678802195    -0.552271830621    12.000000000000
         C            2.856558016110     2.157778802195    -0.203090830621    12.000000000000
         C           -2.007435983890     0.646595802195     0.888642169379    12.000000000000
         C           -2.675156983890    -1.009961197805    -0.753812830621    12.000000000000
         C           -3.349350983890     0.961786802195     1.106693169379    12.000000000000
         C           -4.011508983890    -0.673992197805    -0.548591830621    12.000000000000
         C            3.853797016110    -1.917956197805     0.540985169379    12.000000000000
         C           -4.351693983890     0.311931802195     0.382749169379    12.000000000000
         H           -0.453217983890     1.819841802195    -0.837864830621     1.007825032230
         H            4.187928016110     0.585366802195     0.373320169379     1.007825032230
         H            1.806324016110    -2.139875197805     0.066024169379     1.007825032230
         H            1.322095016110     3.546869802195    -0.834581830621     1.007825032230
         H            3.646646016110     2.905751802195    -0.183414830621     1.007825032230
         H           -1.227950983890     1.143555802195     1.460377169379     1.007825032230
         H           -2.394346983890    -1.792089197805    -1.454464830621     1.007825032230
         H           -3.613229983890     1.715601802195     1.844712169379     1.007825032230
         H           -4.790934983890    -1.185316197805    -1.108542830621     1.007825032230
         H            4.459409016110    -1.712027197805    -0.353202830621     1.007825032230
         H            3.839912016110    -2.995692197805     0.711658169379     1.007825032230
         H            4.339398016110    -1.447918197805     1.401883169379     1.007825032230
         H           -5.395575983890     0.567765802195     0.548413169379     1.007825032230

  Basis Set: AUG-CC-PVTZ
    Blend: AUG-CC-PVTZ
  Basis Set: (AUG-CC-PVTZ AUX)
    Blend: AUG-CC-PVTZ-JKFIT
	 Reference Energy          =    -667.2638454442995908 [Eh]
	 Singles Energy            =      -0.0000000000000000 [Eh]
	 Same-Spin Energy          =      -0.7335987071479749 [Eh]
	 Opposite-Spin Energy      =      -2.2633574120353743 [Eh]
	 Correlation Energy        =      -2.9969561191833494 [Eh]
	 Total Energy              =    -670.2608015634829144 [Eh]

	 ================> DF-SCS-MP2 Energies <==================
	-----------------------------------------------------------
	 SCS Same-Spin Scale       =       0.3333333333333333 [-]
	 SCS Opposite-Spin Scale   =       1.2000000000000000 [-]
	 SCS Same-Spin Energy      =      -0.2445329023826583 [Eh]
	 SCS Opposite-Spin Energy  =      -2.7160288944424491 [Eh]
	 SCS Correlation Energy    =      -2.9605617968251075 [Eh]
	 SCS Total Energy          =    -670.2244072411247089 [Eh]
	-----------------------------------------------------------

  Dipole Moment: [D]
     X:     0.1235      Y:     1.0022      Z:     0.3037     Total:     1.0545

*** Psi4 exiting successfully. Buy a developer a beer!
