                               Psi4 1.3.2 release

  ==> Input File <==

--------------------------------------------------------------------------
#psi4
#
memory 32 gb

molecule  {
0 1
  O       -0.0649480    -2.0007500    -0.4572220
  N        2.4573690    -1.4749290     0.4038410
  C        0.8334279     0.2166004    -0.2121306
  C        2.1525410    -0.1743900     0.0797160
  C       -0.2789970    -0.7898520    -0.2615780
  C       -1.6915990    -0.3449750    -0.0589870
  C        0.5343510     1.5458860    -0.5628900
  C        3.1364470     0.8361460     0.1179860
  C        1.5277130     2.5174420    -0.5614560
  C        2.8303350     2.1515420    -0.2122750
  C       -2.0336590     0.6403590     0.8794580
  C       -2.7013800    -1.0161980    -0.7629970
  C       -3.3755740     0.9555500     1.0975090
  C       -4.0377320    -0.6802290    -0.5577760
  C        3.8275740    -1.9241930     0.5318010
  C       -4.3779170     0.3056950     0.3735650
  H       -0.4794410     1.8136050    -0.8470490
  H        4.1617050     0.5791300     0.3641360
  H        1.7801010    -2.1461120     0.0568400
  H        1.2958720     3.5406330    -0.8437660
  H        3.6204230     2.8995150    -0.1925990
  H       -1.2541740     1.1373190     1.4511930
  H       -2.4205700    -1.7983260    -1.4636490
  H       -3.6394530     1.7093650     1.8355280
  H       -4.8171580    -1.1915530    -1.1177270
  H        4.4331860    -1.7182640    -0.3623870
  H        3.8136890    -3.0019290     0.7024740
  H        4.3131750    -1.4541550     1.3926990
  H       -5.4217990     0.5615290     0.5392290
units angstrom
no_reorient  #important for SAPT in psi4, default
symmetry c1  #important for SAPT in psi4, default
}

set PROPERTIES_ORIGIN ["COM"]
properties('MP2/aug-cc-pvtz', properties = ['dipole'])
--------------------------------------------------------------------------

    Molecular point group: c1
  Charge       = 0
  Multiplicity = 1
  Basis Set: AUG-CC-PVTZ
    Blend: AUG-CC-PVTZ
  Basis Set: (AUG-CC-PVTZ AUX)
    Blend: AUG-CC-PVTZ-JKFIT

    Orbital Energies [Eh]
    ---------------------

    Doubly Occupied:

       1A    -20.541095     2A    -15.560499     3A    -11.342010
       4A    -11.293780     5A    -11.256550     6A    -11.251986
       7A    -11.251482     8A    -11.251070     9A    -11.250739
      10A    -11.250143    11A    -11.247676    12A    -11.245411
      13A    -11.244019    14A    -11.238376    15A    -11.228913
      16A    -11.225849    17A     -1.373079    18A     -1.244228
      19A     -1.163917    20A     -1.142653    21A     -1.054667
      22A     -1.025973    23A     -1.021060    24A     -1.010621
      25A     -0.928203    26A     -0.887287    27A     -0.844967
      28A     -0.835261    29A     -0.808491    30A     -0.771560
      31A     -0.717884    32A     -0.700231    33A     -0.683791
      34A     -0.655609    35A     -0.645413    36A     -0.633318
      37A     -0.619605    38A     -0.615038    39A     -0.608274
      40A     -0.600911    41A     -0.596358    42A     -0.577627
      43A     -0.544997    44A     -0.541640    45A     -0.530203
      46A     -0.520460    47A     -0.513596    48A     -0.505778
      49A     -0.501682    50A     -0.487323    51A     -0.428786
      52A     -0.417962    53A     -0.350027    54A     -0.345439
      55A     -0.343482    56A     -0.292837

  @DF-RHF Final Energy:  -667.26250212164757

   => Energetics <=

    Nuclear Repulsion Energy =           1002.5092619877769948
    One-Electron Energy =               -2896.0038571940135625
    Two-Electron Energy =                1226.2320930845892235
    Total Energy =                       -667.2625021216474579
  Basis Set: (AUG-CC-PVTZ AUX)
    Blend: AUG-CC-PVTZ-RI
    Molecular point group: c1

    Geometry (in Angstrom), charge = 0, multiplicity = 1:

       Center              X                  Y                   Z               Mass
    ------------   -----------------  -----------------  -----------------  -----------------
         O           -0.041006476322    -1.996748458057    -0.450343306032    15.994914619570
         N            2.481310523678    -1.470927458057     0.410719693968    14.003074004430
         C            0.857369423678     0.220601941943    -0.205251906032    12.000000000000
         C            2.176482523678    -0.170388458057     0.086594693968    12.000000000000
         C           -0.255055476322    -0.785850458057    -0.254699306032    12.000000000000
         C           -1.667657476322    -0.340973458057    -0.052108306032    12.000000000000
         C            0.558292523678     1.549887541943    -0.556011306032    12.000000000000
         C            3.160388523678     0.840147541943     0.124864693968    12.000000000000
         C            1.551654523678     2.521443541943    -0.554577306032    12.000000000000
         C            2.854276523678     2.155543541943    -0.205396306032    12.000000000000
         C           -2.009717476322     0.644360541943     0.886336693968    12.000000000000
         C           -2.677438476322    -1.012196458057    -0.756118306032    12.000000000000
         C           -3.351632476322     0.959551541943     1.104387693968    12.000000000000
         C           -4.013790476322    -0.676227458057    -0.550897306032    12.000000000000
         C            3.851515523678    -1.920191458057     0.538679693968    12.000000000000
         C           -4.353975476322     0.309696541943     0.380443693968    12.000000000000
         H           -0.455499476322     1.817606541943    -0.840170306032     1.007825032230
         H            4.185646523678     0.583131541943     0.371014693968     1.007825032230
         H            1.804042523678    -2.142110458057     0.063718693968     1.007825032230
         H            1.319813523678     3.544634541943    -0.836887306032     1.007825032230
         H            3.644364523678     2.903516541943    -0.185720306032     1.007825032230
         H           -1.230232476322     1.141320541943     1.458071693968     1.007825032230
         H           -2.396628476322    -1.794324458057    -1.456770306032     1.007825032230
         H           -3.615511476322     1.713366541943     1.842406693968     1.007825032230
         H           -4.793216476322    -1.187551458057    -1.110848306032     1.007825032230
         H            4.457127523678    -1.714262458057    -0.355508306032     1.007825032230
         H            3.837630523678    -2.997927458057     0.709352693968     1.007825032230
         H            4.337116523678    -1.450153458057     1.399577693968     1.007825032230
         H           -5.397857476322     0.565530541943     0.546107693968     1.007825032230

  Basis Set: AUG-CC-PVTZ
    Blend: AUG-CC-PVTZ
  Basis Set: (AUG-CC-PVTZ AUX)
    Blend: AUG-CC-PVTZ-JKFIT
	 Reference Energy          =    -667.2625021216475716 [Eh]
	 Singles Energy            =      -0.0000000000000000 [Eh]
	 Same-Spin Energy          =      -0.7344887898996840 [Eh]
	 Opposite-Spin Energy      =      -2.2651693683571534 [Eh]
	 Correlation Energy        =      -2.9996581582568376 [Eh]
	 Total Energy              =    -670.2621602799043785 [Eh]

	 ================> DF-SCS-MP2 Energies <==================
	-----------------------------------------------------------
	 SCS Same-Spin Scale       =       0.3333333333333333 [-]
	 SCS Opposite-Spin Scale   =       1.2000000000000000 [-]
	 SCS Same-Spin Energy      =      -0.2448295966332280 [Eh]
	 SCS Opposite-Spin Energy  =      -2.7182032420285842 [Eh]
	 SCS Correlation Energy    =      -2.9630328386618121 [Eh]
	 SCS Total Energy          =    -670.2255349603093464 [Eh]
	-----------------------------------------------------------

  Dipole Moment: [D]
     X:     0.2176      Y:     1.1873      Z:     0.3345     Total:     1.2526

*** Psi4 exiting successfully. Buy a developer a beer!
