                               Psi4 1.4a2.dev612

  ==> Input File <==

--------------------------------------------------------------------------
#psi4
#
memory 32 gb

molecule  {
0 1
  O       -0.0649480    -2.0007500    -0.4572220
  N        2.4573690    -1.4749290     0.4038410
  C        0.8099710     0.2105070    -0.2160820
  C        2.1525410    -0.1743900     0.0797160
  C       -0.2623454    -0.8079980    -0.2538237
  C       -1.6915990    -0.3449750    -0.0589870
  C        0.5343510     1.5458860    -0.5628900
  C        3.1364470     0.8361460     0.1179860
  C        1.5277130     2.5174420    -0.5614560
  C        2.8303350     2.1515420    -0.2122750
  C       -2.0336590     0.6403590     0.8794580
  C       -2.7013800    -1.0161980    -0.7629970
  C       -3.3755740     0.9555500     1.0975090
  C       -4.0377320    -0.6802290    -0.5577760
  C        3.8275740    -1.9241930     0.5318010
  C       -4.3779170     0.3056950     0.3735650
  H       -0.4794410     1.8136050    -0.8470490
  H        4.1617050     0.5791300     0.3641360
  H        1.7801010    -2.1461120     0.0568400
  H        1.2958720     3.5406330    -0.8437660
  H        3.6204230     2.8995150    -0.1925990
  H       -1.2541740     1.1373190     1.4511930
  H       -2.4205700    -1.7983260    -1.4636490
  H       -3.6394530     1.7093650     1.8355280
  H       -4.8171580    -1.1915530    -1.1177270
  H        4.4331860    -1.7182640    -0.3623870
  H        3.8136890    -3.0019290     0.7024740
  H        4.3131750    -1.4541550     1.3926990
  H       -5.4217990     0.5615290     0.5392290
units angstrom
no_reorient  #important for SAPT in psi4, default
symmetry c1  #important for SAPT in psi4, default
}

set PROPERTIES_ORIGIN ["COM"]
properties('MP2/aug-cc-pvtz', properties = ['dipole'])
--------------------------------------------------------------------------

    Molecular point group: c1
  Charge       = 0
  Multiplicity = 1
  Basis Set: AUG-CC-PVTZ
    Blend: AUG-CC-PVTZ
  Basis Set: (AUG-CC-PVTZ AUX)
    Blend: AUG-CC-PVTZ-JKFIT

    Orbital Energies [Eh]
    ---------------------

    Doubly Occupied:

       1A    -20.542590     2A    -15.562524     3A    -11.339822
       4A    -11.296864     5A    -11.257586     6A    -11.252916
       7A    -11.252615     8A    -11.249922     9A    -11.248756
      10A    -11.248551    11A    -11.245627    12A    -11.243974
      13A    -11.242628    14A    -11.238228    15A    -11.228881
      16A    -11.226127    17A     -1.385959    18A     -1.245210
      19A     -1.161875    20A     -1.142011    21A     -1.054320
      22A     -1.024089    23A     -1.019673    24A     -1.010161
      25A     -0.929443    26A     -0.887309    27A     -0.843684
      28A     -0.833519    29A     -0.807473    30A     -0.771069
      31A     -0.717208    32A     -0.702344    33A     -0.684152
      34A     -0.656612    35A     -0.645227    36A     -0.632947
      37A     -0.619823    38A     -0.615704    39A     -0.608666
      40A     -0.602549    41A     -0.595193    42A     -0.579407
      43A     -0.548881    44A     -0.542842    45A     -0.531784
      46A     -0.519840    47A     -0.511851    48A     -0.504503
      49A     -0.500444    50A     -0.489737    51A     -0.429760
      52A     -0.417228    53A     -0.350418    54A     -0.344340
      55A     -0.342377    56A     -0.292453

  @DF-RHF Final Energy:  -667.26428128249893

   => Energetics <=

    Nuclear Repulsion Energy =           1002.5623935316816642
    One-Electron Energy =               -2896.0939564894097202
    Two-Electron Energy =                1226.2672816752290146
    Total Energy =                       -667.2642812824990415
  Basis Set: (AUG-CC-PVTZ AUX)
    Blend: AUG-CC-PVTZ-RI
    Molecular point group: c1

    Geometry (in Angstrom), charge = 0, multiplicity = 1:

       Center              X                  Y                   Z               Mass
    ------------   -----------------  -----------------  -----------------  -----------------
         O           -0.040619627858    -1.995370565144    -0.450559482544    15.994914619570
         N            2.481697372142    -1.469549565144     0.410503517456    14.003074004430
         C            0.834299372142     0.215886434856    -0.209419482544    12.000000000000
         C            2.176869372142    -0.169010565144     0.086378517456    12.000000000000
         C           -0.238017027858    -0.802618565144    -0.247161182544    12.000000000000
         C           -1.667270627858    -0.339595565144    -0.052324482544    12.000000000000
         C            0.558679372142     1.551265434856    -0.556227482544    12.000000000000
         C            3.160775372142     0.841525434856     0.124648517456    12.000000000000
         C            1.552041372142     2.522821434856    -0.554793482544    12.000000000000
         C            2.854663372142     2.156921434856    -0.205612482544    12.000000000000
         C           -2.009330627858     0.645738434856     0.886120517456    12.000000000000
         C           -2.677051627858    -1.010818565144    -0.756334482544    12.000000000000
         C           -3.351245627858     0.960929434856     1.104171517456    12.000000000000
         C           -4.013403627858    -0.674849565144    -0.551113482544    12.000000000000
         C            3.851902372142    -1.918813565144     0.538463517456    12.000000000000
         C           -4.353588627858     0.311074434856     0.380227517456    12.000000000000
         H           -0.455112627858     1.818984434856    -0.840386482544     1.007825032230
         H            4.186033372142     0.584509434856     0.370798517456     1.007825032230
         H            1.804429372142    -2.140732565144     0.063502517456     1.007825032230
         H            1.320200372142     3.546012434856    -0.837103482544     1.007825032230
         H            3.644751372142     2.904894434856    -0.185936482544     1.007825032230
         H           -1.229845627858     1.142698434856     1.457855517456     1.007825032230
         H           -2.396241627858    -1.792946565144    -1.456986482544     1.007825032230
         H           -3.615124627858     1.714744434856     1.842190517456     1.007825032230
         H           -4.792829627858    -1.186173565144    -1.111064482544     1.007825032230
         H            4.457514372142    -1.712884565144    -0.355724482544     1.007825032230
         H            3.838017372142    -2.996549565144     0.709136517456     1.007825032230
         H            4.337503372142    -1.448775565144     1.399361517456     1.007825032230
         H           -5.397470627858     0.566908434856     0.545891517456     1.007825032230

  Basis Set: AUG-CC-PVTZ
    Blend: AUG-CC-PVTZ
  Basis Set: (AUG-CC-PVTZ AUX)
    Blend: AUG-CC-PVTZ-JKFIT
	 Reference Energy          =    -667.2642812824989278 [Eh]
	 Singles Energy            =      -0.0000000000000000 [Eh]
	 Same-Spin Energy          =      -0.7339985515359928 [Eh]
	 Opposite-Spin Energy      =      -2.2641021617405737 [Eh]
	 Correlation Energy        =      -2.9981007132765667 [Eh]
	 Total Energy              =    -670.2623819957755131 [Eh]

	 ================> DF-SCS-MP2 Energies <==================
	-----------------------------------------------------------
	 SCS Same-Spin Scale       =       0.3333333333333333 [-]
	 SCS Opposite-Spin Scale   =       1.2000000000000000 [-]
	 SCS Same-Spin Energy      =      -0.2446661838453309 [Eh]
	 SCS Opposite-Spin Energy  =      -2.7169225940886883 [Eh]
	 SCS Correlation Energy    =      -2.9615887779340193 [Eh]
	 SCS Total Energy          =    -670.2258700604329533 [Eh]
	-----------------------------------------------------------

  Dipole Moment: [D]
     X:     0.4294      Y:     1.1324      Z:     0.3274     Total:     1.2545

*** Psi4 exiting successfully. Buy a developer a beer!
