                               Psi4 1.3.2 release

  ==> Input File <==

--------------------------------------------------------------------------
#psi4
#
memory 32 gb

molecule  {
0 1
  O       -0.0649480    -2.0007500    -0.4572220
  N        2.4573690    -1.4749290     0.4038410
  C        0.8099710     0.2105070    -0.2160820
  C        2.0584993    -0.1474295     0.0589965
  C       -0.2789970    -0.7898520    -0.2615780
  C       -1.6915990    -0.3449750    -0.0589870
  C        0.5343510     1.5458860    -0.5628900
  C        3.1364470     0.8361460     0.1179860
  C        1.5277130     2.5174420    -0.5614560
  C        2.8303350     2.1515420    -0.2122750
  C       -2.0336590     0.6403590     0.8794580
  C       -2.7013800    -1.0161980    -0.7629970
  C       -3.3755740     0.9555500     1.0975090
  C       -4.0377320    -0.6802290    -0.5577760
  C        3.8275740    -1.9241930     0.5318010
  C       -4.3779170     0.3056950     0.3735650
  H       -0.4794410     1.8136050    -0.8470490
  H        4.1617050     0.5791300     0.3641360
  H        1.7801010    -2.1461120     0.0568400
  H        1.2958720     3.5406330    -0.8437660
  H        3.6204230     2.8995150    -0.1925990
  H       -1.2541740     1.1373190     1.4511930
  H       -2.4205700    -1.7983260    -1.4636490
  H       -3.6394530     1.7093650     1.8355280
  H       -4.8171580    -1.1915530    -1.1177270
  H        4.4331860    -1.7182640    -0.3623870
  H        3.8136890    -3.0019290     0.7024740
  H        4.3131750    -1.4541550     1.3926990
  H       -5.4217990     0.5615290     0.5392290
units angstrom
no_reorient  #important for SAPT in psi4, default
symmetry c1  #important for SAPT in psi4, default
}

set PROPERTIES_ORIGIN ["COM"]
properties('MP2/aug-cc-pvtz', properties = ['dipole'])
--------------------------------------------------------------------------

    Molecular point group: c1
  Charge       = 0
  Multiplicity = 1
  Basis Set: AUG-CC-PVTZ
    Blend: AUG-CC-PVTZ
  Basis Set: (AUG-CC-PVTZ AUX)
    Blend: AUG-CC-PVTZ-JKFIT

    Orbital Energies [Eh]
    ---------------------

    Doubly Occupied:

       1A    -20.542899     2A    -15.553942     3A    -11.342534
       4A    -11.293320     5A    -11.254542     6A    -11.253002
       7A    -11.252236     8A    -11.251476     9A    -11.250766
      10A    -11.250164    11A    -11.248412    12A    -11.246242
      13A    -11.244715    14A    -11.237150    15A    -11.231631
      16A    -11.229425    17A     -1.375064    18A     -1.227306
      19A     -1.165119    20A     -1.145801    21A     -1.060071
      22A     -1.030620    23A     -1.025053    24A     -1.006103
      25A     -0.922585    26A     -0.888315    27A     -0.846237
      28A     -0.838817    29A     -0.812415    30A     -0.771760
      31A     -0.720178    32A     -0.693558    33A     -0.682851
      34A     -0.655454    35A     -0.645987    36A     -0.632747
      37A     -0.617529    38A     -0.613545    39A     -0.606326
      40A     -0.602029    41A     -0.597258    42A     -0.578221
      43A     -0.548284    44A     -0.539179    45A     -0.526607
      46A     -0.518568    47A     -0.513425    48A     -0.512097
      49A     -0.502353    50A     -0.486709    51A     -0.420714
      52A     -0.419232    53A     -0.352489    54A     -0.346896
      55A     -0.344596    56A     -0.296847

  @DF-RHF Final Energy:  -667.24963415917455

   => Energetics <=

    Nuclear Repulsion Energy =           1003.3827149365779405
    One-Electron Energy =               -2897.7218951947852474
    Two-Electron Energy =                1227.0895460990327592
    Total Energy =                       -667.2496341591745477
  Basis Set: (AUG-CC-PVTZ AUX)
    Blend: AUG-CC-PVTZ-RI
    Molecular point group: c1

    Geometry (in Angstrom), charge = 0, multiplicity = 1:

       Center              X                  Y                   Z               Mass
    ------------   -----------------  -----------------  -----------------  -----------------
         O           -0.034327247947    -1.997934651990    -0.448940884426    15.994914619570
         N            2.487989752053    -1.472113651990     0.412122115574    14.003074004430
         C            0.840591752053     0.213322348010    -0.207800884426    12.000000000000
         C            2.089120052053    -0.144614151990     0.067277615574    12.000000000000
         C           -0.248376247947    -0.787036651990    -0.253296884426    12.000000000000
         C           -1.660978247947    -0.342159651990    -0.050705884426    12.000000000000
         C            0.564971752053     1.548701348010    -0.554608884426    12.000000000000
         C            3.167067752053     0.838961348010     0.126267115574    12.000000000000
         C            1.558333752053     2.520257348010    -0.553174884426    12.000000000000
         C            2.860955752053     2.154357348010    -0.203993884426    12.000000000000
         C           -2.003038247947     0.643174348010     0.887739115574    12.000000000000
         C           -2.670759247947    -1.013382651990    -0.754715884426    12.000000000000
         C           -3.344953247947     0.958365348010     1.105790115574    12.000000000000
         C           -4.007111247947    -0.677413651990    -0.549494884426    12.000000000000
         C            3.858194752053    -1.921377651990     0.540082115574    12.000000000000
         C           -4.347296247947     0.308510348010     0.381846115574    12.000000000000
         H           -0.448820247947     1.816420348010    -0.838767884426     1.007825032230
         H            4.192325752053     0.581945348010     0.372417115574     1.007825032230
         H            1.810721752053    -2.143296651990     0.065121115574     1.007825032230
         H            1.326492752053     3.543448348010    -0.835484884426     1.007825032230
         H            3.651043752053     2.902330348010    -0.184317884426     1.007825032230
         H           -1.223553247947     1.140134348010     1.459474115574     1.007825032230
         H           -2.389949247947    -1.795510651990    -1.455367884426     1.007825032230
         H           -3.608832247947     1.712180348010     1.843809115574     1.007825032230
         H           -4.786537247947    -1.188737651990    -1.109445884426     1.007825032230
         H            4.463806752053    -1.715448651990    -0.354105884426     1.007825032230
         H            3.844309752053    -2.999113651990     0.710755115574     1.007825032230
         H            4.343795752053    -1.451339651990     1.400980115574     1.007825032230
         H           -5.391178247947     0.564344348010     0.547510115574     1.007825032230

  Basis Set: AUG-CC-PVTZ
    Blend: AUG-CC-PVTZ
  Basis Set: (AUG-CC-PVTZ AUX)
    Blend: AUG-CC-PVTZ-JKFIT
	 Reference Energy          =    -667.2496341591745477 [Eh]
	 Singles Energy            =      -0.0000000000000000 [Eh]
	 Same-Spin Energy          =      -0.7342320147355741 [Eh]
	 Opposite-Spin Energy      =      -2.2660267880202842 [Eh]
	 Correlation Energy        =      -3.0002588027558583 [Eh]
	 Total Energy              =    -670.2498929619304135 [Eh]

	 ================> DF-SCS-MP2 Energies <==================
	-----------------------------------------------------------
	 SCS Same-Spin Scale       =       0.3333333333333333 [-]
	 SCS Opposite-Spin Scale   =       1.2000000000000000 [-]
	 SCS Same-Spin Energy      =      -0.2447440049118580 [Eh]
	 SCS Opposite-Spin Energy  =      -2.7192321456243409 [Eh]
	 SCS Correlation Energy    =      -2.9639761505361988 [Eh]
	 SCS Total Energy          =    -670.2136103097107025 [Eh]
	-----------------------------------------------------------

  Dipole Moment: [D]
     X:     0.1174      Y:     1.4572      Z:     0.2589     Total:     1.4847

*** Psi4 exiting successfully. Buy a developer a beer!
