                               Psi4 1.3.2 release

  ==> Input File <==

--------------------------------------------------------------------------
#psi4
#
memory 32 gb

molecule  {
0 1
  O       -0.0649480    -2.0007500    -0.4572220
  N        2.4573690    -1.4749290     0.4038410
  C        0.8099710     0.2105070    -0.2160820
  C        2.1525410    -0.1743900     0.0797160
  C       -0.2053885    -0.7222330    -0.2585027
  C       -1.6915990    -0.3449750    -0.0589870
  C        0.5343510     1.5458860    -0.5628900
  C        3.1364470     0.8361460     0.1179860
  C        1.5277130     2.5174420    -0.5614560
  C        2.8303350     2.1515420    -0.2122750
  C       -2.0336590     0.6403590     0.8794580
  C       -2.7013800    -1.0161980    -0.7629970
  C       -3.3755740     0.9555500     1.0975090
  C       -4.0377320    -0.6802290    -0.5577760
  C        3.8275740    -1.9241930     0.5318010
  C       -4.3779170     0.3056950     0.3735650
  H       -0.4794410     1.8136050    -0.8470490
  H        4.1617050     0.5791300     0.3641360
  H        1.7801010    -2.1461120     0.0568400
  H        1.2958720     3.5406330    -0.8437660
  H        3.6204230     2.8995150    -0.1925990
  H       -1.2541740     1.1373190     1.4511930
  H       -2.4205700    -1.7983260    -1.4636490
  H       -3.6394530     1.7093650     1.8355280
  H       -4.8171580    -1.1915530    -1.1177270
  H        4.4331860    -1.7182640    -0.3623870
  H        3.8136890    -3.0019290     0.7024740
  H        4.3131750    -1.4541550     1.3926990
  H       -5.4217990     0.5615290     0.5392290
units angstrom
no_reorient  #important for SAPT in psi4, default
symmetry c1  #important for SAPT in psi4, default
}

set PROPERTIES_ORIGIN ["COM"]
properties('MP2/aug-cc-pvtz', properties = ['dipole'])
--------------------------------------------------------------------------

    Molecular point group: c1
  Charge       = 0
  Multiplicity = 1
  Basis Set: AUG-CC-PVTZ
    Blend: AUG-CC-PVTZ
  Basis Set: (AUG-CC-PVTZ AUX)
    Blend: AUG-CC-PVTZ-JKFIT

    Orbital Energies [Eh]
    ---------------------

    Doubly Occupied:

       1A    -20.527718     2A    -15.568026     3A    -11.337547
       4A    -11.306665     5A    -11.262581     6A    -11.261758
       7A    -11.260655     8A    -11.250543     9A    -11.244954
      10A    -11.244778    11A    -11.242132    12A    -11.240780
      13A    -11.239793    14A    -11.236324    15A    -11.234800
      16A    -11.231799    17A     -1.333913    18A     -1.249308
      19A     -1.159813    20A     -1.149482    21A     -1.066046
      22A     -1.021757    23A     -1.019187    24A     -1.016187
      25A     -0.936606    26A     -0.896620    27A     -0.842270
      28A     -0.831642    29A     -0.813238    30A     -0.773732
      31A     -0.716918    32A     -0.706480    33A     -0.683037
      34A     -0.657789    35A     -0.637552    36A     -0.632045
      37A     -0.621364    38A     -0.619587    39A     -0.604073
      40A     -0.599547    41A     -0.591679    42A     -0.576099
      43A     -0.547527    44A     -0.541127    45A     -0.531669
      46A     -0.518058    47A     -0.510172    48A     -0.504815
      49A     -0.496198    50A     -0.474647    51A     -0.434349
      52A     -0.415952    53A     -0.355912    54A     -0.341188
      55A     -0.337401    56A     -0.298846

  @DF-RHF Final Energy:  -667.24453594467934

   => Energetics <=

    Nuclear Repulsion Energy =           1002.8254590478552473
    One-Electron Energy =               -2896.6306184233635577
    Two-Electron Energy =                1226.5606234308288549
    Total Energy =                       -667.2445359446794555
  Basis Set: (AUG-CC-PVTZ AUX)
    Blend: AUG-CC-PVTZ-RI
    Molecular point group: c1

    Geometry (in Angstrom), charge = 0, multiplicity = 1:

       Center              X                  Y                   Z               Mass
    ------------   -----------------  -----------------  -----------------  -----------------
         O           -0.043857352756    -2.000245891502    -0.450293503975    15.994914619570
         N            2.478459647244    -1.474424891502     0.410769496025    14.003074004430
         C            0.831061647244     0.211011108498    -0.209153503975    12.000000000000
         C            2.173631647244    -0.173885891502     0.086644496025    12.000000000000
         C           -0.184297852756    -0.721728891502    -0.251574203975    12.000000000000
         C           -1.670508352756    -0.344470891502    -0.052058503975    12.000000000000
         C            0.555441647244     1.546390108498    -0.555961503975    12.000000000000
         C            3.157537647244     0.836650108498     0.124914496025    12.000000000000
         C            1.548803647244     2.517946108498    -0.554527503975    12.000000000000
         C            2.851425647244     2.152046108498    -0.205346503975    12.000000000000
         C           -2.012568352756     0.640863108498     0.886386496025    12.000000000000
         C           -2.680289352756    -1.015693891502    -0.756068503975    12.000000000000
         C           -3.354483352756     0.956054108498     1.104437496025    12.000000000000
         C           -4.016641352756    -0.679724891502    -0.550847503975    12.000000000000
         C            3.848664647244    -1.923688891502     0.538729496025    12.000000000000
         C           -4.356826352756     0.306199108498     0.380493496025    12.000000000000
         H           -0.458350352756     1.814109108498    -0.840120503975     1.007825032230
         H            4.182795647244     0.579634108498     0.371064496025     1.007825032230
         H            1.801191647244    -2.145607891502     0.063768496025     1.007825032230
         H            1.316962647244     3.541137108498    -0.836837503975     1.007825032230
         H            3.641513647244     2.900019108498    -0.185670503975     1.007825032230
         H           -1.233083352756     1.137823108498     1.458121496025     1.007825032230
         H           -2.399479352756    -1.797821891502    -1.456720503975     1.007825032230
         H           -3.618362352756     1.709869108498     1.842456496025     1.007825032230
         H           -4.796067352756    -1.191048891502    -1.110798503975     1.007825032230
         H            4.454276647244    -1.717759891502    -0.355458503975     1.007825032230
         H            3.834779647244    -3.001424891502     0.709402496025     1.007825032230
         H            4.334265647244    -1.453650891502     1.399627496025     1.007825032230
         H           -5.400708352756     0.562033108498     0.546157496025     1.007825032230

  Basis Set: AUG-CC-PVTZ
    Blend: AUG-CC-PVTZ
  Basis Set: (AUG-CC-PVTZ AUX)
    Blend: AUG-CC-PVTZ-JKFIT
	 Reference Energy          =    -667.2445359446793418 [Eh]
	 Singles Energy            =      -0.0000000000000000 [Eh]
	 Same-Spin Energy          =      -0.7366712927810130 [Eh]
	 Opposite-Spin Energy      =      -2.2692996723171235 [Eh]
	 Correlation Energy        =      -3.0059709650981365 [Eh]
	 Total Energy              =    -670.2505069097775277 [Eh]

	 ================> DF-SCS-MP2 Energies <==================
	-----------------------------------------------------------
	 SCS Same-Spin Scale       =       0.3333333333333333 [-]
	 SCS Opposite-Spin Scale   =       1.2000000000000000 [-]
	 SCS Same-Spin Energy      =      -0.2455570975936710 [Eh]
	 SCS Opposite-Spin Energy  =      -2.7231596067805479 [Eh]
	 SCS Correlation Energy    =      -2.9687167043742191 [Eh]
	 SCS Total Energy          =    -670.2132526490535156 [Eh]
	-----------------------------------------------------------

  Dipole Moment: [D]
     X:     1.2584      Y:     1.5996      Z:     0.3384     Total:     2.0632

*** Psi4 exiting successfully. Buy a developer a beer!
