                               Psi4 1.3.2 release

  ==> Input File <==

--------------------------------------------------------------------------
#psi4
#
memory 32 gb

molecule  {
0 1
  O       -0.0649480    -2.0007500    -0.4572220
  N        2.4573690    -1.4749290     0.4038410
  C        0.8099710     0.2105070    -0.2160820
  C        2.1059539    -0.1856501     0.0818999
  C       -0.2789970    -0.7898520    -0.2615780
  C       -1.6915990    -0.3449750    -0.0589870
  C        0.5343510     1.5458860    -0.5628900
  C        3.1364470     0.8361460     0.1179860
  C        1.5277130     2.5174420    -0.5614560
  C        2.8303350     2.1515420    -0.2122750
  C       -2.0336590     0.6403590     0.8794580
  C       -2.7013800    -1.0161980    -0.7629970
  C       -3.3755740     0.9555500     1.0975090
  C       -4.0377320    -0.6802290    -0.5577760
  C        3.8275740    -1.9241930     0.5318010
  C       -4.3779170     0.3056950     0.3735650
  H       -0.4794410     1.8136050    -0.8470490
  H        4.1617050     0.5791300     0.3641360
  H        1.7801010    -2.1461120     0.0568400
  H        1.2958720     3.5406330    -0.8437660
  H        3.6204230     2.8995150    -0.1925990
  H       -1.2541740     1.1373190     1.4511930
  H       -2.4205700    -1.7983260    -1.4636490
  H       -3.6394530     1.7093650     1.8355280
  H       -4.8171580    -1.1915530    -1.1177270
  H        4.4331860    -1.7182640    -0.3623870
  H        3.8136890    -3.0019290     0.7024740
  H        4.3131750    -1.4541550     1.3926990
  H       -5.4217990     0.5615290     0.5392290
units angstrom
no_reorient  #important for SAPT in psi4, default
symmetry c1  #important for SAPT in psi4, default
}

set PROPERTIES_ORIGIN ["COM"]
properties('MP2/aug-cc-pvtz', properties = ['dipole'])
--------------------------------------------------------------------------

    Molecular point group: c1
  Charge       = 0
  Multiplicity = 1
  Basis Set: AUG-CC-PVTZ
    Blend: AUG-CC-PVTZ
  Basis Set: (AUG-CC-PVTZ AUX)
    Blend: AUG-CC-PVTZ-JKFIT

    Orbital Energies [Eh]
    ---------------------

    Doubly Occupied:

       1A    -20.540251     2A    -15.562200     3A    -11.339947
       4A    -11.297819     5A    -11.258757     6A    -11.251728
       7A    -11.251517     8A    -11.250631     9A    -11.250294
      10A    -11.249231    11A    -11.247066    12A    -11.245054
      13A    -11.243595    14A    -11.234696    15A    -11.233134
      16A    -11.225779    17A     -1.373123    18A     -1.244289
      19A     -1.163648    20A     -1.142289    21A     -1.056456
      22A     -1.026459    23A     -1.022639    24A     -1.006474
      25A     -0.930308    26A     -0.887251    27A     -0.844622
      28A     -0.835647    29A     -0.809699    30A     -0.771636
      31A     -0.717964    32A     -0.699140    33A     -0.684754
      34A     -0.655204    35A     -0.645193    36A     -0.633328
      37A     -0.619001    38A     -0.615165    39A     -0.608190
      40A     -0.601726    41A     -0.596128    42A     -0.578515
      43A     -0.545832    44A     -0.542559    45A     -0.528756
      46A     -0.519124    47A     -0.513252    48A     -0.507073
      49A     -0.501315    50A     -0.486307    51A     -0.429268
      52A     -0.418138    53A     -0.350481    54A     -0.345413
      55A     -0.343291    56A     -0.291574

  @DF-RHF Final Energy:  -667.26037616831275

   => Energetics <=

    Nuclear Repulsion Energy =           1002.8924177596433083
    One-Electron Energy =               -2896.7597329630557397
    Two-Electron Energy =                1226.6069390350999129
    Total Energy =                       -667.2603761683126322
  Basis Set: (AUG-CC-PVTZ AUX)
    Blend: AUG-CC-PVTZ-RI
    Molecular point group: c1

    Geometry (in Angstrom), charge = 0, multiplicity = 1:

       Center              X                  Y                   Z               Mass
    ------------   -----------------  -----------------  -----------------  -----------------
         O           -0.037024812946    -1.995761995328    -0.450242832186    15.994914619570
         N            2.485292187054    -1.469940995328     0.410820167814    14.003074004430
         C            0.837894187054     0.215495004672    -0.209102832186    12.000000000000
         C            2.133877087054    -0.180662095328     0.088879067814    12.000000000000
         C           -0.251073812946    -0.784863995328    -0.254598832186    12.000000000000
         C           -1.663675812946    -0.339986995328    -0.052007832186    12.000000000000
         C            0.562274187054     1.550874004672    -0.555910832186    12.000000000000
         C            3.164370187054     0.841134004672     0.124965167814    12.000000000000
         C            1.555636187054     2.522430004672    -0.554476832186    12.000000000000
         C            2.858258187054     2.156530004672    -0.205295832186    12.000000000000
         C           -2.005735812946     0.645347004672     0.886437167814    12.000000000000
         C           -2.673456812946    -1.011209995328    -0.756017832186    12.000000000000
         C           -3.347650812946     0.960538004672     1.104488167814    12.000000000000
         C           -4.009808812946    -0.675240995328    -0.550796832186    12.000000000000
         C            3.855497187054    -1.919204995328     0.538780167814    12.000000000000
         C           -4.349993812946     0.310683004672     0.380544167814    12.000000000000
         H           -0.451517812946     1.818593004672    -0.840069832186     1.007825032230
         H            4.189628187054     0.584118004672     0.371115167814     1.007825032230
         H            1.808024187054    -2.141123995328     0.063819167814     1.007825032230
         H            1.323795187054     3.545621004672    -0.836786832186     1.007825032230
         H            3.648346187054     2.904503004672    -0.185619832186     1.007825032230
         H           -1.226250812946     1.142307004672     1.458172167814     1.007825032230
         H           -2.392646812946    -1.793337995328    -1.456669832186     1.007825032230
         H           -3.611529812946     1.714353004672     1.842507167814     1.007825032230
         H           -4.789234812946    -1.186564995328    -1.110747832186     1.007825032230
         H            4.461109187054    -1.713275995328    -0.355407832186     1.007825032230
         H            3.841612187054    -2.996940995328     0.709453167814     1.007825032230
         H            4.341098187054    -1.449166995328     1.399678167814     1.007825032230
         H           -5.393875812946     0.566517004672     0.546208167814     1.007825032230

  Basis Set: AUG-CC-PVTZ
    Blend: AUG-CC-PVTZ
  Basis Set: (AUG-CC-PVTZ AUX)
    Blend: AUG-CC-PVTZ-JKFIT
	 Reference Energy          =    -667.2603761683127459 [Eh]
	 Singles Energy            =      -0.0000000000000000 [Eh]
	 Same-Spin Energy          =      -0.7344918104125167 [Eh]
	 Opposite-Spin Energy      =      -2.2654806291736511 [Eh]
	 Correlation Energy        =      -2.9999724395861680 [Eh]
	 Total Energy              =    -670.2603486078988908 [Eh]

	 ================> DF-SCS-MP2 Energies <==================
	-----------------------------------------------------------
	 SCS Same-Spin Scale       =       0.3333333333333333 [-]
	 SCS Opposite-Spin Scale   =       1.2000000000000000 [-]
	 SCS Same-Spin Energy      =      -0.2448306034708389 [Eh]
	 SCS Opposite-Spin Energy  =      -2.7185767550083813 [Eh]
	 SCS Correlation Energy    =      -2.9634073584792202 [Eh]
	 SCS Total Energy          =    -670.2237835267919763 [Eh]
	-----------------------------------------------------------

  Dipole Moment: [D]
     X:     0.3483      Y:     1.1581      Z:     0.3574     Total:     1.2611

*** Psi4 exiting successfully. Buy a developer a beer!
