                               Psi4 1.3.2 release

  ==> Input File <==

--------------------------------------------------------------------------
#psi4
#
memory 32 gb

molecule  {
0 1
  O       -0.0649480    -2.0007500    -0.4572220
  N        2.4573690    -1.4749290     0.4038410
  C        0.7864302     0.2048203    -0.2201391
  C        2.1525410    -0.1743900     0.0797160
  C       -0.2789970    -0.7898520    -0.2615780
  C       -1.6915990    -0.3449750    -0.0589870
  C        0.5343510     1.5458860    -0.5628900
  C        3.1364470     0.8361460     0.1179860
  C        1.5277130     2.5174420    -0.5614560
  C        2.8303350     2.1515420    -0.2122750
  C       -2.0336590     0.6403590     0.8794580
  C       -2.7013800    -1.0161980    -0.7629970
  C       -3.3755740     0.9555500     1.0975090
  C       -4.0377320    -0.6802290    -0.5577760
  C        3.8275740    -1.9241930     0.5318010
  C       -4.3779170     0.3056950     0.3735650
  H       -0.4794410     1.8136050    -0.8470490
  H        4.1617050     0.5791300     0.3641360
  H        1.7801010    -2.1461120     0.0568400
  H        1.2958720     3.5406330    -0.8437660
  H        3.6204230     2.8995150    -0.1925990
  H       -1.2541740     1.1373190     1.4511930
  H       -2.4205700    -1.7983260    -1.4636490
  H       -3.6394530     1.7093650     1.8355280
  H       -4.8171580    -1.1915530    -1.1177270
  H        4.4331860    -1.7182640    -0.3623870
  H        3.8136890    -3.0019290     0.7024740
  H        4.3131750    -1.4541550     1.3926990
  H       -5.4217990     0.5615290     0.5392290
units angstrom
no_reorient  #important for SAPT in psi4, default
symmetry c1  #important for SAPT in psi4, default
}

set PROPERTIES_ORIGIN ["COM"]
properties('MP2/aug-cc-pvtz', properties = ['dipole'])
--------------------------------------------------------------------------

    Molecular point group: c1
  Charge       = 0
  Multiplicity = 1
  Basis Set: AUG-CC-PVTZ
    Blend: AUG-CC-PVTZ
  Basis Set: (AUG-CC-PVTZ AUX)
    Blend: AUG-CC-PVTZ-JKFIT

    Orbital Energies [Eh]
    ---------------------

    Doubly Occupied:

       1A    -20.538226     2A    -15.563391     3A    -11.338050
       4A    -11.300652     5A    -11.257680     6A    -11.254356
       7A    -11.253887     8A    -11.250774     9A    -11.249678
      10A    -11.248435    11A    -11.246309    12A    -11.244478
      13A    -11.243030    14A    -11.238796    15A    -11.228968
      16A    -11.226044    17A     -1.371801    18A     -1.244675
      19A     -1.163094    20A     -1.141617    21A     -1.057713
      22A     -1.025058    23A     -1.020270    24A     -1.009432
      25A     -0.930798    26A     -0.890349    27A     -0.845286
      28A     -0.833879    29A     -0.806726    30A     -0.771393
      31A     -0.718042    32A     -0.703009    33A     -0.683172
      34A     -0.656037    35A     -0.644587    36A     -0.633377
      37A     -0.619023    38A     -0.615417    39A     -0.607859
      40A     -0.602123    41A     -0.595667    42A     -0.577620
      43A     -0.545240    44A     -0.542907    45A     -0.531562
      46A     -0.520052    47A     -0.512089    48A     -0.501970
      49A     -0.500715    50A     -0.485626    51A     -0.429991
      52A     -0.419784    53A     -0.351147    54A     -0.344810
      55A     -0.342847    56A     -0.291477

  @DF-RHF Final Energy:  -667.26194462741660

   => Energetics <=

    Nuclear Repulsion Energy =           1002.5253474424707747
    One-Electron Energy =               -2896.0325926385994535
    Two-Electron Energy =                1226.2453005687120822
    Total Energy =                       -667.2619446274165966
  Basis Set: (AUG-CC-PVTZ AUX)
    Blend: AUG-CC-PVTZ-RI
    Molecular point group: c1

    Geometry (in Angstrom), charge = 0, multiplicity = 1:

       Center              X                  Y                   Z               Mass
    ------------   -----------------  -----------------  -----------------  -----------------
         O           -0.038334883882    -1.996078816222    -0.449888061455    15.994914619570
         N            2.483982116118    -1.470257816222     0.411174938545    14.003074004430
         C            0.813043316118     0.209491483778    -0.212805161455    12.000000000000
         C            2.179154116118    -0.169718816222     0.087049938545    12.000000000000
         C           -0.252383883882    -0.785180816222    -0.254244061455    12.000000000000
         C           -1.664985883882    -0.340303816222    -0.051653061455    12.000000000000
         C            0.560964116118     1.550557183778    -0.555556061455    12.000000000000
         C            3.163060116118     0.840817183778     0.125319938545    12.000000000000
         C            1.554326116118     2.522113183778    -0.554122061455    12.000000000000
         C            2.856948116118     2.156213183778    -0.204941061455    12.000000000000
         C           -2.007045883882     0.645030183778     0.886791938545    12.000000000000
         C           -2.674766883882    -1.011526816222    -0.755663061455    12.000000000000
         C           -3.348960883882     0.960221183778     1.104842938545    12.000000000000
         C           -4.011118883882    -0.675557816222    -0.550442061455    12.000000000000
         C            3.854187116118    -1.919521816222     0.539134938545    12.000000000000
         C           -4.351303883882     0.310366183778     0.380898938545    12.000000000000
         H           -0.452827883882     1.818276183778    -0.839715061455     1.007825032230
         H            4.188318116118     0.583801183778     0.371469938545     1.007825032230
         H            1.806714116118    -2.141440816222     0.064173938545     1.007825032230
         H            1.322485116118     3.545304183778    -0.836432061455     1.007825032230
         H            3.647036116118     2.904186183778    -0.185265061455     1.007825032230
         H           -1.227560883882     1.141990183778     1.458526938545     1.007825032230
         H           -2.393956883882    -1.793654816222    -1.456315061455     1.007825032230
         H           -3.612839883882     1.714036183778     1.842861938545     1.007825032230
         H           -4.790544883882    -1.186881816222    -1.110393061455     1.007825032230
         H            4.459799116118    -1.713592816222    -0.355053061455     1.007825032230
         H            3.840302116118    -2.997257816222     0.709807938545     1.007825032230
         H            4.339788116118    -1.449483816222     1.400032938545     1.007825032230
         H           -5.395185883882     0.566200183778     0.546562938545     1.007825032230

  Basis Set: AUG-CC-PVTZ
    Blend: AUG-CC-PVTZ
  Basis Set: (AUG-CC-PVTZ AUX)
    Blend: AUG-CC-PVTZ-JKFIT
	 Reference Energy          =    -667.2619446274165966 [Eh]
	 Singles Energy            =      -0.0000000000000000 [Eh]
	 Same-Spin Energy          =      -0.7347459423779541 [Eh]
	 Opposite-Spin Energy      =      -2.2654572536051778 [Eh]
	 Correlation Energy        =      -3.0002031959831319 [Eh]
	 Total Energy              =    -670.2621478233996868 [Eh]

	 ================> DF-SCS-MP2 Energies <==================
	-----------------------------------------------------------
	 SCS Same-Spin Scale       =       0.3333333333333333 [-]
	 SCS Opposite-Spin Scale   =       1.2000000000000000 [-]
	 SCS Same-Spin Energy      =      -0.2449153141259847 [Eh]
	 SCS Opposite-Spin Energy  =      -2.7185487043262131 [Eh]
	 SCS Correlation Energy    =      -2.9634640184521976 [Eh]
	 SCS Total Energy          =    -670.2254086458688107 [Eh]
	-----------------------------------------------------------

  Dipole Moment: [D]
     X:     0.4294      Y:     1.2206      Z:     0.3567     Total:     1.3422

*** Psi4 exiting successfully. Buy a developer a beer!
