                               Psi4 1.3.2 release

  ==> Input File <==

--------------------------------------------------------------------------
#psi4
#
memory 32 gb

molecule  {
0 1
  O       -0.0649480    -2.0007500    -0.4572220
  N        2.4573690    -1.4749290     0.4038410
  C        0.9076514     0.0934157    -0.2430516
  C        2.1525410    -0.1743900     0.0797160
  C       -0.2789970    -0.7898520    -0.2615780
  C       -1.6915990    -0.3449750    -0.0589870
  C        0.5343510     1.5458860    -0.5628900
  C        3.1364470     0.8361460     0.1179860
  C        1.5277130     2.5174420    -0.5614560
  C        2.8303350     2.1515420    -0.2122750
  C       -2.0336590     0.6403590     0.8794580
  C       -2.7013800    -1.0161980    -0.7629970
  C       -3.3755740     0.9555500     1.0975090
  C       -4.0377320    -0.6802290    -0.5577760
  C        3.8275740    -1.9241930     0.5318010
  C       -4.3779170     0.3056950     0.3735650
  H       -0.4794410     1.8136050    -0.8470490
  H        4.1617050     0.5791300     0.3641360
  H        1.7801010    -2.1461120     0.0568400
  H        1.2958720     3.5406330    -0.8437660
  H        3.6204230     2.8995150    -0.1925990
  H       -1.2541740     1.1373190     1.4511930
  H       -2.4205700    -1.7983260    -1.4636490
  H       -3.6394530     1.7093650     1.8355280
  H       -4.8171580    -1.1915530    -1.1177270
  H        4.4331860    -1.7182640    -0.3623870
  H        3.8136890    -3.0019290     0.7024740
  H        4.3131750    -1.4541550     1.3926990
  H       -5.4217990     0.5615290     0.5392290
units angstrom
no_reorient  #important for SAPT in psi4, default
symmetry c1  #important for SAPT in psi4, default
}

set PROPERTIES_ORIGIN ["COM"]
properties('MP2/aug-cc-pvtz', properties = ['dipole'])
--------------------------------------------------------------------------

    Molecular point group: c1
  Charge       = 0
  Multiplicity = 1
  Basis Set: AUG-CC-PVTZ
    Blend: AUG-CC-PVTZ
  Basis Set: (AUG-CC-PVTZ AUX)
    Blend: AUG-CC-PVTZ-JKFIT

    Orbital Energies [Eh]
    ---------------------

    Doubly Occupied:

       1A    -20.535995     2A    -15.552414     3A    -11.339739
       4A    -11.281946     5A    -11.259391     6A    -11.254360
       7A    -11.253066     8A    -11.252825     9A    -11.252712
      10A    -11.251788    11A    -11.249369    12A    -11.246364
      13A    -11.245082    14A    -11.234940    15A    -11.233769
      16A    -11.229791    17A     -1.372242    18A     -1.245668
      19A     -1.164431    20A     -1.136805    21A     -1.052906
      22A     -1.030239    23A     -1.025564    24A     -1.006343
      25A     -0.924634    26A     -0.887096    27A     -0.850237
      28A     -0.838646    29A     -0.808493    30A     -0.770448
      31A     -0.721031    32A     -0.697861    33A     -0.679957
      34A     -0.661559    35A     -0.646517    36A     -0.633257
      37A     -0.621891    38A     -0.613499    39A     -0.608168
      40A     -0.599682    41A     -0.595238    42A     -0.569262
      43A     -0.546854    44A     -0.540858    45A     -0.527033
      46A     -0.520825    47A     -0.513858    48A     -0.506065
      49A     -0.499216    50A     -0.484528    51A     -0.426604
      52A     -0.417296    53A     -0.348256    54A     -0.345594
      55A     -0.334615    56A     -0.301702

  @DF-RHF Final Energy:  -667.23733682626062

   => Energetics <=

    Nuclear Repulsion Energy =           1002.7359478412067801
    One-Electron Energy =               -2896.4495124933791885
    Two-Electron Energy =                1226.4762278259117920
    Total Energy =                       -667.2373368262606164
  Basis Set: (AUG-CC-PVTZ AUX)
    Blend: AUG-CC-PVTZ-RI
    Molecular point group: c1

    Geometry (in Angstrom), charge = 0, multiplicity = 1:

       Center              X                  Y                   Z               Mass
    ------------   -----------------  -----------------  -----------------  -----------------
         O           -0.045225724102    -1.989746002338    -0.448585596403    15.994914619570
         N            2.477091275898    -1.463925002338     0.412477403597    14.003074004430
         C            0.927373675898     0.104419697662    -0.234415196403    12.000000000000
         C            2.172263275898    -0.163386002338     0.088352403597    12.000000000000
         C           -0.259274724102    -0.778848002338    -0.252941596403    12.000000000000
         C           -1.671876724102    -0.333971002338    -0.050350596403    12.000000000000
         C            0.554073275898     1.556889997662    -0.554253596403    12.000000000000
         C            3.156169275898     0.847149997662     0.126622403597    12.000000000000
         C            1.547435275898     2.528445997662    -0.552819596403    12.000000000000
         C            2.850057275898     2.162545997662    -0.203638596403    12.000000000000
         C           -2.013936724102     0.651362997662     0.888094403597    12.000000000000
         C           -2.681657724102    -1.005194002338    -0.754360596403    12.000000000000
         C           -3.355851724102     0.966553997662     1.106145403597    12.000000000000
         C           -4.018009724102    -0.669225002338    -0.549139596403    12.000000000000
         C            3.847296275898    -1.913189002338     0.540437403597    12.000000000000
         C           -4.358194724102     0.316698997662     0.382201403597    12.000000000000
         H           -0.459718724102     1.824608997662    -0.838412596403     1.007825032230
         H            4.181427275898     0.590133997662     0.372772403597     1.007825032230
         H            1.799823275898    -2.135108002338     0.065476403597     1.007825032230
         H            1.315594275898     3.551636997662    -0.835129596403     1.007825032230
         H            3.640145275898     2.910518997662    -0.183962596403     1.007825032230
         H           -1.234451724102     1.148322997662     1.459829403597     1.007825032230
         H           -2.400847724102    -1.787322002338    -1.455012596403     1.007825032230
         H           -3.619730724102     1.720368997662     1.844164403597     1.007825032230
         H           -4.797435724102    -1.180549002338    -1.109090596403     1.007825032230
         H            4.452908275898    -1.707260002338    -0.353750596403     1.007825032230
         H            3.833411275898    -2.990925002338     0.711110403597     1.007825032230
         H            4.332897275898    -1.443151002338     1.401335403597     1.007825032230
         H           -5.402076724102     0.572532997662     0.547865403597     1.007825032230

  Basis Set: AUG-CC-PVTZ
    Blend: AUG-CC-PVTZ
  Basis Set: (AUG-CC-PVTZ AUX)
    Blend: AUG-CC-PVTZ-JKFIT
	 Reference Energy          =    -667.2373368262606164 [Eh]
	 Singles Energy            =      -0.0000000000000000 [Eh]
	 Same-Spin Energy          =      -0.7343145128414652 [Eh]
	 Opposite-Spin Energy      =      -2.2668758457039440 [Eh]
	 Correlation Energy        =      -3.0011903585454092 [Eh]
	 Total Energy              =    -670.2385271848060029 [Eh]

	 ================> DF-SCS-MP2 Energies <==================
	-----------------------------------------------------------
	 SCS Same-Spin Scale       =       0.3333333333333333 [-]
	 SCS Opposite-Spin Scale   =       1.2000000000000000 [-]
	 SCS Same-Spin Energy      =      -0.2447715042804884 [Eh]
	 SCS Opposite-Spin Energy  =      -2.7202510148447328 [Eh]
	 SCS Correlation Energy    =      -2.9650225191252213 [Eh]
	 SCS Total Energy          =    -670.2023593453858439 [Eh]
	-----------------------------------------------------------

  Dipole Moment: [D]
     X:     0.1552      Y:     1.4587      Z:     0.3235     Total:     1.5021

*** Psi4 exiting successfully. Buy a developer a beer!
