                               Psi4 1.4a3.dev225

  ==> Input File <==

--------------------------------------------------------------------------
#psi4
#
memory 32 gb

molecule  {
0 1
  O       -0.0649480    -2.0007500    -0.4572220
  N        2.4573690    -1.4749290     0.4038410
  C        0.8099710     0.2105070    -0.2160820
  C        2.1525410    -0.1743900     0.0797160
  C       -0.2789970    -0.7898520    -0.2615780
  C       -1.6915990    -0.3449750    -0.0589870
  C        0.5343510     1.5458860    -0.5628900
  C        3.1364470     0.8361460     0.1179860
  C        1.5277130     2.5174420    -0.5614560
  C        2.8303350     2.1515420    -0.2122750
  C       -2.0385349     0.6544045     0.8928352
  C       -2.7013800    -1.0161980    -0.7629970
  C       -3.3755740     0.9555500     1.0975090
  C       -4.0377320    -0.6802290    -0.5577760
  C        3.8275740    -1.9241930     0.5318010
  C       -4.3779170     0.3056950     0.3735650
  H       -0.4794410     1.8136050    -0.8470490
  H        4.1617050     0.5791300     0.3641360
  H        1.7801010    -2.1461120     0.0568400
  H        1.2958720     3.5406330    -0.8437660
  H        3.6204230     2.8995150    -0.1925990
  H       -1.2541740     1.1373190     1.4511930
  H       -2.4205700    -1.7983260    -1.4636490
  H       -3.6394530     1.7093650     1.8355280
  H       -4.8171580    -1.1915530    -1.1177270
  H        4.4331860    -1.7182640    -0.3623870
  H        3.8136890    -3.0019290     0.7024740
  H        4.3131750    -1.4541550     1.3926990
  H       -5.4217990     0.5615290     0.5392290
units angstrom
no_reorient  #important for SAPT in psi4, default
symmetry c1  #important for SAPT in psi4, default
}

set PROPERTIES_ORIGIN ["COM"]
properties('MP2/aug-cc-pvtz', properties = ['dipole'])
--------------------------------------------------------------------------

    Molecular point group: c1
  Charge       = 0
  Multiplicity = 1
  Basis Set: AUG-CC-PVTZ
    Blend: AUG-CC-PVTZ
  Basis Set: (AUG-CC-PVTZ AUX)
    Blend: AUG-CC-PVTZ-JKFIT

    Orbital Energies [Eh]
    ---------------------

    Doubly Occupied:

       1A    -20.539491     2A    -15.561882     3A    -11.340020
       4A    -11.297222     5A    -11.257079     6A    -11.252657
       7A    -11.252601     8A    -11.251849     9A    -11.250770
      10A    -11.250483    11A    -11.247283    12A    -11.244148
      13A    -11.243860    14A    -11.238589    15A    -11.228903
      16A    -11.225911    17A     -1.372274    18A     -1.244382
      19A     -1.162423    20A     -1.142057    21A     -1.055224
      22A     -1.026956    23A     -1.019875    24A     -1.009976
      25A     -0.929439    26A     -0.889079    27A     -0.846032
      28A     -0.833622    29A     -0.807304    30A     -0.770878
      31A     -0.718069    32A     -0.701734    33A     -0.684153
      34A     -0.655824    35A     -0.645100    36A     -0.633132
      37A     -0.619432    38A     -0.615171    39A     -0.606993
      40A     -0.601132    41A     -0.597726    42A     -0.577598
      43A     -0.545427    44A     -0.542242    45A     -0.531042
      46A     -0.521369    47A     -0.512390    48A     -0.503967
      49A     -0.499678    50A     -0.486430    51A     -0.429380
      52A     -0.418979    53A     -0.350744    54A     -0.344676
      55A     -0.343008    56A     -0.292056

  @DF-RHF Final Energy:  -667.26224778568849

   => Energetics <=

    Nuclear Repulsion Energy =           1002.2058344246236175
    One-Electron Energy =               -2895.3967209976162849
    Two-Electron Energy =                1225.9286387873041804
    Total Energy =                       -667.2622477856884871
  Basis Set: (AUG-CC-PVTZ AUX)
    Blend: AUG-CC-PVTZ-RI
    Molecular point group: c1

    Geometry (in Angstrom), charge = 0, multiplicity = 1:

       Center              X                  Y                   Z               Mass
    ------------   -----------------  -----------------  -----------------  -----------------
         O           -0.039395893373    -1.997200496566    -0.450879117274    15.994914619570
         N            2.482921106627    -1.471379496566     0.410183882726    14.003074004430
         C            0.835523106627     0.214056503434    -0.209739117274    12.000000000000
         C            2.178093106627    -0.170840496566     0.086058882726    12.000000000000
         C           -0.253444893373    -0.786302496566    -0.255235117274    12.000000000000
         C           -1.666046893373    -0.341425496566    -0.052644117274    12.000000000000
         C            0.559903106627     1.549435503434    -0.556547117274    12.000000000000
         C            3.161999106627     0.839695503434     0.124328882726    12.000000000000
         C            1.553265106627     2.520991503434    -0.555113117274    12.000000000000
         C            2.855887106627     2.155091503434    -0.205932117274    12.000000000000
         C           -2.012982793373     0.657954003434     0.899178082726    12.000000000000
         C           -2.675827893373    -1.012648496566    -0.756654117274    12.000000000000
         C           -3.350021893373     0.959099503434     1.103851882726    12.000000000000
         C           -4.012179893373    -0.676679496566    -0.551433117274    12.000000000000
         C            3.853126106627    -1.920643496566     0.538143882726    12.000000000000
         C           -4.352364893373     0.309244503434     0.379907882726    12.000000000000
         H           -0.453888893373     1.817154503434    -0.840706117274     1.007825032230
         H            4.187257106627     0.582679503434     0.370478882726     1.007825032230
         H            1.805653106627    -2.142562496566     0.063182882726     1.007825032230
         H            1.321424106627     3.544182503434    -0.837423117274     1.007825032230
         H            3.645975106627     2.903064503434    -0.186256117274     1.007825032230
         H           -1.228621893373     1.140868503434     1.457535882726     1.007825032230
         H           -2.395017893373    -1.794776496566    -1.457306117274     1.007825032230
         H           -3.613900893373     1.712914503434     1.841870882726     1.007825032230
         H           -4.791605893373    -1.188003496566    -1.111384117274     1.007825032230
         H            4.458738106627    -1.714714496566    -0.356044117274     1.007825032230
         H            3.839241106627    -2.998379496566     0.708816882726     1.007825032230
         H            4.338727106627    -1.450605496566     1.399041882726     1.007825032230
         H           -5.396246893373     0.565078503434     0.545571882726     1.007825032230

  Basis Set: AUG-CC-PVTZ
    Blend: AUG-CC-PVTZ
  Basis Set: (AUG-CC-PVTZ AUX)
    Blend: AUG-CC-PVTZ-JKFIT
	 Reference Energy          =    -667.2622477856884871 [Eh]
	 Singles Energy            =      -0.0000000000000000 [Eh]
	 Same-Spin Energy          =      -0.7346214882638885 [Eh]
	 Opposite-Spin Energy      =      -2.2653671634359851 [Eh]
	 Correlation Energy        =      -2.9999886516998737 [Eh]
	 Total Energy              =    -670.2622364373883102 [Eh]

	 ================> DF-SCS-MP2 Energies <==================
	-----------------------------------------------------------
	 SCS Same-Spin Scale       =       0.3333333333333333 [-]
	 SCS Opposite-Spin Scale   =       1.2000000000000000 [-]
	 SCS Same-Spin Energy      =      -0.2448738294212962 [Eh]
	 SCS Opposite-Spin Energy  =      -2.7184405961231821 [Eh]
	 SCS Correlation Energy    =      -2.9633144255444783 [Eh]
	 SCS Total Energy          =    -670.2255622112329547 [Eh]
	-----------------------------------------------------------

  Dipole Moment: [D]
     X:     0.3154      Y:     1.2002      Z:     0.3424     Total:     1.2873

*** Psi4 exiting successfully. Buy a developer a beer!
