                               Psi4 1.3.2 release

  ==> Input File <==

--------------------------------------------------------------------------
#psi4
#
memory 32 gb

molecule  {
0 1
  O       -0.0649480    -2.0007500    -0.4572220
  N        2.4573690    -1.4749290     0.4038410
  C        0.8099710     0.2105070    -0.2160820
  C        2.1599460    -0.1509701     0.0755312
  C       -0.2789970    -0.7898520    -0.2615780
  C       -1.6915990    -0.3449750    -0.0589870
  C        0.5343510     1.5458860    -0.5628900
  C        3.1364470     0.8361460     0.1179860
  C        1.5277130     2.5174420    -0.5614560
  C        2.8303350     2.1515420    -0.2122750
  C       -2.0336590     0.6403590     0.8794580
  C       -2.7013800    -1.0161980    -0.7629970
  C       -3.3755740     0.9555500     1.0975090
  C       -4.0377320    -0.6802290    -0.5577760
  C        3.8275740    -1.9241930     0.5318010
  C       -4.3779170     0.3056950     0.3735650
  H       -0.4794410     1.8136050    -0.8470490
  H        4.1617050     0.5791300     0.3641360
  H        1.7801010    -2.1461120     0.0568400
  H        1.2958720     3.5406330    -0.8437660
  H        3.6204230     2.8995150    -0.1925990
  H       -1.2541740     1.1373190     1.4511930
  H       -2.4205700    -1.7983260    -1.4636490
  H       -3.6394530     1.7093650     1.8355280
  H       -4.8171580    -1.1915530    -1.1177270
  H        4.4331860    -1.7182640    -0.3623870
  H        3.8136890    -3.0019290     0.7024740
  H        4.3131750    -1.4541550     1.3926990
  H       -5.4217990     0.5615290     0.5392290
units angstrom
no_reorient  #important for SAPT in psi4, default
symmetry c1  #important for SAPT in psi4, default
}

set PROPERTIES_ORIGIN ["COM"]
properties('MP2/aug-cc-pvtz', properties = ['dipole'])
--------------------------------------------------------------------------

    Molecular point group: c1
  Charge       = 0
  Multiplicity = 1
  Basis Set: AUG-CC-PVTZ
    Blend: AUG-CC-PVTZ
  Basis Set: (AUG-CC-PVTZ AUX)
    Blend: AUG-CC-PVTZ-JKFIT

    Orbital Energies [Eh]
    ---------------------

    Doubly Occupied:

       1A    -20.540407     2A    -15.558393     3A    -11.341220
       4A    -11.295239     5A    -11.254448     6A    -11.253721
       7A    -11.253399     8A    -11.251899     9A    -11.250644
      10A    -11.249955    11A    -11.247502    12A    -11.245361
      13A    -11.243939    14A    -11.240035    15A    -11.227762
      16A    -11.227471    17A     -1.372847    18A     -1.236953
      19A     -1.164008    20A     -1.143464    21A     -1.057221
      22A     -1.026048    23A     -1.021132    24A     -1.012078
      25A     -0.925737    26A     -0.889998    27A     -0.845913
      28A     -0.835105    29A     -0.807436    30A     -0.771965
      31A     -0.718670    32A     -0.699963    33A     -0.682550
      34A     -0.655888    35A     -0.645019    36A     -0.633075
      37A     -0.620210    38A     -0.612860    39A     -0.608088
      40A     -0.601701    41A     -0.596489    42A     -0.577195
      43A     -0.545554    44A     -0.540971    45A     -0.530245
      46A     -0.520945    47A     -0.513217    48A     -0.504426
      49A     -0.501601    50A     -0.486766    51A     -0.425797
      52A     -0.420149    53A     -0.351290    54A     -0.345538
      55A     -0.343723    56A     -0.294592

  @DF-RHF Final Energy:  -667.26205576132622

   => Energetics <=

    Nuclear Repulsion Energy =           1002.4740831561442747
    One-Electron Energy =               -2895.9366337487804230
    Two-Electron Energy =                1226.2004948313099248
    Total Energy =                       -667.2620557613261099
  Basis Set: (AUG-CC-PVTZ AUX)
    Blend: AUG-CC-PVTZ-RI
    Molecular point group: c1

    Geometry (in Angstrom), charge = 0, multiplicity = 1:

       Center              X                  Y                   Z               Mass
    ------------   -----------------  -----------------  -----------------  -----------------
         O           -0.040094003271    -1.997733385966    -0.449880802326    15.994914619570
         N            2.482222996729    -1.471912385966     0.411182197674    14.003074004430
         C            0.834824996729     0.213523614034    -0.208740802326    12.000000000000
         C            2.184799996729    -0.147953485966     0.082872397674    12.000000000000
         C           -0.254143003271    -0.786835385966    -0.254236802326    12.000000000000
         C           -1.666745003271    -0.341958385966    -0.051645802326    12.000000000000
         C            0.559204996729     1.548902614034    -0.555548802326    12.000000000000
         C            3.161300996729     0.839162614034     0.125327197674    12.000000000000
         C            1.552566996729     2.520458614034    -0.554114802326    12.000000000000
         C            2.855188996729     2.154558614034    -0.204933802326    12.000000000000
         C           -2.008805003271     0.643375614034     0.886799197674    12.000000000000
         C           -2.676526003271    -1.013181385966    -0.755655802326    12.000000000000
         C           -3.350720003271     0.958566614034     1.104850197674    12.000000000000
         C           -4.012878003271    -0.677212385966    -0.550434802326    12.000000000000
         C            3.852427996729    -1.921176385966     0.539142197674    12.000000000000
         C           -4.353063003271     0.308711614034     0.380906197674    12.000000000000
         H           -0.454587003271     1.816621614034    -0.839707802326     1.007825032230
         H            4.186558996729     0.582146614034     0.371477197674     1.007825032230
         H            1.804954996729    -2.143095385966     0.064181197674     1.007825032230
         H            1.320725996729     3.543649614034    -0.836424802326     1.007825032230
         H            3.645276996729     2.902531614034    -0.185257802326     1.007825032230
         H           -1.229320003271     1.140335614034     1.458534197674     1.007825032230
         H           -2.395716003271    -1.795309385966    -1.456307802326     1.007825032230
         H           -3.614599003271     1.712381614034     1.842869197674     1.007825032230
         H           -4.792304003271    -1.188536385966    -1.110385802326     1.007825032230
         H            4.458039996729    -1.715247385966    -0.355045802326     1.007825032230
         H            3.838542996729    -2.998912385966     0.709815197674     1.007825032230
         H            4.338028996729    -1.451138385966     1.400040197674     1.007825032230
         H           -5.396945003271     0.564545614034     0.546570197674     1.007825032230

  Basis Set: AUG-CC-PVTZ
    Blend: AUG-CC-PVTZ
  Basis Set: (AUG-CC-PVTZ AUX)
    Blend: AUG-CC-PVTZ-JKFIT
	 Reference Energy          =    -667.2620557613262235 [Eh]
	 Singles Energy            =      -0.0000000000000000 [Eh]
	 Same-Spin Energy          =      -0.7345518031955456 [Eh]
	 Opposite-Spin Energy      =      -2.2652971219217490 [Eh]
	 Correlation Energy        =      -2.9998489251172948 [Eh]
	 Total Energy              =    -670.2619046864434722 [Eh]

	 ================> DF-SCS-MP2 Energies <==================
	-----------------------------------------------------------
	 SCS Same-Spin Scale       =       0.3333333333333333 [-]
	 SCS Opposite-Spin Scale   =       1.2000000000000000 [-]
	 SCS Same-Spin Energy      =      -0.2448506010651819 [Eh]
	 SCS Opposite-Spin Energy  =      -2.7183565463060986 [Eh]
	 SCS Correlation Energy    =      -2.9632071473712802 [Eh]
	 SCS Total Energy          =    -670.2252629086974594 [Eh]
	-----------------------------------------------------------

  Dipole Moment: [D]
     X:     0.2173      Y:     1.3514      Z:     0.3011     Total:     1.4015

*** Psi4 exiting successfully. Buy a developer a beer!
