                               Psi4 1.3.2 release

  ==> Input File <==

--------------------------------------------------------------------------
#psi4
#
memory 32 gb

molecule  {
0 1
  O       -0.0649480    -2.0007500    -0.4572220
  N        2.4573690    -1.4749290     0.4038410
  C        0.8334840     0.2165452    -0.2123877
  C        2.1525410    -0.1743900     0.0797160
  C       -0.2789970    -0.7898520    -0.2615780
  C       -1.6915990    -0.3449750    -0.0589870
  C        0.5343510     1.5458860    -0.5628900
  C        3.1364470     0.8361460     0.1179860
  C        1.5277130     2.5174420    -0.5614560
  C        2.8303350     2.1515420    -0.2122750
  C       -2.0336590     0.6403590     0.8794580
  C       -2.7013800    -1.0161980    -0.7629970
  C       -3.3755740     0.9555500     1.0975090
  C       -4.0377320    -0.6802290    -0.5577760
  C        3.8275740    -1.9241930     0.5318010
  C       -4.3779170     0.3056950     0.3735650
  H       -0.4794410     1.8136050    -0.8470490
  H        4.1617050     0.5791300     0.3641360
  H        1.7801010    -2.1461120     0.0568400
  H        1.2958720     3.5406330    -0.8437660
  H        3.6204230     2.8995150    -0.1925990
  H       -1.2541740     1.1373190     1.4511930
  H       -2.4205700    -1.7983260    -1.4636490
  H       -3.6394530     1.7093650     1.8355280
  H       -4.8171580    -1.1915530    -1.1177270
  H        4.4331860    -1.7182640    -0.3623870
  H        3.8136890    -3.0019290     0.7024740
  H        4.3131750    -1.4541550     1.3926990
  H       -5.4217990     0.5615290     0.5392290
units angstrom
no_reorient  #important for SAPT in psi4, default
symmetry c1  #important for SAPT in psi4, default
}

set PROPERTIES_ORIGIN ["COM"]
properties('MP2/aug-cc-pvtz', properties = ['dipole'])
--------------------------------------------------------------------------

    Molecular point group: c1
  Charge       = 0
  Multiplicity = 1
  Basis Set: AUG-CC-PVTZ
    Blend: AUG-CC-PVTZ
  Basis Set: (AUG-CC-PVTZ AUX)
    Blend: AUG-CC-PVTZ-JKFIT

    Orbital Energies [Eh]
    ---------------------

    Doubly Occupied:

       1A    -20.541093     2A    -15.560497     3A    -11.342009
       4A    -11.293778     5A    -11.256550     6A    -11.251989
       7A    -11.251479     8A    -11.251068     9A    -11.250740
      10A    -11.250146    11A    -11.247678    12A    -11.245412
      13A    -11.244020    14A    -11.238375    15A    -11.228913
      16A    -11.225849    17A     -1.373080    18A     -1.244228
      19A     -1.163918    20A     -1.142653    21A     -1.054666
      22A     -1.025975    23A     -1.021062    24A     -1.010620
      25A     -0.928202    26A     -0.887286    27A     -0.844968
      28A     -0.835264    29A     -0.808492    30A     -0.771561
      31A     -0.717887    32A     -0.700230    33A     -0.683792
      34A     -0.655608    35A     -0.645415    36A     -0.633320
      37A     -0.619606    38A     -0.615034    39A     -0.608275
      40A     -0.600914    41A     -0.596359    42A     -0.577627
      43A     -0.544996    44A     -0.541640    45A     -0.530203
      46A     -0.520458    47A     -0.513597    48A     -0.505779
      49A     -0.501684    50A     -0.487322    51A     -0.428786
      52A     -0.417962    53A     -0.350028    54A     -0.345440
      55A     -0.343483    56A     -0.292836

  @DF-RHF Final Energy:  -667.26250509789361

   => Energetics <=

    Nuclear Repulsion Energy =           1002.5090472165103392
    One-Electron Energy =               -2896.0034029082280540
    Two-Electron Energy =                1226.2318505938242197
    Total Energy =                       -667.2625050978936088
  Basis Set: (AUG-CC-PVTZ AUX)
    Blend: AUG-CC-PVTZ-RI
    Molecular point group: c1

    Geometry (in Angstrom), charge = 0, multiplicity = 1:

       Center              X                  Y                   Z               Mass
    ------------   -----------------  -----------------  -----------------  -----------------
         O           -0.041009665336    -1.996745320204    -0.450328691137    15.994914619570
         N            2.481307334664    -1.470924320204     0.410734308863    14.003074004430
         C            0.857422334664     0.220549879796    -0.205494391137    12.000000000000
         C            2.176479334664    -0.170385320204     0.086609308863    12.000000000000
         C           -0.255058665336    -0.785847320204    -0.254684691137    12.000000000000
         C           -1.667660665336    -0.340970320204    -0.052093691137    12.000000000000
         C            0.558289334664     1.549890679796    -0.555996691137    12.000000000000
         C            3.160385334664     0.840150679796     0.124879308863    12.000000000000
         C            1.551651334664     2.521446679796    -0.554562691137    12.000000000000
         C            2.854273334664     2.155546679796    -0.205381691137    12.000000000000
         C           -2.009720665336     0.644363679796     0.886351308863    12.000000000000
         C           -2.677441665336    -1.012193320204    -0.756103691137    12.000000000000
         C           -3.351635665336     0.959554679796     1.104402308863    12.000000000000
         C           -4.013793665336    -0.676224320204    -0.550882691137    12.000000000000
         C            3.851512334664    -1.920188320204     0.538694308863    12.000000000000
         C           -4.353978665336     0.309699679796     0.380458308863    12.000000000000
         H           -0.455502665336     1.817609679796    -0.840155691137     1.007825032230
         H            4.185643334664     0.583134679796     0.371029308863     1.007825032230
         H            1.804039334664    -2.142107320204     0.063733308863     1.007825032230
         H            1.319810334664     3.544637679796    -0.836872691137     1.007825032230
         H            3.644361334664     2.903519679796    -0.185705691137     1.007825032230
         H           -1.230235665336     1.141323679796     1.458086308863     1.007825032230
         H           -2.396631665336    -1.794321320204    -1.456755691137     1.007825032230
         H           -3.615514665336     1.713369679796     1.842421308863     1.007825032230
         H           -4.793219665336    -1.187548320204    -1.110833691137     1.007825032230
         H            4.457124334664    -1.714259320204    -0.355493691137     1.007825032230
         H            3.837627334664    -2.997924320204     0.709367308863     1.007825032230
         H            4.337113334664    -1.450150320204     1.399592308863     1.007825032230
         H           -5.397860665336     0.565533679796     0.546122308863     1.007825032230

  Basis Set: AUG-CC-PVTZ
    Blend: AUG-CC-PVTZ
  Basis Set: (AUG-CC-PVTZ AUX)
    Blend: AUG-CC-PVTZ-JKFIT
	 Reference Energy          =    -667.2625050978936088 [Eh]
	 Singles Energy            =      -0.0000000000000000 [Eh]
	 Same-Spin Energy          =      -0.7344883266275679 [Eh]
	 Opposite-Spin Energy      =      -2.2651690025131259 [Eh]
	 Correlation Energy        =      -2.9996573291406938 [Eh]
	 Total Energy              =    -670.2621624270343546 [Eh]

	 ================> DF-SCS-MP2 Energies <==================
	-----------------------------------------------------------
	 SCS Same-Spin Scale       =       0.3333333333333333 [-]
	 SCS Opposite-Spin Scale   =       1.2000000000000000 [-]
	 SCS Same-Spin Energy      =      -0.2448294422091893 [Eh]
	 SCS Opposite-Spin Energy  =      -2.7182028030157510 [Eh]
	 SCS Correlation Energy    =      -2.9630322452249405 [Eh]
	 SCS Total Energy          =    -670.2255373431185035 [Eh]
	-----------------------------------------------------------

  Dipole Moment: [D]
     X:     0.2174      Y:     1.1874      Z:     0.3346     Total:     1.2526

*** Psi4 exiting successfully. Buy a developer a beer!
