                               Psi4 1.3.2 release

  ==> Input File <==

--------------------------------------------------------------------------
#psi4
#
memory 32 gb

molecule  {
0 1
  O       -0.0436638    -1.9965752    -0.4585679
  N        2.4573690    -1.4749290     0.4038410
  C        0.8099710     0.2105070    -0.2160820
  C        2.1525410    -0.1743900     0.0797160
  C       -0.2789970    -0.7898520    -0.2615780
  C       -1.6915990    -0.3449750    -0.0589870
  C        0.5343510     1.5458860    -0.5628900
  C        3.1364470     0.8361460     0.1179860
  C        1.5277130     2.5174420    -0.5614560
  C        2.8303350     2.1515420    -0.2122750
  C       -2.0336590     0.6403590     0.8794580
  C       -2.7013800    -1.0161980    -0.7629970
  C       -3.3755740     0.9555500     1.0975090
  C       -4.0377320    -0.6802290    -0.5577760
  C        3.8275740    -1.9241930     0.5318010
  C       -4.3779170     0.3056950     0.3735650
  H       -0.4794410     1.8136050    -0.8470490
  H        4.1617050     0.5791300     0.3641360
  H        1.7801010    -2.1461120     0.0568400
  H        1.2958720     3.5406330    -0.8437660
  H        3.6204230     2.8995150    -0.1925990
  H       -1.2541740     1.1373190     1.4511930
  H       -2.4205700    -1.7983260    -1.4636490
  H       -3.6394530     1.7093650     1.8355280
  H       -4.8171580    -1.1915530    -1.1177270
  H        4.4331860    -1.7182640    -0.3623870
  H        3.8136890    -3.0019290     0.7024740
  H        4.3131750    -1.4541550     1.3926990
  H       -5.4217990     0.5615290     0.5392290
units angstrom
no_reorient  #important for SAPT in psi4, default
symmetry c1  #important for SAPT in psi4, default
}

set PROPERTIES_ORIGIN ["COM"]
properties('MP2/aug-cc-pvtz', properties = ['dipole'])
--------------------------------------------------------------------------

    Molecular point group: c1
  Charge       = 0
  Multiplicity = 1
  Basis Set: AUG-CC-PVTZ
    Blend: AUG-CC-PVTZ
  Basis Set: (AUG-CC-PVTZ AUX)
    Blend: AUG-CC-PVTZ-JKFIT

    Orbital Energies [Eh]
    ---------------------

    Doubly Occupied:

       1A    -20.539771     2A    -15.560925     3A    -11.340322
       4A    -11.296616     5A    -11.256520     6A    -11.252183
       7A    -11.252129     8A    -11.252007     9A    -11.250913
      10A    -11.250195    11A    -11.247823    12A    -11.245545
      13A    -11.244137    14A    -11.237820    15A    -11.228422
      16A    -11.225420    17A     -1.372772    18A     -1.243571
      19A     -1.164201    20A     -1.141579    21A     -1.056198
      22A     -1.026098    23A     -1.020774    24A     -1.009464
      25A     -0.929062    26A     -0.888575    27A     -0.845401
      28A     -0.834971    29A     -0.807146    30A     -0.771878
      31A     -0.718094    32A     -0.700930    33A     -0.683743
      34A     -0.655391    35A     -0.645881    36A     -0.633472
      37A     -0.619045    38A     -0.614699    39A     -0.608463
      40A     -0.601312    41A     -0.596542    42A     -0.576827
      43A     -0.545242    44A     -0.541638    45A     -0.530904
      46A     -0.520506    47A     -0.513106    48A     -0.503483
      49A     -0.501829    50A     -0.486545    51A     -0.428755
      52A     -0.418828    53A     -0.350286    54A     -0.345839
      55A     -0.343676    56A     -0.291460

  @DF-RHF Final Energy:  -667.26280104699163

   => Energetics <=

    Nuclear Repulsion Energy =           1002.6327690625125797
    One-Electron Energy =               -2896.2532763097724455
    Two-Electron Energy =                1226.3577062002682396
    Total Energy =                       -667.2628010469916262
  Basis Set: (AUG-CC-PVTZ AUX)
    Blend: AUG-CC-PVTZ-RI
    Molecular point group: c1

    Geometry (in Angstrom), charge = 0, multiplicity = 1:

       Center              X                  Y                   Z               Mass
    ------------   -----------------  -----------------  -----------------  -----------------
         O           -0.020001557428    -1.992543600080    -0.451362609874    15.994914619570
         N            2.481031242572    -1.470897400080     0.411046290126    14.003074004430
         C            0.833633242572     0.214538599920    -0.208876709874    12.000000000000
         C            2.176203242572    -0.170358400080     0.086921290126    12.000000000000
         C           -0.255334757428    -0.785820400080    -0.254372709874    12.000000000000
         C           -1.667936757428    -0.340943400080    -0.051781709874    12.000000000000
         C            0.558013242572     1.549917599920    -0.555684709874    12.000000000000
         C            3.160109242572     0.840177599920     0.125191290126    12.000000000000
         C            1.551375242572     2.521473599920    -0.554250709874    12.000000000000
         C            2.853997242572     2.155573599920    -0.205069709874    12.000000000000
         C           -2.009996757428     0.644390599920     0.886663290126    12.000000000000
         C           -2.677717757428    -1.012166400080    -0.755791709874    12.000000000000
         C           -3.351911757428     0.959581599920     1.104714290126    12.000000000000
         C           -4.014069757428    -0.676197400080    -0.550570709874    12.000000000000
         C            3.851236242572    -1.920161400080     0.539006290126    12.000000000000
         C           -4.354254757428     0.309726599920     0.380770290126    12.000000000000
         H           -0.455778757428     1.817636599920    -0.839843709874     1.007825032230
         H            4.185367242572     0.583161599920     0.371341290126     1.007825032230
         H            1.803763242572    -2.142080400080     0.064045290126     1.007825032230
         H            1.319534242572     3.544664599920    -0.836560709874     1.007825032230
         H            3.644085242572     2.903546599920    -0.185393709874     1.007825032230
         H           -1.230511757428     1.141350599920     1.458398290126     1.007825032230
         H           -2.396907757428    -1.794294400080    -1.456443709874     1.007825032230
         H           -3.615790757428     1.713396599920     1.842733290126     1.007825032230
         H           -4.793495757428    -1.187521400080    -1.110521709874     1.007825032230
         H            4.456848242572    -1.714232400080    -0.355181709874     1.007825032230
         H            3.837351242572    -2.997897400080     0.709679290126     1.007825032230
         H            4.336837242572    -1.450123400080     1.399904290126     1.007825032230
         H           -5.398136757428     0.565560599920     0.546434290126     1.007825032230

  Basis Set: AUG-CC-PVTZ
    Blend: AUG-CC-PVTZ
  Basis Set: (AUG-CC-PVTZ AUX)
    Blend: AUG-CC-PVTZ-JKFIT
	 Reference Energy          =    -667.2628010469916262 [Eh]
	 Singles Energy            =      -0.0000000000000000 [Eh]
	 Same-Spin Energy          =      -0.7346637947201968 [Eh]
	 Opposite-Spin Energy      =      -2.2653180862140170 [Eh]
	 Correlation Energy        =      -2.9999818809342136 [Eh]
	 Total Energy              =    -670.2627829279258549 [Eh]

	 ================> DF-SCS-MP2 Energies <==================
	-----------------------------------------------------------
	 SCS Same-Spin Scale       =       0.3333333333333333 [-]
	 SCS Opposite-Spin Scale   =       1.2000000000000000 [-]
	 SCS Same-Spin Energy      =      -0.2448879315733989 [Eh]
	 SCS Opposite-Spin Energy  =      -2.7183817034568203 [Eh]
	 SCS Correlation Energy    =      -2.9632696350302190 [Eh]
	 SCS Total Energy          =    -670.2260706820218275 [Eh]
	-----------------------------------------------------------

  Dipole Moment: [D]
     X:     0.2253      Y:     1.1898      Z:     0.3513     Total:     1.2608

*** Psi4 exiting successfully. Buy a developer a beer!
