                               Psi4 1.3.2 release

  ==> Input File <==

--------------------------------------------------------------------------
#psi4
#
memory 32 gb

molecule  {
0 1
  O       -0.0649480    -2.0007500    -0.4572220
  N        2.4573690    -1.4749290     0.4038410
  C        0.8099710     0.2105070    -0.2160820
  C        2.1525410    -0.1743900     0.0797160
  C       -0.2789970    -0.7898520    -0.2615780
  C       -1.6915990    -0.3449750    -0.0589870
  C        0.5343510     1.5458860    -0.5628900
  C        3.1364470     0.8361460     0.1179860
  C        1.5277130     2.5174420    -0.5614560
  C        2.8303350     2.1515420    -0.2122750
  C       -2.1739137     0.6129846     0.8455864
  C       -2.7013800    -1.0161980    -0.7629970
  C       -3.3755740     0.9555500     1.0975090
  C       -4.0377320    -0.6802290    -0.5577760
  C        3.8275740    -1.9241930     0.5318010
  C       -4.3779170     0.3056950     0.3735650
  H       -0.4794410     1.8136050    -0.8470490
  H        4.1617050     0.5791300     0.3641360
  H        1.7801010    -2.1461120     0.0568400
  H        1.2958720     3.5406330    -0.8437660
  H        3.6204230     2.8995150    -0.1925990
  H       -1.2541740     1.1373190     1.4511930
  H       -2.4205700    -1.7983260    -1.4636490
  H       -3.6394530     1.7093650     1.8355280
  H       -4.8171580    -1.1915530    -1.1177270
  H        4.4331860    -1.7182640    -0.3623870
  H        3.8136890    -3.0019290     0.7024740
  H        4.3131750    -1.4541550     1.3926990
  H       -5.4217990     0.5615290     0.5392290
units angstrom
no_reorient  #important for SAPT in psi4, default
symmetry c1  #important for SAPT in psi4, default
}

set PROPERTIES_ORIGIN ["COM"]
properties('MP2/aug-cc-pvtz', properties = ['dipole'])
--------------------------------------------------------------------------

    Molecular point group: c1
  Charge       = 0
  Multiplicity = 1
  Basis Set: AUG-CC-PVTZ
    Blend: AUG-CC-PVTZ
  Basis Set: (AUG-CC-PVTZ AUX)
    Blend: AUG-CC-PVTZ-JKFIT

    Orbital Energies [Eh]
    ---------------------

    Doubly Occupied:

       1A    -20.541574     2A    -15.562009     3A    -11.343921
       4A    -11.297175     5A    -11.257093     6A    -11.252726
       7A    -11.252508     8A    -11.251795     9A    -11.248815
      10A    -11.247695    11A    -11.246474    12A    -11.241364
      13A    -11.238636    14A    -11.229797    15A    -11.228657
      16A    -11.225617    17A     -1.374038    18A     -1.244446
      19A     -1.177521    20A     -1.142575    21A     -1.056064
      22A     -1.039086    23A     -1.019367    24A     -1.009823
      25A     -0.929933    26A     -0.891277    27A     -0.847305
      28A     -0.826172    29A     -0.807777    30A     -0.777362
      31A     -0.717971    32A     -0.700913    33A     -0.684997
      34A     -0.658141    35A     -0.641800    36A     -0.637720
      37A     -0.617830    38A     -0.615097    39A     -0.611850
      40A     -0.601752    41A     -0.585090    42A     -0.577552
      43A     -0.546101    44A     -0.542138    45A     -0.531679
      46A     -0.524604    47A     -0.521063    48A     -0.503911
      49A     -0.492503    50A     -0.468633    51A     -0.429046
      52A     -0.422463    53A     -0.359938    54A     -0.347815
      55A     -0.341412    56A     -0.291923

  @DF-RHF Final Energy:  -667.23486342179717

   => Energetics <=

    Nuclear Repulsion Energy =           1003.3072296230550364
    One-Electron Energy =               -2897.5191020096945067
    Two-Electron Energy =                1226.9770089648422982
    Total Energy =                       -667.2348634217971721
  Basis Set: (AUG-CC-PVTZ AUX)
    Blend: AUG-CC-PVTZ-RI
    Molecular point group: c1

    Geometry (in Angstrom), charge = 0, multiplicity = 1:

       Center              X                  Y                   Z               Mass
    ------------   -----------------  -----------------  -----------------  -----------------
         O           -0.031700261915    -1.994845975139    -0.448193251011    15.994914619570
         N            2.490616738085    -1.469024975139     0.412869748989    14.003074004430
         C            0.843218738085     0.216411024861    -0.207053251011    12.000000000000
         C            2.185788738085    -0.168485975139     0.088744748989    12.000000000000
         C           -0.245749261915    -0.783947975139    -0.252549251011    12.000000000000
         C           -1.658351261915    -0.339070975139    -0.049958251011    12.000000000000
         C            0.567598738085     1.551790024861    -0.553861251011    12.000000000000
         C            3.169694738085     0.842050024861     0.127014748989    12.000000000000
         C            1.560960738085     2.523346024861    -0.552427251011    12.000000000000
         C            2.863582738085     2.157446024861    -0.203246251011    12.000000000000
         C           -2.140665961915     0.618888624861     0.854615148989    12.000000000000
         C           -2.668132261915    -1.010293975139    -0.753968251011    12.000000000000
         C           -3.342326261915     0.961454024861     1.106537748989    12.000000000000
         C           -4.004484261915    -0.674324975139    -0.548747251011    12.000000000000
         C            3.860821738085    -1.918288975139     0.540829748989    12.000000000000
         C           -4.344669261915     0.311599024861     0.382593748989    12.000000000000
         H           -0.446193261915     1.819509024861    -0.838020251011     1.007825032230
         H            4.194952738085     0.585034024861     0.373164748989     1.007825032230
         H            1.813348738085    -2.140207975139     0.065868748989     1.007825032230
         H            1.329119738085     3.546537024861    -0.834737251011     1.007825032230
         H            3.653670738085     2.905419024861    -0.183570251011     1.007825032230
         H           -1.220926261915     1.143223024861     1.460221748989     1.007825032230
         H           -2.387322261915    -1.792421975139    -1.454620251011     1.007825032230
         H           -3.606205261915     1.715269024861     1.844556748989     1.007825032230
         H           -4.783910261915    -1.185648975139    -1.108698251011     1.007825032230
         H            4.466433738085    -1.712359975139    -0.353358251011     1.007825032230
         H            3.846936738085    -2.996024975139     0.711502748989     1.007825032230
         H            4.346422738085    -1.448250975139     1.401727748989     1.007825032230
         H           -5.388551261915     0.567433024861     0.548257748989     1.007825032230

  Basis Set: AUG-CC-PVTZ
    Blend: AUG-CC-PVTZ
  Basis Set: (AUG-CC-PVTZ AUX)
    Blend: AUG-CC-PVTZ-JKFIT
	 Reference Energy          =    -667.2348634217971721 [Eh]
	 Singles Energy            =      -0.0000000000000000 [Eh]
	 Same-Spin Energy          =      -0.7349466979038031 [Eh]
	 Opposite-Spin Energy      =      -2.2660126559414451 [Eh]
	 Correlation Energy        =      -3.0009593538452481 [Eh]
	 Total Energy              =    -670.2358227756424185 [Eh]

	 ================> DF-SCS-MP2 Energies <==================
	-----------------------------------------------------------
	 SCS Same-Spin Scale       =       0.3333333333333333 [-]
	 SCS Opposite-Spin Scale   =       1.2000000000000000 [-]
	 SCS Same-Spin Energy      =      -0.2449822326346010 [Eh]
	 SCS Opposite-Spin Energy  =      -2.7192151871297341 [Eh]
	 SCS Correlation Energy    =      -2.9641974197643353 [Eh]
	 SCS Total Energy          =    -670.1990608415615043 [Eh]
	-----------------------------------------------------------

  Dipole Moment: [D]
     X:     0.3234      Y:     1.1660      Z:     0.2931     Total:     1.2450

*** Psi4 exiting successfully. Buy a developer a beer!
