                               Psi4 1.3.2 release

  ==> Input File <==

--------------------------------------------------------------------------
#psi4
#
memory 32 gb

molecule  {
0 1
  O       -0.0649480    -2.0007500    -0.4572220
  N        2.4573690    -1.4749290     0.4038410
  C        0.8567936     0.2230988    -0.2082860
  C        2.1525410    -0.1743900     0.0797160
  C       -0.2789970    -0.7898520    -0.2615780
  C       -1.6915990    -0.3449750    -0.0589870
  C        0.5343510     1.5458860    -0.5628900
  C        3.1364470     0.8361460     0.1179860
  C        1.5277130     2.5174420    -0.5614560
  C        2.8303350     2.1515420    -0.2122750
  C       -2.0336590     0.6403590     0.8794580
  C       -2.7013800    -1.0161980    -0.7629970
  C       -3.3755740     0.9555500     1.0975090
  C       -4.0377320    -0.6802290    -0.5577760
  C        3.8275740    -1.9241930     0.5318010
  C       -4.3779170     0.3056950     0.3735650
  H       -0.4794410     1.8136050    -0.8470490
  H        4.1617050     0.5791300     0.3641360
  H        1.7801010    -2.1461120     0.0568400
  H        1.2958720     3.5406330    -0.8437660
  H        3.6204230     2.8995150    -0.1925990
  H       -1.2541740     1.1373190     1.4511930
  H       -2.4205700    -1.7983260    -1.4636490
  H       -3.6394530     1.7093650     1.8355280
  H       -4.8171580    -1.1915530    -1.1177270
  H        4.4331860    -1.7182640    -0.3623870
  H        3.8136890    -3.0019290     0.7024740
  H        4.3131750    -1.4541550     1.3926990
  H       -5.4217990     0.5615290     0.5392290
units angstrom
no_reorient  #important for SAPT in psi4, default
symmetry c1  #important for SAPT in psi4, default
}

set PROPERTIES_ORIGIN ["COM"]
properties('MP2/aug-cc-pvtz', properties = ['dipole'])
--------------------------------------------------------------------------

    Molecular point group: c1
  Charge       = 0
  Multiplicity = 1
  Basis Set: AUG-CC-PVTZ
    Blend: AUG-CC-PVTZ
  Basis Set: (AUG-CC-PVTZ AUX)
    Blend: AUG-CC-PVTZ-JKFIT

    Orbital Energies [Eh]
    ---------------------

    Doubly Occupied:

       1A    -20.542319     2A    -15.559126     3A    -11.343649
       4A    -11.290256     5A    -11.256025     6A    -11.252530
       7A    -11.251202     8A    -11.250886     9A    -11.250450
      10A    -11.249547    11A    -11.248269    12A    -11.245822
      13A    -11.244450    14A    -11.238122    15A    -11.228997
      16A    -11.225874    17A     -1.373545    18A     -1.244118
      19A     -1.164289    20A     -1.143360    21A     -1.053383
      22A     -1.026379    23A     -1.021571    24A     -1.011237
      25A     -0.927037    26A     -0.885953    27A     -0.844667
      28A     -0.835955    29A     -0.809491    30A     -0.771474
      31A     -0.717761    32A     -0.699106    33A     -0.684040
      34A     -0.655346    35A     -0.645799    36A     -0.633269
      37A     -0.620079    38A     -0.614830    39A     -0.608437
      40A     -0.600394    41A     -0.596498    42A     -0.577518
      43A     -0.544852    44A     -0.541093    45A     -0.529568
      46A     -0.520664    47A     -0.514334    48A     -0.507453
      49A     -0.502033    50A     -0.488063    51A     -0.428273
      52A     -0.416476    53A     -0.349707    54A     -0.345694
      55A     -0.343560    56A     -0.293678

  @DF-RHF Final Energy:  -667.26066738710301

   => Energetics <=

    Nuclear Repulsion Energy =           1002.5147856479353550
    One-Electron Energy =               -2896.0138861717591681
    Two-Electron Energy =                1226.2384331367209143
    Total Energy =                       -667.2606673871030125
  Basis Set: (AUG-CC-PVTZ AUX)
    Blend: AUG-CC-PVTZ-RI
    Molecular point group: c1

    Geometry (in Angstrom), charge = 0, multiplicity = 1:

       Center              X                  Y                   Z               Mass
    ------------   -----------------  -----------------  -----------------  -----------------
         O           -0.042334703606    -1.997117860737    -0.450561852988    15.994914619570
         N            2.479982296394    -1.471296860737     0.410501147012    14.003074004430
         C            0.879406896394     0.226730939263    -0.201625852988    12.000000000000
         C            2.175154296394    -0.170757860737     0.086376147012    12.000000000000
         C           -0.256383703606    -0.786219860737    -0.254917852988    12.000000000000
         C           -1.668985703606    -0.341342860737    -0.052326852988    12.000000000000
         C            0.556964296394     1.549518139263    -0.556229852988    12.000000000000
         C            3.159060296394     0.839778139263     0.124646147012    12.000000000000
         C            1.550326296394     2.521074139263    -0.554795852988    12.000000000000
         C            2.852948296394     2.155174139263    -0.205614852988    12.000000000000
         C           -2.011045703606     0.643991139263     0.886118147012    12.000000000000
         C           -2.678766703606    -1.012565860737    -0.756336852988    12.000000000000
         C           -3.352960703606     0.959182139263     1.104169147012    12.000000000000
         C           -4.015118703606    -0.676596860737    -0.551115852988    12.000000000000
         C            3.850187296394    -1.920560860737     0.538461147012    12.000000000000
         C           -4.355303703606     0.309327139263     0.380225147012    12.000000000000
         H           -0.456827703606     1.817237139263    -0.840388852988     1.007825032230
         H            4.184318296394     0.582762139263     0.370796147012     1.007825032230
         H            1.802714296394    -2.142479860737     0.063500147012     1.007825032230
         H            1.318485296394     3.544265139263    -0.837105852988     1.007825032230
         H            3.643036296394     2.903147139263    -0.185938852988     1.007825032230
         H           -1.231560703606     1.140951139263     1.457853147012     1.007825032230
         H           -2.397956703606    -1.794693860737    -1.456988852988     1.007825032230
         H           -3.616839703606     1.712997139263     1.842188147012     1.007825032230
         H           -4.794544703606    -1.187920860737    -1.111066852988     1.007825032230
         H            4.455799296394    -1.714631860737    -0.355726852988     1.007825032230
         H            3.836302296394    -2.998296860737     0.709134147012     1.007825032230
         H            4.335788296394    -1.450522860737     1.399359147012     1.007825032230
         H           -5.399185703606     0.565161139263     0.545889147012     1.007825032230

  Basis Set: AUG-CC-PVTZ
    Blend: AUG-CC-PVTZ
  Basis Set: (AUG-CC-PVTZ AUX)
    Blend: AUG-CC-PVTZ-JKFIT
	 Reference Energy          =    -667.2606673871030125 [Eh]
	 Singles Energy            =      -0.0000000000000000 [Eh]
	 Same-Spin Energy          =      -0.7344103623991922 [Eh]
	 Opposite-Spin Energy      =      -2.2651509207036558 [Eh]
	 Correlation Energy        =      -2.9995612831028478 [Eh]
	 Total Energy              =    -670.2602286702058336 [Eh]

	 ================> DF-SCS-MP2 Energies <==================
	-----------------------------------------------------------
	 SCS Same-Spin Scale       =       0.3333333333333333 [-]
	 SCS Opposite-Spin Scale   =       1.2000000000000000 [-]
	 SCS Same-Spin Energy      =      -0.2448034541330641 [Eh]
	 SCS Opposite-Spin Energy  =      -2.7181811048443869 [Eh]
	 SCS Correlation Energy    =      -2.9629845589774511 [Eh]
	 SCS Total Energy          =    -670.2236519460805084 [Eh]
	-----------------------------------------------------------

  Dipole Moment: [D]
     X:     0.1188      Y:     1.1732      Z:     0.3236     Total:     1.2228

*** Psi4 exiting successfully. Buy a developer a beer!
