                               Psi4 1.3.2 release

  ==> Input File <==

--------------------------------------------------------------------------
#psi4
#
memory 32 gb

molecule  {
0 1
  O       -0.0649480    -2.0007500    -0.4572220
  N        2.4573690    -1.4749290     0.4038410
  C        0.8099710     0.2105070    -0.2160820
  C        2.1525410    -0.1743900     0.0797160
  C       -0.2789970    -0.7898520    -0.2615780
  C       -1.6915990    -0.3449750    -0.0589870
  C        0.5343510     1.5458860    -0.5628900
  C        3.1364470     0.8361460     0.1179860
  C        1.5277130     2.5174420    -0.5614560
  C        2.8303350     2.1515420    -0.2122750
  C       -2.0098767     0.6438782     0.8841120
  C       -2.7013800    -1.0161980    -0.7629970
  C       -3.3755740     0.9555500     1.0975090
  C       -4.0377320    -0.6802290    -0.5577760
  C        3.8275740    -1.9241930     0.5318010
  C       -4.3779170     0.3056950     0.3735650
  H       -0.4794410     1.8136050    -0.8470490
  H        4.1617050     0.5791300     0.3641360
  H        1.7801010    -2.1461120     0.0568400
  H        1.2958720     3.5406330    -0.8437660
  H        3.6204230     2.8995150    -0.1925990
  H       -1.2541740     1.1373190     1.4511930
  H       -2.4205700    -1.7983260    -1.4636490
  H       -3.6394530     1.7093650     1.8355280
  H       -4.8171580    -1.1915530    -1.1177270
  H        4.4331860    -1.7182640    -0.3623870
  H        3.8136890    -3.0019290     0.7024740
  H        4.3131750    -1.4541550     1.3926990
  H       -5.4217990     0.5615290     0.5392290
units angstrom
no_reorient  #important for SAPT in psi4, default
symmetry c1  #important for SAPT in psi4, default
}

set PROPERTIES_ORIGIN ["COM"]
properties('MP2/aug-cc-pvtz', properties = ['dipole'])
--------------------------------------------------------------------------

    Molecular point group: c1
  Charge       = 0
  Multiplicity = 1
  Basis Set: AUG-CC-PVTZ
    Blend: AUG-CC-PVTZ
  Basis Set: (AUG-CC-PVTZ AUX)
    Blend: AUG-CC-PVTZ-JKFIT

    Orbital Energies [Eh]
    ---------------------

    Doubly Occupied:

       1A    -20.539404     2A    -15.561882     3A    -11.339528
       4A    -11.297236     5A    -11.257082     6A    -11.252670
       7A    -11.252578     8A    -11.252274     9A    -11.250159
      10A    -11.249885    11A    -11.247393    12A    -11.246981
      13A    -11.244008    14A    -11.238569    15A    -11.228910
      16A    -11.225912    17A     -1.372236    18A     -1.244385
      19A     -1.161888    20A     -1.141907    21A     -1.056520
      22A     -1.023940    23A     -1.020336    24A     -1.009996
      25A     -0.929353    26A     -0.888344    27A     -0.845754
      28A     -0.835405    29A     -0.807506    30A     -0.770755
      31A     -0.718277    32A     -0.701721    33A     -0.683696
      34A     -0.655578    35A     -0.646843    36A     -0.632443
      37A     -0.619686    38A     -0.615246    39A     -0.608703
      40A     -0.601513    41A     -0.595811    42A     -0.577618
      43A     -0.544886    44A     -0.542230    45A     -0.530759
      46A     -0.519781    47A     -0.511672    48A     -0.504466
      49A     -0.503220    50A     -0.486203    51A     -0.429344
      52A     -0.418335    53A     -0.350361    54A     -0.345783
      55A     -0.341399    56A     -0.292100

  @DF-RHF Final Energy:  -667.26184077137475

   => Energetics <=

    Nuclear Repulsion Energy =           1002.4237774218199775
    One-Electron Energy =               -2895.8302910556335519
    Two-Electron Energy =                1226.1446728624387106
    Total Energy =                       -667.2618407713748638
  Basis Set: (AUG-CC-PVTZ AUX)
    Blend: AUG-CC-PVTZ-RI
    Molecular point group: c1

    Geometry (in Angstrom), charge = 0, multiplicity = 1:

       Center              X                  Y                   Z               Mass
    ------------   -----------------  -----------------  -----------------  -----------------
         O           -0.041024973741    -1.996602127210    -0.450383245451    15.994914619570
         N            2.481292026259    -1.470781127210     0.410679754549    14.003074004430
         C            0.833894026259     0.214654872790    -0.209243245451    12.000000000000
         C            2.176464026259    -0.170242127210     0.086554754549    12.000000000000
         C           -0.255073973741    -0.785704127210    -0.254739245451    12.000000000000
         C           -1.667675973741    -0.340827127210    -0.052148245451    12.000000000000
         C            0.558274026259     1.550033872790    -0.556051245451    12.000000000000
         C            3.160370026259     0.840293872790     0.124824754549    12.000000000000
         C            1.551636026259     2.521589872790    -0.554617245451    12.000000000000
         C            2.854258026259     2.155689872790    -0.205436245451    12.000000000000
         C           -1.985953673741     0.648026072790     0.890950754549    12.000000000000
         C           -2.677456973741    -1.012050127210    -0.756158245451    12.000000000000
         C           -3.351650973741     0.959697872790     1.104347754549    12.000000000000
         C           -4.013808973741    -0.676081127210    -0.550937245451    12.000000000000
         C            3.851497026259    -1.920045127210     0.538639754549    12.000000000000
         C           -4.353993973741     0.309842872790     0.380403754549    12.000000000000
         H           -0.455517973741     1.817752872790    -0.840210245451     1.007825032230
         H            4.185628026259     0.583277872790     0.370974754549     1.007825032230
         H            1.804024026259    -2.141964127210     0.063678754549     1.007825032230
         H            1.319795026259     3.544780872790    -0.836927245451     1.007825032230
         H            3.644346026259     2.903662872790    -0.185760245451     1.007825032230
         H           -1.230250973741     1.141466872790     1.458031754549     1.007825032230
         H           -2.396646973741    -1.794178127210    -1.456810245451     1.007825032230
         H           -3.615529973741     1.713512872790     1.842366754549     1.007825032230
         H           -4.793234973741    -1.187405127210    -1.110888245451     1.007825032230
         H            4.457109026259    -1.714116127210    -0.355548245451     1.007825032230
         H            3.837612026259    -2.997781127210     0.709312754549     1.007825032230
         H            4.337098026259    -1.450007127210     1.399537754549     1.007825032230
         H           -5.397875973741     0.565676872790     0.546067754549     1.007825032230

  Basis Set: AUG-CC-PVTZ
    Blend: AUG-CC-PVTZ
  Basis Set: (AUG-CC-PVTZ AUX)
    Blend: AUG-CC-PVTZ-JKFIT
	 Reference Energy          =    -667.2618407713747501 [Eh]
	 Singles Energy            =      -0.0000000000000000 [Eh]
	 Same-Spin Energy          =      -0.7346163892537794 [Eh]
	 Opposite-Spin Energy      =      -2.2654548269946444 [Eh]
	 Correlation Energy        =      -3.0000712162484238 [Eh]
	 Total Energy              =    -670.2619119876231935 [Eh]

	 ================> DF-SCS-MP2 Energies <==================
	-----------------------------------------------------------
	 SCS Same-Spin Scale       =       0.3333333333333333 [-]
	 SCS Opposite-Spin Scale   =       1.2000000000000000 [-]
	 SCS Same-Spin Energy      =      -0.2448721297512598 [Eh]
	 SCS Opposite-Spin Energy  =      -2.7185457923935732 [Eh]
	 SCS Correlation Energy    =      -2.9634179221448331 [Eh]
	 SCS Total Energy          =    -670.2252586935195495 [Eh]
	-----------------------------------------------------------

  Dipole Moment: [D]
     X:     0.3140      Y:     1.2053      Z:     0.3487     Total:     1.2934

*** Psi4 exiting successfully. Buy a developer a beer!
