                               Psi4 1.3.2 release

  ==> Input File <==

--------------------------------------------------------------------------
#psi4
#
memory 32 gb

molecule  {
0 1
  O       -0.0649480    -2.0007500    -0.4572220
  N        2.4420315    -1.5225724     0.4107780
  C        0.8099710     0.2105070    -0.2160820
  C        2.1525410    -0.1743900     0.0797160
  C       -0.2789970    -0.7898520    -0.2615780
  C       -1.6915990    -0.3449750    -0.0589870
  C        0.5343510     1.5458860    -0.5628900
  C        3.1364470     0.8361460     0.1179860
  C        1.5277130     2.5174420    -0.5614560
  C        2.8303350     2.1515420    -0.2122750
  C       -2.0336590     0.6403590     0.8794580
  C       -2.7013800    -1.0161980    -0.7629970
  C       -3.3755740     0.9555500     1.0975090
  C       -4.0377320    -0.6802290    -0.5577760
  C        3.8275740    -1.9241930     0.5318010
  C       -4.3779170     0.3056950     0.3735650
  H       -0.4794410     1.8136050    -0.8470490
  H        4.1617050     0.5791300     0.3641360
  H        1.7801010    -2.1461120     0.0568400
  H        1.2958720     3.5406330    -0.8437660
  H        3.6204230     2.8995150    -0.1925990
  H       -1.2541740     1.1373190     1.4511930
  H       -2.4205700    -1.7983260    -1.4636490
  H       -3.6394530     1.7093650     1.8355280
  H       -4.8171580    -1.1915530    -1.1177270
  H        4.4331860    -1.7182640    -0.3623870
  H        3.8136890    -3.0019290     0.7024740
  H        4.3131750    -1.4541550     1.3926990
  H       -5.4217990     0.5615290     0.5392290
units angstrom
no_reorient  #important for SAPT in psi4, default
symmetry c1  #important for SAPT in psi4, default
}

set PROPERTIES_ORIGIN ["COM"]
properties('MP2/aug-cc-pvtz', properties = ['dipole'])
--------------------------------------------------------------------------

    Molecular point group: c1
  Charge       = 0
  Multiplicity = 1
  Basis Set: AUG-CC-PVTZ
    Blend: AUG-CC-PVTZ
  Basis Set: (AUG-CC-PVTZ AUX)
    Blend: AUG-CC-PVTZ-JKFIT

    Orbital Energies [Eh]
    ---------------------

    Doubly Occupied:

       1A    -20.540533     2A    -15.557413     3A    -11.340884
       4A    -11.299058     5A    -11.254301     6A    -11.254093
       7A    -11.253651     8A    -11.251943     9A    -11.250669
      10A    -11.249885    11A    -11.247498    12A    -11.245417
      13A    -11.243961    14A    -11.241329    15A    -11.232433
      16A    -11.229296    17A     -1.372979    18A     -1.234303
      19A     -1.164097    20A     -1.143986    21A     -1.057198
      22A     -1.026072    23A     -1.021249    24A     -1.010692
      25A     -0.926590    26A     -0.890552    27A     -0.844921
      28A     -0.834825    29A     -0.810985    30A     -0.771175
      31A     -0.718596    32A     -0.700792    33A     -0.683974
      34A     -0.654348    35A     -0.645571    36A     -0.633516
      37A     -0.619694    38A     -0.612705    39A     -0.608327
      40A     -0.601040    41A     -0.596596    42A     -0.580894
      43A     -0.545104    44A     -0.540361    45A     -0.528707
      46A     -0.521162    47A     -0.512731    48A     -0.504649
      49A     -0.501703    50A     -0.486216    51A     -0.425231
      52A     -0.420469    53A     -0.351371    54A     -0.345577
      55A     -0.343738    56A     -0.297299

  @DF-RHF Final Energy:  -667.25977168197812

   => Energetics <=

    Nuclear Repulsion Energy =           1001.7521522541745753
    One-Electron Energy =               -2894.4591255725690644
    Two-Electron Energy =                1225.4472016364163665
    Total Energy =                       -667.2597716819780089
  Basis Set: (AUG-CC-PVTZ AUX)
    Blend: AUG-CC-PVTZ-RI
    Molecular point group: c1

    Geometry (in Angstrom), charge = 0, multiplicity = 1:

       Center              X                  Y                   Z               Mass
    ------------   -----------------  -----------------  -----------------  -----------------
         O           -0.038655668080    -1.993241703634    -0.450578846495    15.994914619570
         N            2.468323831920    -1.515064103634     0.417421153505    14.003074004430
         C            0.836263331920     0.218015296366    -0.209438846495    12.000000000000
         C            2.178833331920    -0.166881703634     0.086359153505    12.000000000000
         C           -0.252704668080    -0.782343703634    -0.254934846495    12.000000000000
         C           -1.665306668080    -0.337466703634    -0.052343846495    12.000000000000
         C            0.560643331920     1.553394296366    -0.556246846495    12.000000000000
         C            3.162739331920     0.843654296366     0.124629153505    12.000000000000
         C            1.554005331920     2.524950296366    -0.554812846495    12.000000000000
         C            2.856627331920     2.159050296366    -0.205631846495    12.000000000000
         C           -2.007366668080     0.647867296366     0.886101153505    12.000000000000
         C           -2.675087668080    -1.008689703634    -0.756353846495    12.000000000000
         C           -3.349281668080     0.963058296366     1.104152153505    12.000000000000
         C           -4.011439668080    -0.672720703634    -0.551132846495    12.000000000000
         C            3.853866331920    -1.916684703634     0.538444153505    12.000000000000
         C           -4.351624668080     0.313203296366     0.380208153505    12.000000000000
         H           -0.453148668080     1.821113296366    -0.840405846495     1.007825032230
         H            4.187997331920     0.586638296366     0.370779153505     1.007825032230
         H            1.806393331920    -2.138603703634     0.063483153505     1.007825032230
         H            1.322164331920     3.548141296366    -0.837122846495     1.007825032230
         H            3.646715331920     2.907023296366    -0.185955846495     1.007825032230
         H           -1.227881668080     1.144827296366     1.457836153505     1.007825032230
         H           -2.394277668080    -1.790817703634    -1.457005846495     1.007825032230
         H           -3.613160668080     1.716873296366     1.842171153505     1.007825032230
         H           -4.790865668080    -1.184044703634    -1.111083846495     1.007825032230
         H            4.459478331920    -1.710755703634    -0.355743846495     1.007825032230
         H            3.839981331920    -2.994420703634     0.709117153505     1.007825032230
         H            4.339467331920    -1.446646703634     1.399342153505     1.007825032230
         H           -5.395506668080     0.569037296366     0.545872153505     1.007825032230

  Basis Set: AUG-CC-PVTZ
    Blend: AUG-CC-PVTZ
  Basis Set: (AUG-CC-PVTZ AUX)
    Blend: AUG-CC-PVTZ-JKFIT
	 Reference Energy          =    -667.2597716819781226 [Eh]
	 Singles Energy            =      -0.0000000000000000 [Eh]
	 Same-Spin Energy          =      -0.7342933781444131 [Eh]
	 Opposite-Spin Energy      =      -2.2652286386861249 [Eh]
	 Correlation Energy        =      -2.9995220168305381 [Eh]
	 Total Energy              =    -670.2592936988086194 [Eh]

	 ================> DF-SCS-MP2 Energies <==================
	-----------------------------------------------------------
	 SCS Same-Spin Scale       =       0.3333333333333333 [-]
	 SCS Opposite-Spin Scale   =       1.2000000000000000 [-]
	 SCS Same-Spin Energy      =      -0.2447644593814710 [Eh]
	 SCS Opposite-Spin Energy  =      -2.7182743664233500 [Eh]
	 SCS Correlation Energy    =      -2.9630388258048210 [Eh]
	 SCS Total Energy          =    -670.2228105077829241 [Eh]
	-----------------------------------------------------------

  Dipole Moment: [D]
     X:     0.2071      Y:     1.4855      Z:     0.2597     Total:     1.5222

*** Psi4 exiting successfully. Buy a developer a beer!
