                               Psi4 1.3.2 release

  ==> Input File <==

--------------------------------------------------------------------------
#psi4
#
memory 32 gb

molecule  {
0 1
  O       -0.0649480    -2.0007500    -0.4572220
  N        2.3643079    -1.4958020     0.3934099
  C        0.8099710     0.2105070    -0.2160820
  C        2.1525410    -0.1743900     0.0797160
  C       -0.2789970    -0.7898520    -0.2615780
  C       -1.6915990    -0.3449750    -0.0589870
  C        0.5343510     1.5458860    -0.5628900
  C        3.1364470     0.8361460     0.1179860
  C        1.5277130     2.5174420    -0.5614560
  C        2.8303350     2.1515420    -0.2122750
  C       -2.0336590     0.6403590     0.8794580
  C       -2.7013800    -1.0161980    -0.7629970
  C       -3.3755740     0.9555500     1.0975090
  C       -4.0377320    -0.6802290    -0.5577760
  C        3.8275740    -1.9241930     0.5318010
  C       -4.3779170     0.3056950     0.3735650
  H       -0.4794410     1.8136050    -0.8470490
  H        4.1617050     0.5791300     0.3641360
  H        1.7801010    -2.1461120     0.0568400
  H        1.2958720     3.5406330    -0.8437660
  H        3.6204230     2.8995150    -0.1925990
  H       -1.2541740     1.1373190     1.4511930
  H       -2.4205700    -1.7983260    -1.4636490
  H       -3.6394530     1.7093650     1.8355280
  H       -4.8171580    -1.1915530    -1.1177270
  H        4.4331860    -1.7182640    -0.3623870
  H        3.8136890    -3.0019290     0.7024740
  H        4.3131750    -1.4541550     1.3926990
  H       -5.4217990     0.5615290     0.5392290
units angstrom
no_reorient  #important for SAPT in psi4, default
symmetry c1  #important for SAPT in psi4, default
}

set PROPERTIES_ORIGIN ["COM"]
properties('MP2/aug-cc-pvtz', properties = ['dipole'])
--------------------------------------------------------------------------

    Molecular point group: c1
  Charge       = 0
  Multiplicity = 1
  Basis Set: AUG-CC-PVTZ
    Blend: AUG-CC-PVTZ
  Basis Set: (AUG-CC-PVTZ AUX)
    Blend: AUG-CC-PVTZ-JKFIT

    Orbital Energies [Eh]
    ---------------------

    Doubly Occupied:

       1A    -20.537821     2A    -15.559395     3A    -11.338470
       4A    -11.297132     5A    -11.262859     6A    -11.253400
       7A    -11.251616     8A    -11.250581     9A    -11.249489
      10A    -11.248518    11A    -11.246197    12A    -11.244276
      13A    -11.242850    14A    -11.236456    15A    -11.230980
      16A    -11.226008    17A     -1.371179    18A     -1.239636
      19A     -1.162701    20A     -1.140364    21A     -1.055581
      22A     -1.024735    23A     -1.019599    24A     -1.006108
      25A     -0.931914    26A     -0.890580    27A     -0.844294
      28A     -0.833591    29A     -0.814669    30A     -0.771543
      31A     -0.719110    32A     -0.708215    33A     -0.681959
      34A     -0.653543    35A     -0.642397    36A     -0.633976
      37A     -0.618756    38A     -0.608648    39A     -0.604559
      40A     -0.599140    41A     -0.595390    42A     -0.571280
      43A     -0.545448    44A     -0.543822    45A     -0.532125
      46A     -0.520933    47A     -0.513155    48A     -0.500882
      49A     -0.498973    50A     -0.485772    51A     -0.434445
      52A     -0.418914    53A     -0.350129    54A     -0.344216
      55A     -0.342551    56A     -0.294005

  @DF-RHF Final Energy:  -667.25156153656258

   => Energetics <=

    Nuclear Repulsion Energy =           1002.8260300901589517
    One-Electron Energy =               -2896.6654178224598581
    Two-Electron Energy =                1226.5878261957384439
    Total Energy =                       -667.2515615365625763
  Basis Set: (AUG-CC-PVTZ AUX)
    Blend: AUG-CC-PVTZ-RI
    Molecular point group: c1

    Geometry (in Angstrom), charge = 0, multiplicity = 1:

       Center              X                  Y                   Z               Mass
    ------------   -----------------  -----------------  -----------------  -----------------
         O           -0.033499956110    -1.995017489518    -0.449426752136    15.994914619570
         N            2.395755943890    -1.490069489518     0.401205147864    14.003074004430
         C            0.841419043890     0.216239510482    -0.208286752136    12.000000000000
         C            2.183989043890    -0.168657489518     0.087511247864    12.000000000000
         C           -0.247548956110    -0.784119489518    -0.253782752136    12.000000000000
         C           -1.660150956110    -0.339242489518    -0.051191752136    12.000000000000
         C            0.565799043890     1.551618510482    -0.555094752136    12.000000000000
         C            3.167895043890     0.841878510482     0.125781247864    12.000000000000
         C            1.559161043890     2.523174510482    -0.553660752136    12.000000000000
         C            2.861783043890     2.157274510482    -0.204479752136    12.000000000000
         C           -2.002210956110     0.646091510482     0.887253247864    12.000000000000
         C           -2.669931956110    -1.010465489518    -0.755201752136    12.000000000000
         C           -3.344125956110     0.961282510482     1.105304247864    12.000000000000
         C           -4.006283956110    -0.674496489518    -0.549980752136    12.000000000000
         C            3.859022043890    -1.918460489518     0.539596247864    12.000000000000
         C           -4.346468956110     0.311427510482     0.381360247864    12.000000000000
         H           -0.447992956110     1.819337510482    -0.839253752136     1.007825032230
         H            4.193153043890     0.584862510482     0.371931247864     1.007825032230
         H            1.811549043890    -2.140379489518     0.064635247864     1.007825032230
         H            1.327320043890     3.546365510482    -0.835970752136     1.007825032230
         H            3.651871043890     2.905247510482    -0.184803752136     1.007825032230
         H           -1.222725956110     1.143051510482     1.458988247864     1.007825032230
         H           -2.389121956110    -1.792593489518    -1.455853752136     1.007825032230
         H           -3.608004956110     1.715097510482     1.843323247864     1.007825032230
         H           -4.785709956110    -1.185820489518    -1.109931752136     1.007825032230
         H            4.464634043890    -1.712531489518    -0.354591752136     1.007825032230
         H            3.845137043890    -2.996196489518     0.710269247864     1.007825032230
         H            4.344623043890    -1.448422489518     1.400494247864     1.007825032230
         H           -5.390350956110     0.567261510482     0.547024247864     1.007825032230

  Basis Set: AUG-CC-PVTZ
    Blend: AUG-CC-PVTZ
  Basis Set: (AUG-CC-PVTZ AUX)
    Blend: AUG-CC-PVTZ-JKFIT
	 Reference Energy          =    -667.2515615365625763 [Eh]
	 Singles Energy            =      -0.0000000000000000 [Eh]
	 Same-Spin Energy          =      -0.7340598038139610 [Eh]
	 Opposite-Spin Energy      =      -2.2653982429141482 [Eh]
	 Correlation Energy        =      -2.9994580467281091 [Eh]
	 Total Energy              =    -670.2510195832907129 [Eh]

	 ================> DF-SCS-MP2 Energies <==================
	-----------------------------------------------------------
	 SCS Same-Spin Scale       =       0.3333333333333333 [-]
	 SCS Opposite-Spin Scale   =       1.2000000000000000 [-]
	 SCS Same-Spin Energy      =      -0.2446866012713203 [Eh]
	 SCS Opposite-Spin Energy  =      -2.7184778914969776 [Eh]
	 SCS Correlation Energy    =      -2.9631644927682981 [Eh]
	 SCS Total Energy          =    -670.2147260293309046 [Eh]
	-----------------------------------------------------------

  Dipole Moment: [D]
     X:     0.5311      Y:     1.2440      Z:     0.3263     Total:     1.3914

*** Psi4 exiting successfully. Buy a developer a beer!
