                               Psi4 1.4a3.dev225

  ==> Input File <==

--------------------------------------------------------------------------
#psi4
#
memory 32 gb

molecule  {
0 1
  O       -0.0649480    -2.0007500    -0.4572220
  N        2.4573690    -1.4749290     0.4038410
  C        0.8099710     0.2105070    -0.2160820
  C        2.1525410    -0.1743900     0.0797160
  C       -0.2421927    -0.7560425    -0.2600404
  C       -1.6915990    -0.3449750    -0.0589870
  C        0.5343510     1.5458860    -0.5628900
  C        3.1364470     0.8361460     0.1179860
  C        1.5277130     2.5174420    -0.5614560
  C        2.8303350     2.1515420    -0.2122750
  C       -2.0336590     0.6403590     0.8794580
  C       -2.7013800    -1.0161980    -0.7629970
  C       -3.3755740     0.9555500     1.0975090
  C       -4.0377320    -0.6802290    -0.5577760
  C        3.8275740    -1.9241930     0.5318010
  C       -4.3779170     0.3056950     0.3735650
  H       -0.4794410     1.8136050    -0.8470490
  H        4.1617050     0.5791300     0.3641360
  H        1.7801010    -2.1461120     0.0568400
  H        1.2958720     3.5406330    -0.8437660
  H        3.6204230     2.8995150    -0.1925990
  H       -1.2541740     1.1373190     1.4511930
  H       -2.4205700    -1.7983260    -1.4636490
  H       -3.6394530     1.7093650     1.8355280
  H       -4.8171580    -1.1915530    -1.1177270
  H        4.4331860    -1.7182640    -0.3623870
  H        3.8136890    -3.0019290     0.7024740
  H        4.3131750    -1.4541550     1.3926990
  H       -5.4217990     0.5615290     0.5392290
units angstrom
no_reorient  #important for SAPT in psi4, default
symmetry c1  #important for SAPT in psi4, default
}

set PROPERTIES_ORIGIN ["COM"]
properties('MP2/aug-cc-pvtz', properties = ['dipole'])
--------------------------------------------------------------------------

    Molecular point group: c1
  Charge       = 0
  Multiplicity = 1
  Basis Set: AUG-CC-PVTZ
    Blend: AUG-CC-PVTZ
  Basis Set: (AUG-CC-PVTZ AUX)
    Blend: AUG-CC-PVTZ-JKFIT

    Orbital Energies [Eh]
    ---------------------

    Doubly Occupied:

       1A    -20.534235     2A    -15.564808     3A    -11.339322
       4A    -11.301783     5A    -11.258806     6A    -11.257427
       7A    -11.257091     8A    -11.250107     9A    -11.247957
      10A    -11.247567    11A    -11.244659    12A    -11.242905
      13A    -11.241726    14A    -11.237891    15A    -11.231760
      16A    -11.228760    17A     -1.353222    18A     -1.246924
      19A     -1.161103    20A     -1.146136    21A     -1.059763
      22A     -1.023405    23A     -1.020808    24A     -1.013234
      25A     -0.932833    26A     -0.891840    27A     -0.844033
      28A     -0.833510    29A     -0.810452    30A     -0.772319
      31A     -0.717735    32A     -0.703718    33A     -0.683104
      34A     -0.657048    35A     -0.640224    36A     -0.632804
      37A     -0.620516    38A     -0.617326    39A     -0.604649
      40A     -0.601327    41A     -0.594015    42A     -0.578015
      43A     -0.544920    44A     -0.542008    45A     -0.531114
      46A     -0.518892    47A     -0.511670    48A     -0.505277
      49A     -0.498866    50A     -0.481003    51A     -0.431796
      52A     -0.418806    53A     -0.353054    54A     -0.343140
      55A     -0.340740    56A     -0.295391

  @DF-RHF Final Energy:  -667.25695060205987

   => Energetics <=

    Nuclear Repulsion Energy =           1002.6491887750127034
    One-Electron Energy =               -2896.2851933451111108
    Two-Electron Energy =                1226.3790539680387610
    Total Energy =                       -667.2569506020597601
  Basis Set: (AUG-CC-PVTZ AUX)
    Blend: AUG-CC-PVTZ-RI
    Molecular point group: c1

    Geometry (in Angstrom), charge = 0, multiplicity = 1:

       Center              X                  Y                   Z               Mass
    ------------   -----------------  -----------------  -----------------  -----------------
         O           -0.041765211599    -1.998323984587    -0.450206093150    15.994914619570
         N            2.480551788401    -1.472502984587     0.410856906850    14.003074004430
         C            0.833153788401     0.212933015413    -0.209066093150    12.000000000000
         C            2.175723788401    -0.171963984587     0.086731906850    12.000000000000
         C           -0.219009911599    -0.753616484587    -0.253024493150    12.000000000000
         C           -1.668416211599    -0.342548984587    -0.051971093150    12.000000000000
         C            0.557533788401     1.548312015413    -0.555874093150    12.000000000000
         C            3.159629788401     0.838572015413     0.125001906850    12.000000000000
         C            1.550895788401     2.519868015413    -0.554440093150    12.000000000000
         C            2.853517788401     2.153968015413    -0.205259093150    12.000000000000
         C           -2.010476211599     0.642785015413     0.886473906850    12.000000000000
         C           -2.678197211599    -1.013771984587    -0.755981093150    12.000000000000
         C           -3.352391211599     0.957976015413     1.104524906850    12.000000000000
         C           -4.014549211599    -0.677802984587    -0.550760093150    12.000000000000
         C            3.850756788401    -1.921766984587     0.538816906850    12.000000000000
         C           -4.354734211599     0.308121015413     0.380580906850    12.000000000000
         H           -0.456258211599     1.816031015413    -0.840033093150     1.007825032230
         H            4.184887788401     0.581556015413     0.371151906850     1.007825032230
         H            1.803283788401    -2.143685984587     0.063855906850     1.007825032230
         H            1.319054788401     3.543059015413    -0.836750093150     1.007825032230
         H            3.643605788401     2.901941015413    -0.185583093150     1.007825032230
         H           -1.230991211599     1.139745015413     1.458208906850     1.007825032230
         H           -2.397387211599    -1.795899984587    -1.456633093150     1.007825032230
         H           -3.616270211599     1.711791015413     1.842543906850     1.007825032230
         H           -4.793975211599    -1.189126984587    -1.110711093150     1.007825032230
         H            4.456368788401    -1.715837984587    -0.355371093150     1.007825032230
         H            3.836871788401    -2.999502984587     0.709489906850     1.007825032230
         H            4.336357788401    -1.451728984587     1.399714906850     1.007825032230
         H           -5.398616211599     0.563955015413     0.546244906850     1.007825032230

  Basis Set: AUG-CC-PVTZ
    Blend: AUG-CC-PVTZ
  Basis Set: (AUG-CC-PVTZ AUX)
    Blend: AUG-CC-PVTZ-JKFIT
	 Reference Energy          =    -667.2569506020598737 [Eh]
	 Singles Energy            =      -0.0000000000000000 [Eh]
	 Same-Spin Energy          =      -0.7355473265300401 [Eh]
	 Opposite-Spin Energy      =      -2.2671030045033627 [Eh]
	 Correlation Energy        =      -3.0026503310334025 [Eh]
	 Total Energy              =    -670.2596009330932247 [Eh]

	 ================> DF-SCS-MP2 Energies <==================
	-----------------------------------------------------------
	 SCS Same-Spin Scale       =       0.3333333333333333 [-]
	 SCS Opposite-Spin Scale   =       1.2000000000000000 [-]
	 SCS Same-Spin Energy      =      -0.2451824421766800 [Eh]
	 SCS Opposite-Spin Energy  =      -2.7205236054040349 [Eh]
	 SCS Correlation Energy    =      -2.9657060475807149 [Eh]
	 SCS Total Energy          =    -670.2226566496406122 [Eh]
	-----------------------------------------------------------

  Dipole Moment: [D]
     X:     0.7863      Y:     1.4023      Z:     0.3402     Total:     1.6434

*** Psi4 exiting successfully. Buy a developer a beer!
