                               Psi4 1.4a3.dev225

  ==> Input File <==

--------------------------------------------------------------------------
#psi4
#
memory 32 gb

molecule  {
0 1
  O       -0.0649480    -2.0007500    -0.4572220
  N        2.4573690    -1.4749290     0.4038410
  C        0.8099710     0.2105070    -0.2160820
  C        2.1525410    -0.1743900     0.0797160
  C       -0.2824352    -0.7704020    -0.2584355
  C       -1.6915990    -0.3449750    -0.0589870
  C        0.5343510     1.5458860    -0.5628900
  C        3.1364470     0.8361460     0.1179860
  C        1.5277130     2.5174420    -0.5614560
  C        2.8303350     2.1515420    -0.2122750
  C       -2.0336590     0.6403590     0.8794580
  C       -2.7013800    -1.0161980    -0.7629970
  C       -3.3755740     0.9555500     1.0975090
  C       -4.0377320    -0.6802290    -0.5577760
  C        3.8275740    -1.9241930     0.5318010
  C       -4.3779170     0.3056950     0.3735650
  H       -0.4794410     1.8136050    -0.8470490
  H        4.1617050     0.5791300     0.3641360
  H        1.7801010    -2.1461120     0.0568400
  H        1.2958720     3.5406330    -0.8437660
  H        3.6204230     2.8995150    -0.1925990
  H       -1.2541740     1.1373190     1.4511930
  H       -2.4205700    -1.7983260    -1.4636490
  H       -3.6394530     1.7093650     1.8355280
  H       -4.8171580    -1.1915530    -1.1177270
  H        4.4331860    -1.7182640    -0.3623870
  H        3.8136890    -3.0019290     0.7024740
  H        4.3131750    -1.4541550     1.3926990
  H       -5.4217990     0.5615290     0.5392290
units angstrom
no_reorient  #important for SAPT in psi4, default
symmetry c1  #important for SAPT in psi4, default
}

set PROPERTIES_ORIGIN ["COM"]
properties('MP2/aug-cc-pvtz', properties = ['dipole'])
--------------------------------------------------------------------------

    Molecular point group: c1
  Charge       = 0
  Multiplicity = 1
  Basis Set: AUG-CC-PVTZ
    Blend: AUG-CC-PVTZ
  Basis Set: (AUG-CC-PVTZ AUX)
    Blend: AUG-CC-PVTZ-JKFIT

    Orbital Energies [Eh]
    ---------------------

    Doubly Occupied:

       1A    -20.536485     2A    -15.562052     3A    -11.340243
       4A    -11.298407     5A    -11.257101     6A    -11.253663
       7A    -11.253375     8A    -11.251877     9A    -11.250813
      10A    -11.249724    11A    -11.247633    12A    -11.245221
      13A    -11.243872    14A    -11.238877    15A    -11.229494
      16A    -11.226358    17A     -1.358885    18A     -1.244346
      19A     -1.164154    20A     -1.142977    21A     -1.057944
      22A     -1.026104    23A     -1.021596    24A     -1.010568
      25A     -0.930149    26A     -0.890319    27A     -0.846040
      28A     -0.835263    29A     -0.808219    30A     -0.771976
      31A     -0.718618    32A     -0.701450    33A     -0.683141
      34A     -0.655964    35A     -0.643717    36A     -0.633397
      37A     -0.619258    38A     -0.615329    39A     -0.606844
      40A     -0.600654    41A     -0.596271    42A     -0.576383
      43A     -0.542835    44A     -0.541697    45A     -0.530167
      46A     -0.520336    47A     -0.513336    48A     -0.503884
      49A     -0.501265    50A     -0.482673    51A     -0.429582
      52A     -0.420099    53A     -0.350998    54A     -0.345205
      55A     -0.343510    56A     -0.292514

  @DF-RHF Final Energy:  -667.26012595778934

   => Energetics <=

    Nuclear Repulsion Energy =           1002.5198273423301316
    One-Electron Energy =               -2896.0341804246522770
    Two-Electron Energy =                1226.2542271245326901
    Total Energy =                       -667.2601259577893416
  Basis Set: (AUG-CC-PVTZ AUX)
    Blend: AUG-CC-PVTZ-RI
    Molecular point group: c1

    Geometry (in Angstrom), charge = 0, multiplicity = 1:

       Center              X                  Y                   Z               Mass
    ------------   -----------------  -----------------  -----------------  -----------------
         O           -0.039477619679    -1.997507716310    -0.450297323970    15.994914619570
         N            2.482839380321    -1.471686716310     0.410765676030    14.003074004430
         C            0.835441380321     0.213749283690    -0.209157323970    12.000000000000
         C            2.178011380321    -0.171147716310     0.086640676030    12.000000000000
         C           -0.256964819679    -0.767159716310    -0.251510823970    12.000000000000
         C           -1.666128619679    -0.341732716310    -0.052062323970    12.000000000000
         C            0.559821380321     1.549128283690    -0.555965323970    12.000000000000
         C            3.161917380321     0.839388283690     0.124910676030    12.000000000000
         C            1.553183380321     2.520684283690    -0.554531323970    12.000000000000
         C            2.855805380321     2.154784283690    -0.205350323970    12.000000000000
         C           -2.008188619679     0.643601283690     0.886382676030    12.000000000000
         C           -2.675909619679    -1.012955716310    -0.756072323970    12.000000000000
         C           -3.350103619679     0.958792283690     1.104433676030    12.000000000000
         C           -4.012261619679    -0.676986716310    -0.550851323970    12.000000000000
         C            3.853044380321    -1.920950716310     0.538725676030    12.000000000000
         C           -4.352446619679     0.308937283690     0.380489676030    12.000000000000
         H           -0.453970619679     1.816847283690    -0.840124323970     1.007825032230
         H            4.187175380321     0.582372283690     0.371060676030     1.007825032230
         H            1.805571380321    -2.142869716310     0.063764676030     1.007825032230
         H            1.321342380321     3.543875283690    -0.836841323970     1.007825032230
         H            3.645893380321     2.902757283690    -0.185674323970     1.007825032230
         H           -1.228703619679     1.140561283690     1.458117676030     1.007825032230
         H           -2.395099619679    -1.795083716310    -1.456724323970     1.007825032230
         H           -3.613982619679     1.712607283690     1.842452676030     1.007825032230
         H           -4.791687619679    -1.188310716310    -1.110802323970     1.007825032230
         H            4.458656380321    -1.715021716310    -0.355462323970     1.007825032230
         H            3.839159380321    -2.998686716310     0.709398676030     1.007825032230
         H            4.338645380321    -1.450912716310     1.399623676030     1.007825032230
         H           -5.396328619679     0.564771283690     0.546153676030     1.007825032230

  Basis Set: AUG-CC-PVTZ
    Blend: AUG-CC-PVTZ
  Basis Set: (AUG-CC-PVTZ AUX)
    Blend: AUG-CC-PVTZ-JKFIT
	 Reference Energy          =    -667.2601259577893416 [Eh]
	 Singles Energy            =      -0.0000000000000000 [Eh]
	 Same-Spin Energy          =      -0.7352602277792919 [Eh]
	 Opposite-Spin Energy      =      -2.2665412147667769 [Eh]
	 Correlation Energy        =      -3.0018014425460686 [Eh]
	 Total Energy              =    -670.2619274003353667 [Eh]

	 ================> DF-SCS-MP2 Energies <==================
	-----------------------------------------------------------
	 SCS Same-Spin Scale       =       0.3333333333333333 [-]
	 SCS Opposite-Spin Scale   =       1.2000000000000000 [-]
	 SCS Same-Spin Energy      =      -0.2450867425930973 [Eh]
	 SCS Opposite-Spin Energy  =      -2.7198494577201324 [Eh]
	 SCS Correlation Energy    =      -2.9649362003132298 [Eh]
	 SCS Total Energy          =    -670.2250621581025598 [Eh]
	-----------------------------------------------------------

  Dipole Moment: [D]
     X:     0.3366      Y:     1.2932      Z:     0.3629     Total:     1.3847

*** Psi4 exiting successfully. Buy a developer a beer!
