                               Psi4 1.3.2 release

  ==> Input File <==

--------------------------------------------------------------------------
#psi4
#
memory 32 gb

molecule  {
0 1
  O       -0.0649480    -2.0007500    -0.4572220
  N        2.4573690    -1.4749290     0.4038410
  C        0.7381509     0.2825533    -0.1983612
  C        2.1525410    -0.1743900     0.0797160
  C       -0.2789970    -0.7898520    -0.2615780
  C       -1.6915990    -0.3449750    -0.0589870
  C        0.5343510     1.5458860    -0.5628900
  C        3.1364470     0.8361460     0.1179860
  C        1.5277130     2.5174420    -0.5614560
  C        2.8303350     2.1515420    -0.2122750
  C       -2.0336590     0.6403590     0.8794580
  C       -2.7013800    -1.0161980    -0.7629970
  C       -3.3755740     0.9555500     1.0975090
  C       -4.0377320    -0.6802290    -0.5577760
  C        3.8275740    -1.9241930     0.5318010
  C       -4.3779170     0.3056950     0.3735650
  H       -0.4794410     1.8136050    -0.8470490
  H        4.1617050     0.5791300     0.3641360
  H        1.7801010    -2.1461120     0.0568400
  H        1.2958720     3.5406330    -0.8437660
  H        3.6204230     2.8995150    -0.1925990
  H       -1.2541740     1.1373190     1.4511930
  H       -2.4205700    -1.7983260    -1.4636490
  H       -3.6394530     1.7093650     1.8355280
  H       -4.8171580    -1.1915530    -1.1177270
  H        4.4331860    -1.7182640    -0.3623870
  H        3.8136890    -3.0019290     0.7024740
  H        4.3131750    -1.4541550     1.3926990
  H       -5.4217990     0.5615290     0.5392290
units angstrom
no_reorient  #important for SAPT in psi4, default
symmetry c1  #important for SAPT in psi4, default
}

set PROPERTIES_ORIGIN ["COM"]
properties('MP2/aug-cc-pvtz', properties = ['dipole'])
--------------------------------------------------------------------------

    Molecular point group: c1
  Charge       = 0
  Multiplicity = 1
  Basis Set: AUG-CC-PVTZ
    Blend: AUG-CC-PVTZ
  Basis Set: (AUG-CC-PVTZ AUX)
    Blend: AUG-CC-PVTZ-JKFIT

    Orbital Energies [Eh]
    ---------------------

    Doubly Occupied:

       1A    -20.543875     2A    -15.566920     3A    -11.342571
       4A    -11.304634     5A    -11.258967     6A    -11.252544
       7A    -11.250659     8A    -11.249706     9A    -11.247180
      10A    -11.246067    11A    -11.245903    12A    -11.244487
      13A    -11.242991    14A    -11.240775    15A    -11.224915
      16A    -11.222931    17A     -1.374380    18A     -1.244125
      19A     -1.164135    20A     -1.146099    21A     -1.060364
      22A     -1.026005    23A     -1.021729    24A     -1.004856
      25A     -0.931818    26A     -0.890924    27A     -0.843294
      28A     -0.831727    29A     -0.808564    30A     -0.770064
      31A     -0.716391    32A     -0.706982    33A     -0.684290
      34A     -0.654037    35A     -0.644182    36A     -0.633127
      37A     -0.617754    38A     -0.614624    39A     -0.608287
      40A     -0.605005    41A     -0.596033    42A     -0.580561
      43A     -0.545700    44A     -0.541418    45A     -0.533459
      46A     -0.520885    47A     -0.512364    48A     -0.501083
      49A     -0.497263    50A     -0.486891    51A     -0.432013
      52A     -0.417472    53A     -0.359264    54A     -0.345384
      55A     -0.343228    56A     -0.286031

  @DF-RHF Final Energy:  -667.25097018798840

   => Energetics <=

    Nuclear Repulsion Energy =           1002.4586129368120737
    One-Electron Energy =               -2895.8453000210574828
    Two-Electron Energy =                1226.1357168962570086
    Total Energy =                       -667.2509701879882869
  Basis Set: (AUG-CC-PVTZ AUX)
    Blend: AUG-CC-PVTZ-RI
    Molecular point group: c1

    Geometry (in Angstrom), charge = 0, multiplicity = 1:

       Center              X                  Y                   Z               Mass
    ------------   -----------------  -----------------  -----------------  -----------------
         O           -0.035590438668    -2.000497562141    -0.451126029972    15.994914619570
         N            2.486726561332    -1.474676562141     0.409936970028    14.003074004430
         C            0.767508461332     0.282805737859    -0.192265229972    12.000000000000
         C            2.181898561332    -0.174137562141     0.085811970028    12.000000000000
         C           -0.249639438668    -0.789599562141    -0.255482029972    12.000000000000
         C           -1.662241438668    -0.344722562141    -0.052891029972    12.000000000000
         C            0.563708561332     1.546138437859    -0.556794029972    12.000000000000
         C            3.165804561332     0.836398437859     0.124081970028    12.000000000000
         C            1.557070561332     2.517694437859    -0.555360029972    12.000000000000
         C            2.859692561332     2.151794437859    -0.206179029972    12.000000000000
         C           -2.004301438668     0.640611437859     0.885553970028    12.000000000000
         C           -2.672022438668    -1.015945562141    -0.756901029972    12.000000000000
         C           -3.346216438668     0.955802437859     1.103604970028    12.000000000000
         C           -4.008374438668    -0.679976562141    -0.551680029972    12.000000000000
         C            3.856931561332    -1.923940562141     0.537896970028    12.000000000000
         C           -4.348559438668     0.305947437859     0.379660970028    12.000000000000
         H           -0.450083438668     1.813857437859    -0.840953029972     1.007825032230
         H            4.191062561332     0.579382437859     0.370231970028     1.007825032230
         H            1.809458561332    -2.145859562141     0.062935970028     1.007825032230
         H            1.325229561332     3.540885437859    -0.837670029972     1.007825032230
         H            3.649780561332     2.899767437859    -0.186503029972     1.007825032230
         H           -1.224816438668     1.137571437859     1.457288970028     1.007825032230
         H           -2.391212438668    -1.798073562141    -1.457553029972     1.007825032230
         H           -3.610095438668     1.709617437859     1.841623970028     1.007825032230
         H           -4.787800438668    -1.191300562141    -1.111631029972     1.007825032230
         H            4.462543561332    -1.718011562141    -0.356291029972     1.007825032230
         H            3.843046561332    -3.001676562141     0.708569970028     1.007825032230
         H            4.342532561332    -1.453902562141     1.398794970028     1.007825032230
         H           -5.392441438668     0.561781437859     0.545324970028     1.007825032230

  Basis Set: AUG-CC-PVTZ
    Blend: AUG-CC-PVTZ
  Basis Set: (AUG-CC-PVTZ AUX)
    Blend: AUG-CC-PVTZ-JKFIT
	 Reference Energy          =    -667.2509701879884005 [Eh]
	 Singles Energy            =      -0.0000000000000000 [Eh]
	 Same-Spin Energy          =      -0.7347658036021157 [Eh]
	 Opposite-Spin Energy      =      -2.2656864967770511 [Eh]
	 Correlation Energy        =      -3.0004523003791670 [Eh]
	 Total Energy              =    -670.2514224883675524 [Eh]

	 ================> DF-SCS-MP2 Energies <==================
	-----------------------------------------------------------
	 SCS Same-Spin Scale       =       0.3333333333333333 [-]
	 SCS Opposite-Spin Scale   =       1.2000000000000000 [-]
	 SCS Same-Spin Energy      =      -0.2449219345340386 [Eh]
	 SCS Opposite-Spin Energy  =      -2.7188237961324613 [Eh]
	 SCS Correlation Energy    =      -2.9637457306665000 [Eh]
	 SCS Total Energy          =    -670.2147159186548606 [Eh]
	-----------------------------------------------------------

  Dipole Moment: [D]
     X:     0.3728      Y:     1.0499      Z:     0.3532     Total:     1.1688

*** Psi4 exiting successfully. Buy a developer a beer!
