                               Psi4 1.4a3.dev225

  ==> Input File <==

--------------------------------------------------------------------------
#psi4
#
memory 32 gb

molecule  {
0 1
  O       -0.0649480    -2.0007500    -0.4572220
  N        2.4573690    -1.4749290     0.4038410
  C        0.8099710     0.2105070    -0.2160820
  C        2.1525410    -0.1743900     0.0797160
  C       -0.2789970    -0.7898520    -0.2615780
  C       -1.6726987    -0.3509274    -0.0616976
  C        0.5343510     1.5458860    -0.5628900
  C        3.1364470     0.8361460     0.1179860
  C        1.5277130     2.5174420    -0.5614560
  C        2.8303350     2.1515420    -0.2122750
  C       -2.0336590     0.6403590     0.8794580
  C       -2.7013800    -1.0161980    -0.7629970
  C       -3.3755740     0.9555500     1.0975090
  C       -4.0377320    -0.6802290    -0.5577760
  C        3.8275740    -1.9241930     0.5318010
  C       -4.3779170     0.3056950     0.3735650
  H       -0.4794410     1.8136050    -0.8470490
  H        4.1617050     0.5791300     0.3641360
  H        1.7801010    -2.1461120     0.0568400
  H        1.2958720     3.5406330    -0.8437660
  H        3.6204230     2.8995150    -0.1925990
  H       -1.2541740     1.1373190     1.4511930
  H       -2.4205700    -1.7983260    -1.4636490
  H       -3.6394530     1.7093650     1.8355280
  H       -4.8171580    -1.1915530    -1.1177270
  H        4.4331860    -1.7182640    -0.3623870
  H        3.8136890    -3.0019290     0.7024740
  H        4.3131750    -1.4541550     1.3926990
  H       -5.4217990     0.5615290     0.5392290
units angstrom
no_reorient  #important for SAPT in psi4, default
symmetry c1  #important for SAPT in psi4, default
}

set PROPERTIES_ORIGIN ["COM"]
properties('MP2/aug-cc-pvtz', properties = ['dipole'])
--------------------------------------------------------------------------

    Molecular point group: c1
  Charge       = 0
  Multiplicity = 1
  Basis Set: AUG-CC-PVTZ
    Blend: AUG-CC-PVTZ
  Basis Set: (AUG-CC-PVTZ AUX)
    Blend: AUG-CC-PVTZ-JKFIT

    Orbital Energies [Eh]
    ---------------------

    Doubly Occupied:

       1A    -20.538939     2A    -15.561743     3A    -11.338828
       4A    -11.297065     5A    -11.256973     6A    -11.253302
       7A    -11.252525     8A    -11.252459     9A    -11.251380
      10A    -11.250133    11A    -11.248718    12A    -11.245275
      13A    -11.243862    14A    -11.238403    15A    -11.228761
      16A    -11.225770    17A     -1.372559    18A     -1.244249
      19A     -1.162243    20A     -1.141878    21A     -1.057328
      22A     -1.025228    23A     -1.020209    24A     -1.009857
      25A     -0.929546    26A     -0.890544    27A     -0.846232
      28A     -0.833836    29A     -0.807342    30A     -0.771391
      31A     -0.718201    32A     -0.701495    33A     -0.684131
      34A     -0.656048    35A     -0.645856    36A     -0.633067
      37A     -0.619134    38A     -0.615132    39A     -0.608643
      40A     -0.601024    41A     -0.595237    42A     -0.577504
      43A     -0.545279    44A     -0.542139    45A     -0.530833
      46A     -0.521510    47A     -0.512438    48A     -0.503776
      49A     -0.499203    50A     -0.485789    51A     -0.429255
      52A     -0.420321    53A     -0.350383    54A     -0.344530
      55A     -0.343075    56A     -0.291913

  @DF-RHF Final Energy:  -667.26193677114952

   => Energetics <=

    Nuclear Repulsion Energy =           1002.5782550858823470
    One-Electron Energy =               -2896.1353881357304090
    Two-Electron Energy =                1226.2951962786985405
    Total Energy =                       -667.2619367711495215
  Basis Set: (AUG-CC-PVTZ AUX)
    Blend: AUG-CC-PVTZ-RI
    Molecular point group: c1

    Geometry (in Angstrom), charge = 0, multiplicity = 1:

       Center              X                  Y                   Z               Mass
    ------------   -----------------  -----------------  -----------------  -----------------
         O           -0.040747455601    -1.996063712459    -0.449964603482    15.994914619570
         N            2.481569544399    -1.470242712459     0.411098396518    14.003074004430
         C            0.834171544399     0.215193287541    -0.208824603482    12.000000000000
         C            2.176741544399    -0.169703712459     0.086973396518    12.000000000000
         C           -0.254796455601    -0.785165712459    -0.254320603482    12.000000000000
         C           -1.648498155601    -0.346241112459    -0.054440203482    12.000000000000
         C            0.558551544399     1.550572287541    -0.555632603482    12.000000000000
         C            3.160647544399     0.840832287541     0.125243396518    12.000000000000
         C            1.551913544399     2.522128287541    -0.554198603482    12.000000000000
         C            2.854535544399     2.156228287541    -0.205017603482    12.000000000000
         C           -2.009458455601     0.645045287541     0.886715396518    12.000000000000
         C           -2.677179455601    -1.011511712459    -0.755739603482    12.000000000000
         C           -3.351373455601     0.960236287541     1.104766396518    12.000000000000
         C           -4.013531455601    -0.675542712459    -0.550518603482    12.000000000000
         C            3.851774544399    -1.919506712459     0.539058396518    12.000000000000
         C           -4.353716455601     0.310381287541     0.380822396518    12.000000000000
         H           -0.455240455601     1.818291287541    -0.839791603482     1.007825032230
         H            4.185905544399     0.583816287541     0.371393396518     1.007825032230
         H            1.804301544399    -2.141425712459     0.064097396518     1.007825032230
         H            1.320072544399     3.545319287541    -0.836508603482     1.007825032230
         H            3.644623544399     2.904201287541    -0.185341603482     1.007825032230
         H           -1.229973455601     1.142005287541     1.458450396518     1.007825032230
         H           -2.396369455601    -1.793639712459    -1.456391603482     1.007825032230
         H           -3.615252455601     1.714051287541     1.842785396518     1.007825032230
         H           -4.792957455601    -1.186866712459    -1.110469603482     1.007825032230
         H            4.457386544399    -1.713577712459    -0.355129603482     1.007825032230
         H            3.837889544399    -2.997242712459     0.709731396518     1.007825032230
         H            4.337375544399    -1.449468712459     1.399956396518     1.007825032230
         H           -5.397598455601     0.566215287541     0.546486396518     1.007825032230

  Basis Set: AUG-CC-PVTZ
    Blend: AUG-CC-PVTZ
  Basis Set: (AUG-CC-PVTZ AUX)
    Blend: AUG-CC-PVTZ-JKFIT
	 Reference Energy          =    -667.2619367711495215 [Eh]
	 Singles Energy            =      -0.0000000000000000 [Eh]
	 Same-Spin Energy          =      -0.7347962264585471 [Eh]
	 Opposite-Spin Energy      =      -2.2656209128354381 [Eh]
	 Correlation Energy        =      -3.0004171392939853 [Eh]
	 Total Energy              =    -670.2623539104434940 [Eh]

	 ================> DF-SCS-MP2 Energies <==================
	-----------------------------------------------------------
	 SCS Same-Spin Scale       =       0.3333333333333333 [-]
	 SCS Opposite-Spin Scale   =       1.2000000000000000 [-]
	 SCS Same-Spin Energy      =      -0.2449320754861824 [Eh]
	 SCS Opposite-Spin Energy  =      -2.7187450954025256 [Eh]
	 SCS Correlation Energy    =      -2.9636771708887082 [Eh]
	 SCS Total Energy          =    -670.2256139420381942 [Eh]
	-----------------------------------------------------------

  Dipole Moment: [D]
     X:     0.2705      Y:     1.2163      Z:     0.3528     Total:     1.2950

*** Psi4 exiting successfully. Buy a developer a beer!
