                               Psi4 1.3.2 release

  ==> Input File <==

--------------------------------------------------------------------------
#psi4
#
memory 32 gb

molecule  {
0 1
  O       -0.0649480    -2.0007500    -0.4572220
  N        2.4573690    -1.4749290     0.4038410
  C        0.8099710     0.2105070    -0.2160820
  C        2.1784058    -0.0786364     0.0701322
  C       -0.2789970    -0.7898520    -0.2615780
  C       -1.6915990    -0.3449750    -0.0589870
  C        0.5343510     1.5458860    -0.5628900
  C        3.1364470     0.8361460     0.1179860
  C        1.5277130     2.5174420    -0.5614560
  C        2.8303350     2.1515420    -0.2122750
  C       -2.0336590     0.6403590     0.8794580
  C       -2.7013800    -1.0161980    -0.7629970
  C       -3.3755740     0.9555500     1.0975090
  C       -4.0377320    -0.6802290    -0.5577760
  C        3.8275740    -1.9241930     0.5318010
  C       -4.3779170     0.3056950     0.3735650
  H       -0.4794410     1.8136050    -0.8470490
  H        4.1617050     0.5791300     0.3641360
  H        1.7801010    -2.1461120     0.0568400
  H        1.2958720     3.5406330    -0.8437660
  H        3.6204230     2.8995150    -0.1925990
  H       -1.2541740     1.1373190     1.4511930
  H       -2.4205700    -1.7983260    -1.4636490
  H       -3.6394530     1.7093650     1.8355280
  H       -4.8171580    -1.1915530    -1.1177270
  H        4.4331860    -1.7182640    -0.3623870
  H        3.8136890    -3.0019290     0.7024740
  H        4.3131750    -1.4541550     1.3926990
  H       -5.4217990     0.5615290     0.5392290
units angstrom
no_reorient  #important for SAPT in psi4, default
symmetry c1  #important for SAPT in psi4, default
}

set PROPERTIES_ORIGIN ["COM"]
properties('MP2/aug-cc-pvtz', properties = ['dipole'])
--------------------------------------------------------------------------

    Molecular point group: c1
  Charge       = 0
  Multiplicity = 1
  Basis Set: AUG-CC-PVTZ
    Blend: AUG-CC-PVTZ
  Basis Set: (AUG-CC-PVTZ AUX)
    Blend: AUG-CC-PVTZ-JKFIT

    Orbital Energies [Eh]
    ---------------------

    Doubly Occupied:

       1A    -20.542188     2A    -15.548129     3A    -11.344247
       4A    -11.288992     5A    -11.256772     6A    -11.255669
       7A    -11.253282     8A    -11.251782     9A    -11.251691
      10A    -11.248810    11A    -11.247035    12A    -11.246455
      13A    -11.245016    14A    -11.244258    15A    -11.231837
      16A    -11.223869    17A     -1.373792    18A     -1.219064
      19A     -1.165229    20A     -1.146139    21A     -1.061110
      22A     -1.028372    23A     -1.024019    24A     -1.016550
      25A     -0.915320    26A     -0.892941    27A     -0.848203
      28A     -0.836663    29A     -0.807135    30A     -0.774121
      31A     -0.721058    32A     -0.696758    33A     -0.678829
      34A     -0.657816    35A     -0.644598    36A     -0.632485
      37A     -0.625389    38A     -0.611644    39A     -0.603033
      40A     -0.599451    41A     -0.597303    42A     -0.574882
      43A     -0.546858    44A     -0.540816    45A     -0.526443
      46A     -0.522964    47A     -0.515073    48A     -0.503787
      49A     -0.500532    50A     -0.486374    51A     -0.424396
      52A     -0.413883    53A     -0.353961    54A     -0.346624
      55A     -0.345116    56A     -0.301467

  @DF-RHF Final Energy:  -667.24991737793403

   => Energetics <=

    Nuclear Repulsion Energy =           1002.4462075958741707
    One-Electron Energy =               -2895.8717836719029037
    Two-Electron Energy =                1226.1756586980948214
    Total Energy =                       -667.2499173779340254
  Basis Set: (AUG-CC-PVTZ AUX)
    Blend: AUG-CC-PVTZ-RI
    Molecular point group: c1

    Geometry (in Angstrom), charge = 0, multiplicity = 1:

       Center              X                  Y                   Z               Mass
    ------------   -----------------  -----------------  -----------------  -----------------
         O           -0.041143353816    -2.001845207737    -0.449573895231    15.994914619570
         N            2.481173646184    -1.476024207737     0.411489104769    14.003074004430
         C            0.833775646184     0.209411792263    -0.208433895231    12.000000000000
         C            2.202210446184    -0.079731607737     0.077780304769    12.000000000000
         C           -0.255192353816    -0.790947207737    -0.253929895231    12.000000000000
         C           -1.667794353816    -0.346070207737    -0.051338895231    12.000000000000
         C            0.558155646184     1.544790792263    -0.555241895231    12.000000000000
         C            3.160251646184     0.835050792263     0.125634104769    12.000000000000
         C            1.551517646184     2.516346792263    -0.553807895231    12.000000000000
         C            2.854139646184     2.150446792263    -0.204626895231    12.000000000000
         C           -2.009854353816     0.639263792263     0.887106104769    12.000000000000
         C           -2.677575353816    -1.017293207737    -0.755348895231    12.000000000000
         C           -3.351769353816     0.954454792263     1.105157104769    12.000000000000
         C           -4.013927353816    -0.681324207737    -0.550127895231    12.000000000000
         C            3.851378646184    -1.925288207737     0.539449104769    12.000000000000
         C           -4.354112353816     0.304599792263     0.381213104769    12.000000000000
         H           -0.455636353816     1.812509792263    -0.839400895231     1.007825032230
         H            4.185509646184     0.578034792263     0.371784104769     1.007825032230
         H            1.803905646184    -2.147207207737     0.064488104769     1.007825032230
         H            1.319676646184     3.539537792263    -0.836117895231     1.007825032230
         H            3.644227646184     2.898419792263    -0.184950895231     1.007825032230
         H           -1.230369353816     1.136223792263     1.458841104769     1.007825032230
         H           -2.396765353816    -1.799421207737    -1.456000895231     1.007825032230
         H           -3.615648353816     1.708269792263     1.843176104769     1.007825032230
         H           -4.793353353816    -1.192648207737    -1.110078895231     1.007825032230
         H            4.456990646184    -1.719359207737    -0.354738895231     1.007825032230
         H            3.837493646184    -3.003024207737     0.710122104769     1.007825032230
         H            4.336979646184    -1.455250207737     1.400347104769     1.007825032230
         H           -5.397994353816     0.560433792263     0.546877104769     1.007825032230

  Basis Set: AUG-CC-PVTZ
    Blend: AUG-CC-PVTZ
  Basis Set: (AUG-CC-PVTZ AUX)
    Blend: AUG-CC-PVTZ-JKFIT
	 Reference Energy          =    -667.2499173779340254 [Eh]
	 Singles Energy            =      -0.0000000000000000 [Eh]
	 Same-Spin Energy          =      -0.7344347451636173 [Eh]
	 Opposite-Spin Energy      =      -2.2657235540689404 [Eh]
	 Correlation Energy        =      -3.0001582992325577 [Eh]
	 Total Energy              =    -670.2500756771665920 [Eh]

	 ================> DF-SCS-MP2 Energies <==================
	-----------------------------------------------------------
	 SCS Same-Spin Scale       =       0.3333333333333333 [-]
	 SCS Opposite-Spin Scale   =       1.2000000000000000 [-]
	 SCS Same-Spin Energy      =      -0.2448115817212058 [Eh]
	 SCS Opposite-Spin Energy  =      -2.7188682648827283 [Eh]
	 SCS Correlation Energy    =      -2.9636798466039340 [Eh]
	 SCS Total Energy          =    -670.2135972245379207 [Eh]
	-----------------------------------------------------------

  Dipole Moment: [D]
     X:    -0.0793      Y:     1.7890      Z:     0.1727     Total:     1.7991

*** Psi4 exiting successfully. Buy a developer a beer!
