                               Psi4 1.3.2 release

  ==> Input File <==

--------------------------------------------------------------------------
#psi4
#
memory 32 gb

molecule  {
0 1
  O       -0.1077055    -2.0079920    -0.4543518
  N        2.4573690    -1.4749290     0.4038410
  C        0.8099710     0.2105070    -0.2160820
  C        2.1525410    -0.1743900     0.0797160
  C       -0.2789970    -0.7898520    -0.2615780
  C       -1.6915990    -0.3449750    -0.0589870
  C        0.5343510     1.5458860    -0.5628900
  C        3.1364470     0.8361460     0.1179860
  C        1.5277130     2.5174420    -0.5614560
  C        2.8303350     2.1515420    -0.2122750
  C       -2.0336590     0.6403590     0.8794580
  C       -2.7013800    -1.0161980    -0.7629970
  C       -3.3755740     0.9555500     1.0975090
  C       -4.0377320    -0.6802290    -0.5577760
  C        3.8275740    -1.9241930     0.5318010
  C       -4.3779170     0.3056950     0.3735650
  H       -0.4794410     1.8136050    -0.8470490
  H        4.1617050     0.5791300     0.3641360
  H        1.7801010    -2.1461120     0.0568400
  H        1.2958720     3.5406330    -0.8437660
  H        3.6204230     2.8995150    -0.1925990
  H       -1.2541740     1.1373190     1.4511930
  H       -2.4205700    -1.7983260    -1.4636490
  H       -3.6394530     1.7093650     1.8355280
  H       -4.8171580    -1.1915530    -1.1177270
  H        4.4331860    -1.7182640    -0.3623870
  H        3.8136890    -3.0019290     0.7024740
  H        4.3131750    -1.4541550     1.3926990
  H       -5.4217990     0.5615290     0.5392290
units angstrom
no_reorient  #important for SAPT in psi4, default
symmetry c1  #important for SAPT in psi4, default
}

set PROPERTIES_ORIGIN ["COM"]
properties('MP2/aug-cc-pvtz', properties = ['dipole'])
--------------------------------------------------------------------------

    Molecular point group: c1
  Charge       = 0
  Multiplicity = 1
  Basis Set: AUG-CC-PVTZ
    Blend: AUG-CC-PVTZ
  Basis Set: (AUG-CC-PVTZ AUX)
    Blend: AUG-CC-PVTZ-JKFIT

    Orbital Energies [Eh]
    ---------------------

    Doubly Occupied:

       1A    -20.539617     2A    -15.563888     3A    -11.339816
       4A    -11.298506     5A    -11.258255     6A    -11.253848
       7A    -11.253748     8A    -11.249812     9A    -11.248840
      10A    -11.247590    11A    -11.245398    12A    -11.243777
      13A    -11.242338    14A    -11.240180    15A    -11.229861
      16A    -11.226862    17A     -1.372094    18A     -1.246088
      19A     -1.162148    20A     -1.143030    21A     -1.055989
      22A     -1.024427    23A     -1.020242    24A     -1.011062
      25A     -0.930278    26A     -0.889126    27A     -0.844734
      28A     -0.833725    29A     -0.808340    30A     -0.770919
      31A     -0.717781    32A     -0.702726    33A     -0.683056
      34A     -0.656745    35A     -0.643278    36A     -0.633157
      37A     -0.619661    38A     -0.616323    39A     -0.607318
      40A     -0.601908    41A     -0.595039    42A     -0.579254
      43A     -0.544977    44A     -0.543384    45A     -0.530835
      46A     -0.519777    47A     -0.512306    48A     -0.504888
      49A     -0.499967    50A     -0.486390    51A     -0.430585
      52A     -0.419340    53A     -0.351180    54A     -0.343917
      55A     -0.341890    56A     -0.293373

  @DF-RHF Final Energy:  -667.26253930764744

   => Energetics <=

    Nuclear Repulsion Energy =           1002.3048836815482900
    One-Electron Energy =               -2895.5876586753906849
    Two-Electron Energy =                1226.0202356861948374
    Total Energy =                       -667.2625393076475575
  Basis Set: (AUG-CC-PVTZ AUX)
    Blend: AUG-CC-PVTZ-RI
    Molecular point group: c1

    Geometry (in Angstrom), charge = 0, multiplicity = 1:

       Center              X                  Y                   Z               Mass
    ------------   -----------------  -----------------  -----------------  -----------------
         O           -0.079190851407    -2.003095355131    -0.447465961559    15.994914619570
         N            2.485883648593    -1.470032355131     0.410726838441    14.003074004430
         C            0.838485648593     0.215403644869    -0.209196161559    12.000000000000
         C            2.181055648593    -0.169493355131     0.086601838441    12.000000000000
         C           -0.250482351407    -0.784955355131    -0.254692161559    12.000000000000
         C           -1.663084351407    -0.340078355131    -0.052101161559    12.000000000000
         C            0.562865648593     1.550782644869    -0.556004161559    12.000000000000
         C            3.164961648593     0.841042644869     0.124871838441    12.000000000000
         C            1.556227648593     2.522338644869    -0.554570161559    12.000000000000
         C            2.858849648593     2.156438644869    -0.205389161559    12.000000000000
         C           -2.005144351407     0.645255644869     0.886343838441    12.000000000000
         C           -2.672865351407    -1.011301355131    -0.756111161559    12.000000000000
         C           -3.347059351407     0.960446644869     1.104394838441    12.000000000000
         C           -4.009217351407    -0.675332355131    -0.550890161559    12.000000000000
         C            3.856088648593    -1.919296355131     0.538686838441    12.000000000000
         C           -4.349402351407     0.310591644869     0.380450838441    12.000000000000
         H           -0.450926351407     1.818501644869    -0.840163161559     1.007825032230
         H            4.190219648593     0.584026644869     0.371021838441     1.007825032230
         H            1.808615648593    -2.141215355131     0.063725838441     1.007825032230
         H            1.324386648593     3.545529644869    -0.836880161559     1.007825032230
         H            3.648937648593     2.904411644869    -0.185713161559     1.007825032230
         H           -1.225659351407     1.142215644869     1.458078838441     1.007825032230
         H           -2.392055351407    -1.793429355131    -1.456763161559     1.007825032230
         H           -3.610938351407     1.714261644869     1.842413838441     1.007825032230
         H           -4.788643351407    -1.186656355131    -1.110841161559     1.007825032230
         H            4.461700648593    -1.713367355131    -0.355501161559     1.007825032230
         H            3.842203648593    -2.997032355131     0.709359838441     1.007825032230
         H            4.341689648593    -1.449258355131     1.399584838441     1.007825032230
         H           -5.393284351407     0.566425644869     0.546114838441     1.007825032230

  Basis Set: AUG-CC-PVTZ
    Blend: AUG-CC-PVTZ
  Basis Set: (AUG-CC-PVTZ AUX)
    Blend: AUG-CC-PVTZ-JKFIT
	 Reference Energy          =    -667.2625393076474438 [Eh]
	 Singles Energy            =      -0.0000000000000000 [Eh]
	 Same-Spin Energy          =      -0.7345081097480168 [Eh]
	 Opposite-Spin Energy      =      -2.2652320921668578 [Eh]
	 Correlation Energy        =      -2.9997402019148747 [Eh]
	 Total Energy              =    -670.2622795095622905 [Eh]

	 ================> DF-SCS-MP2 Energies <==================
	-----------------------------------------------------------
	 SCS Same-Spin Scale       =       0.3333333333333333 [-]
	 SCS Opposite-Spin Scale   =       1.2000000000000000 [-]
	 SCS Same-Spin Energy      =      -0.2448360365826723 [Eh]
	 SCS Opposite-Spin Energy  =      -2.7182785106002294 [Eh]
	 SCS Correlation Energy    =      -2.9631145471829017 [Eh]
	 SCS Total Energy          =    -670.2256538548303979 [Eh]
	-----------------------------------------------------------

  Dipole Moment: [D]
     X:     0.5141      Y:     1.2268      Z:     0.3332     Total:     1.3713

*** Psi4 exiting successfully. Buy a developer a beer!
