                               Psi4 1.4a3.dev225

  ==> Input File <==

--------------------------------------------------------------------------
#psi4
#
memory 32 gb

molecule  {
0 1
  O       -0.0649480    -2.0007500    -0.4572220
  N        2.4573690    -1.4749290     0.4038410
  C        0.8099710     0.2105070    -0.2160820
  C        2.1525410    -0.1743900     0.0797160
  C       -0.2704016    -0.8384771    -0.2694343
  C       -1.6915990    -0.3449750    -0.0589870
  C        0.5343510     1.5458860    -0.5628900
  C        3.1364470     0.8361460     0.1179860
  C        1.5277130     2.5174420    -0.5614560
  C        2.8303350     2.1515420    -0.2122750
  C       -2.0336590     0.6403590     0.8794580
  C       -2.7013800    -1.0161980    -0.7629970
  C       -3.3755740     0.9555500     1.0975090
  C       -4.0377320    -0.6802290    -0.5577760
  C        3.8275740    -1.9241930     0.5318010
  C       -4.3779170     0.3056950     0.3735650
  H       -0.4794410     1.8136050    -0.8470490
  H        4.1617050     0.5791300     0.3641360
  H        1.7801010    -2.1461120     0.0568400
  H        1.2958720     3.5406330    -0.8437660
  H        3.6204230     2.8995150    -0.1925990
  H       -1.2541740     1.1373190     1.4511930
  H       -2.4205700    -1.7983260    -1.4636490
  H       -3.6394530     1.7093650     1.8355280
  H       -4.8171580    -1.1915530    -1.1177270
  H        4.4331860    -1.7182640    -0.3623870
  H        3.8136890    -3.0019290     0.7024740
  H        4.3131750    -1.4541550     1.3926990
  H       -5.4217990     0.5615290     0.5392290
units angstrom
no_reorient  #important for SAPT in psi4, default
symmetry c1  #important for SAPT in psi4, default
}

set PROPERTIES_ORIGIN ["COM"]
properties('MP2/aug-cc-pvtz', properties = ['dipole'])
--------------------------------------------------------------------------

    Molecular point group: c1
  Charge       = 0
  Multiplicity = 1
  Basis Set: AUG-CC-PVTZ
    Blend: AUG-CC-PVTZ
  Basis Set: (AUG-CC-PVTZ AUX)
    Blend: AUG-CC-PVTZ-JKFIT

    Orbital Energies [Eh]
    ---------------------

    Doubly Occupied:

       1A    -20.547543     2A    -15.561756     3A    -11.339555
       4A    -11.294436     5A    -11.257187     6A    -11.250764
       7A    -11.250276     8A    -11.250073     9A    -11.248697
      10A    -11.248067    11A    -11.245391    12A    -11.244214
      13A    -11.242635    14A    -11.237753    15A    -11.227460
      16A    -11.224783    17A     -1.408988    18A     -1.244519
      19A     -1.161744    20A     -1.139858    21A     -1.051409
      22A     -1.024187    23A     -1.018121    24A     -1.008621
      25A     -0.927872    26A     -0.884435    27A     -0.843264
      28A     -0.832696    29A     -0.805966    30A     -0.770485
      31A     -0.716925    32A     -0.702078    33A     -0.685421
      34A     -0.658220    35A     -0.648089    36A     -0.633058
      37A     -0.619676    38A     -0.615258    39A     -0.611142
      40A     -0.602967    41A     -0.595451    42A     -0.579473
      43A     -0.556069    44A     -0.542125    45A     -0.532568
      46A     -0.520032    47A     -0.511655    48A     -0.504152
      49A     -0.500780    50A     -0.493773    51A     -0.428863
      52A     -0.414067    53A     -0.349186    54A     -0.344680
      55A     -0.342320    56A     -0.291076

  @DF-RHF Final Energy:  -667.26447742388007

   => Energetics <=

    Nuclear Repulsion Energy =           1002.5361885013713845
    One-Electron Energy =               -2896.0176111899968419
    Two-Electron Energy =                1226.2169452647456183
    Total Energy =                       -667.2644774238799528
  Basis Set: (AUG-CC-PVTZ AUX)
    Blend: AUG-CC-PVTZ-RI
    Molecular point group: c1

    Geometry (in Angstrom), charge = 0, multiplicity = 1:

       Center              X                  Y                   Z               Mass
    ------------   -----------------  -----------------  -----------------  -----------------
         O           -0.040161671767    -1.993637975397    -0.449672095269    15.994914619570
         N            2.482155328233    -1.467816975397     0.411390904731    14.003074004430
         C            0.834757328233     0.217619024603    -0.208532095269    12.000000000000
         C            2.177327328233    -0.167277975397     0.087265904731    12.000000000000
         C           -0.245615271767    -0.831365075397    -0.261884395269    12.000000000000
         C           -1.666812671767    -0.337862975397    -0.051437095269    12.000000000000
         C            0.559137328233     1.552998024603    -0.555340095269    12.000000000000
         C            3.161233328233     0.843258024603     0.125535904731    12.000000000000
         C            1.552499328233     2.524554024603    -0.553906095269    12.000000000000
         C            2.855121328233     2.158654024603    -0.204725095269    12.000000000000
         C           -2.008872671767     0.647471024603     0.887007904731    12.000000000000
         C           -2.676593671767    -1.009085975397    -0.755447095269    12.000000000000
         C           -3.350787671767     0.962662024603     1.105058904731    12.000000000000
         C           -4.012945671767    -0.673116975397    -0.550226095269    12.000000000000
         C            3.852360328233    -1.917080975397     0.539350904731    12.000000000000
         C           -4.353130671767     0.312807024603     0.381114904731    12.000000000000
         H           -0.454654671767     1.820717024603    -0.839499095269     1.007825032230
         H            4.186491328233     0.586242024603     0.371685904731     1.007825032230
         H            1.804887328233    -2.138999975397     0.064389904731     1.007825032230
         H            1.320658328233     3.547745024603    -0.836216095269     1.007825032230
         H            3.645209328233     2.906627024603    -0.185049095269     1.007825032230
         H           -1.229387671767     1.144431024603     1.458742904731     1.007825032230
         H           -2.395783671767    -1.791213975397    -1.456099095269     1.007825032230
         H           -3.614666671767     1.716477024603     1.843077904731     1.007825032230
         H           -4.792371671767    -1.184440975397    -1.110177095269     1.007825032230
         H            4.457972328233    -1.711151975397    -0.354837095269     1.007825032230
         H            3.838475328233    -2.994816975397     0.710023904731     1.007825032230
         H            4.337961328233    -1.447042975397     1.400248904731     1.007825032230
         H           -5.397012671767     0.568641024603     0.546778904731     1.007825032230

  Basis Set: AUG-CC-PVTZ
    Blend: AUG-CC-PVTZ
  Basis Set: (AUG-CC-PVTZ AUX)
    Blend: AUG-CC-PVTZ-JKFIT
	 Reference Energy          =    -667.2644774238800665 [Eh]
	 Singles Energy            =      -0.0000000000000000 [Eh]
	 Same-Spin Energy          =      -0.7330928025764444 [Eh]
	 Opposite-Spin Energy      =      -2.2623356354887090 [Eh]
	 Correlation Energy        =      -2.9954284380651535 [Eh]
	 Total Energy              =    -670.2599058619451853 [Eh]

	 ================> DF-SCS-MP2 Energies <==================
	-----------------------------------------------------------
	 SCS Same-Spin Scale       =       0.3333333333333333 [-]
	 SCS Opposite-Spin Scale   =       1.2000000000000000 [-]
	 SCS Same-Spin Energy      =      -0.2443642675254815 [Eh]
	 SCS Opposite-Spin Energy  =      -2.7148027625864506 [Eh]
	 SCS Correlation Energy    =      -2.9591670301119319 [Eh]
	 SCS Total Energy          =    -670.2236444539920512 [Eh]
	-----------------------------------------------------------

  Dipole Moment: [D]
     X:     0.2975      Y:     0.9565      Z:     0.2992     Total:     1.0454

*** Psi4 exiting successfully. Buy a developer a beer!
