                               Psi4 1.4a3.dev225

  ==> Input File <==

--------------------------------------------------------------------------
#psi4
#
memory 32 gb

molecule  {
0 1
  O       -0.0649480    -2.0007500    -0.4572220
  N        2.4573690    -1.4749290     0.4038410
  C        0.8099710     0.2105070    -0.2160820
  C        2.1525410    -0.1743900     0.0797160
  C       -0.2875924    -0.7412269    -0.2537217
  C       -1.6915990    -0.3449750    -0.0589870
  C        0.5343510     1.5458860    -0.5628900
  C        3.1364470     0.8361460     0.1179860
  C        1.5277130     2.5174420    -0.5614560
  C        2.8303350     2.1515420    -0.2122750
  C       -2.0336590     0.6403590     0.8794580
  C       -2.7013800    -1.0161980    -0.7629970
  C       -3.3755740     0.9555500     1.0975090
  C       -4.0377320    -0.6802290    -0.5577760
  C        3.8275740    -1.9241930     0.5318010
  C       -4.3779170     0.3056950     0.3735650
  H       -0.4794410     1.8136050    -0.8470490
  H        4.1617050     0.5791300     0.3641360
  H        1.7801010    -2.1461120     0.0568400
  H        1.2958720     3.5406330    -0.8437660
  H        3.6204230     2.8995150    -0.1925990
  H       -1.2541740     1.1373190     1.4511930
  H       -2.4205700    -1.7983260    -1.4636490
  H       -3.6394530     1.7093650     1.8355280
  H       -4.8171580    -1.1915530    -1.1177270
  H        4.4331860    -1.7182640    -0.3623870
  H        3.8136890    -3.0019290     0.7024740
  H        4.3131750    -1.4541550     1.3926990
  H       -5.4217990     0.5615290     0.5392290
units angstrom
no_reorient  #important for SAPT in psi4, default
symmetry c1  #important for SAPT in psi4, default
}

set PROPERTIES_ORIGIN ["COM"]
properties('MP2/aug-cc-pvtz', properties = ['dipole'])
--------------------------------------------------------------------------

    Molecular point group: c1
  Charge       = 0
  Multiplicity = 1
  Basis Set: AUG-CC-PVTZ
    Blend: AUG-CC-PVTZ
  Basis Set: (AUG-CC-PVTZ AUX)
    Blend: AUG-CC-PVTZ-JKFIT

    Orbital Energies [Eh]
    ---------------------

    Doubly Occupied:

       1A    -20.531455     2A    -15.562314     3A    -11.340232
       4A    -11.300168     5A    -11.257131     6A    -11.255181
       7A    -11.254502     8A    -11.252541     9A    -11.251657
      10A    -11.250243    11A    -11.248499    12A    -11.245570
      13A    -11.244329    14A    -11.239241    15A    -11.230392
      16A    -11.227042    17A     -1.339570    18A     -1.244167
      19A     -1.165016    20A     -1.144351    21A     -1.060637
      22A     -1.027051    23A     -1.022912    24A     -1.011428
      25A     -0.931240    26A     -0.892495    27A     -0.847430
      28A     -0.836224    29A     -0.809270    30A     -0.772620
      31A     -0.719739    32A     -0.701422    33A     -0.682865
      34A     -0.656757    35A     -0.642381    36A     -0.633389
      37A     -0.619435    38A     -0.615512    39A     -0.605652
      40A     -0.599076    41A     -0.596343    42A     -0.573612
      43A     -0.542645    44A     -0.538911    45A     -0.529148
      46A     -0.520419    47A     -0.514077    48A     -0.503929
      49A     -0.500910    50A     -0.476322    51A     -0.429912
      52A     -0.420612    53A     -0.351673    54A     -0.345195
      55A     -0.343765    56A     -0.293132

  @DF-RHF Final Energy:  -667.25394433345537

   => Energetics <=

    Nuclear Repulsion Energy =           1002.5459025862950284
    One-Electron Energy =               -2896.0962106787787889
    Two-Electron Energy =                1226.2963637590282815
    Total Energy =                       -667.2539443334553653
  Basis Set: (AUG-CC-PVTZ AUX)
    Blend: AUG-CC-PVTZ-RI
    Molecular point group: c1

    Geometry (in Angstrom), charge = 0, multiplicity = 1:

       Center              X                  Y                   Z               Mass
    ------------   -----------------  -----------------  -----------------  -----------------
         O           -0.039184457747    -1.999166179949    -0.450565280752    15.994914619570
         N            2.483132542253    -1.473345179949     0.410497719248    14.003074004430
         C            0.835734542253     0.212090820051    -0.209425280752    12.000000000000
         C            2.178304542253    -0.172806179949     0.086372719248    12.000000000000
         C           -0.261828857747    -0.739643079949    -0.247064980752    12.000000000000
         C           -1.665835457747    -0.343391179949    -0.052330280752    12.000000000000
         C            0.560114542253     1.547469820051    -0.556233280752    12.000000000000
         C            3.162210542253     0.837729820051     0.124642719248    12.000000000000
         C            1.553476542253     2.519025820051    -0.554799280752    12.000000000000
         C            2.856098542253     2.153125820051    -0.205618280752    12.000000000000
         C           -2.007895457747     0.641942820051     0.886114719248    12.000000000000
         C           -2.675616457747    -1.014614179949    -0.756340280752    12.000000000000
         C           -3.349810457747     0.957133820051     1.104165719248    12.000000000000
         C           -4.011968457747    -0.678645179949    -0.551119280752    12.000000000000
         C            3.853337542253    -1.922609179949     0.538457719248    12.000000000000
         C           -4.352153457747     0.307278820051     0.380221719248    12.000000000000
         H           -0.453677457747     1.815188820051    -0.840392280752     1.007825032230
         H            4.187468542253     0.580713820051     0.370792719248     1.007825032230
         H            1.805864542253    -2.144528179949     0.063496719248     1.007825032230
         H            1.321635542253     3.542216820051    -0.837109280752     1.007825032230
         H            3.646186542253     2.901098820051    -0.185942280752     1.007825032230
         H           -1.228410457747     1.138902820051     1.457849719248     1.007825032230
         H           -2.394806457747    -1.796742179949    -1.456992280752     1.007825032230
         H           -3.613689457747     1.710948820051     1.842184719248     1.007825032230
         H           -4.791394457747    -1.189969179949    -1.111070280752     1.007825032230
         H            4.458949542253    -1.716680179949    -0.355730280752     1.007825032230
         H            3.839452542253    -3.000345179949     0.709130719248     1.007825032230
         H            4.338938542253    -1.452571179949     1.399355719248     1.007825032230
         H           -5.396035457747     0.563112820051     0.545885719248     1.007825032230

  Basis Set: AUG-CC-PVTZ
    Blend: AUG-CC-PVTZ
  Basis Set: (AUG-CC-PVTZ AUX)
    Blend: AUG-CC-PVTZ-JKFIT
	 Reference Energy          =    -667.2539443334553653 [Eh]
	 Singles Energy            =      -0.0000000000000000 [Eh]
	 Same-Spin Energy          =      -0.7363008480277571 [Eh]
	 Opposite-Spin Energy      =      -2.2685305019869144 [Eh]
	 Correlation Energy        =      -3.0048313500146717 [Eh]
	 Total Energy              =    -670.2587756834700485 [Eh]

	 ================> DF-SCS-MP2 Energies <==================
	-----------------------------------------------------------
	 SCS Same-Spin Scale       =       0.3333333333333333 [-]
	 SCS Opposite-Spin Scale   =       1.2000000000000000 [-]
	 SCS Same-Spin Energy      =      -0.2454336160092523 [Eh]
	 SCS Opposite-Spin Energy  =      -2.7222366023842972 [Eh]
	 SCS Correlation Energy    =      -2.9676702183935495 [Eh]
	 SCS Total Energy          =    -670.2216145518489157 [Eh]
	-----------------------------------------------------------

  Dipole Moment: [D]
     X:     0.3652      Y:     1.4193      Z:     0.3876     Total:     1.5159

*** Psi4 exiting successfully. Buy a developer a beer!
