                               Psi4 1.3.2 release

  ==> Input File <==

--------------------------------------------------------------------------
#psi4
#
memory 32 gb

molecule  {
0 1
  O       -0.0649480    -2.0007500    -0.4572220
  N        2.4573690    -1.4749290     0.4038410
  C        0.8099710     0.2105070    -0.2160820
  C        2.1371466    -0.2215924     0.0839701
  C       -0.2789970    -0.7898520    -0.2615780
  C       -1.6915990    -0.3449750    -0.0589870
  C        0.5343510     1.5458860    -0.5628900
  C        3.1364470     0.8361460     0.1179860
  C        1.5277130     2.5174420    -0.5614560
  C        2.8303350     2.1515420    -0.2122750
  C       -2.0336590     0.6403590     0.8794580
  C       -2.7013800    -1.0161980    -0.7629970
  C       -3.3755740     0.9555500     1.0975090
  C       -4.0377320    -0.6802290    -0.5577760
  C        3.8275740    -1.9241930     0.5318010
  C       -4.3779170     0.3056950     0.3735650
  H       -0.4794410     1.8136050    -0.8470490
  H        4.1617050     0.5791300     0.3641360
  H        1.7801010    -2.1461120     0.0568400
  H        1.2958720     3.5406330    -0.8437660
  H        3.6204230     2.8995150    -0.1925990
  H       -1.2541740     1.1373190     1.4511930
  H       -2.4205700    -1.7983260    -1.4636490
  H       -3.6394530     1.7093650     1.8355280
  H       -4.8171580    -1.1915530    -1.1177270
  H        4.4331860    -1.7182640    -0.3623870
  H        3.8136890    -3.0019290     0.7024740
  H        4.3131750    -1.4541550     1.3926990
  H       -5.4217990     0.5615290     0.5392290
units angstrom
no_reorient  #important for SAPT in psi4, default
symmetry c1  #important for SAPT in psi4, default
}

set PROPERTIES_ORIGIN ["COM"]
properties('MP2/aug-cc-pvtz', properties = ['dipole'])
--------------------------------------------------------------------------

    Molecular point group: c1
  Charge       = 0
  Multiplicity = 1
  Basis Set: AUG-CC-PVTZ
    Blend: AUG-CC-PVTZ
  Basis Set: (AUG-CC-PVTZ AUX)
    Blend: AUG-CC-PVTZ-JKFIT

    Orbital Energies [Eh]
    ---------------------

    Doubly Occupied:

       1A    -20.538211     2A    -15.569128     3A    -11.337857
       4A    -11.301038     5A    -11.262621     6A    -11.251098
       7A    -11.250546     8A    -11.250339     9A    -11.249341
      10A    -11.247986    11A    -11.245987    12A    -11.244105
      13A    -11.242699    14A    -11.235752    15A    -11.230966
      16A    -11.222685    17A     -1.371744    18A     -1.261053
      19A     -1.162447    20A     -1.138925    21A     -1.054064
      22A     -1.024627    23A     -1.020169    24A     -1.005811
      25A     -0.936829    26A     -0.886051    27A     -0.843807
      28A     -0.833521    29A     -0.807813    30A     -0.771183
      31A     -0.716959    32A     -0.704658    33A     -0.685121
      34A     -0.656821    35A     -0.644587    36A     -0.633998
      37A     -0.622028    38A     -0.617159    39A     -0.608720
      40A     -0.598802    41A     -0.595077    42A     -0.577847
      43A     -0.546548    44A     -0.544354    45A     -0.530381
      46A     -0.518959    47A     -0.512255    48A     -0.501479
      49A     -0.500318    50A     -0.486029    51A     -0.436827
      52A     -0.416075    53A     -0.349090    54A     -0.344344
      55A     -0.342219    56A     -0.287090

  @DF-RHF Final Energy:  -667.25982823618210

   => Energetics <=

    Nuclear Repulsion Energy =           1002.6281297604173233
    One-Electron Energy =               -2896.2236207038263274
    Two-Electron Energy =                1226.3356627072269021
    Total Energy =                       -667.2598282361821020
  Basis Set: (AUG-CC-PVTZ AUX)
    Blend: AUG-CC-PVTZ-RI
    Molecular point group: c1

    Geometry (in Angstrom), charge = 0, multiplicity = 1:

       Center              X                  Y                   Z               Mass
    ------------   -----------------  -----------------  -----------------  -----------------
         O           -0.038797967409    -1.993718849027    -0.450360513066    15.994914619570
         N            2.483519032591    -1.467897849027     0.410702486934    14.003074004430
         C            0.836121032591     0.217538150973    -0.209220513066    12.000000000000
         C            2.163296632591    -0.214561249027     0.090831586934    12.000000000000
         C           -0.252846967409    -0.782820849027    -0.254716513066    12.000000000000
         C           -1.665448967409    -0.337943849027    -0.052125513066    12.000000000000
         C            0.560501032591     1.552917150973    -0.556028513066    12.000000000000
         C            3.162597032591     0.843177150973     0.124847486934    12.000000000000
         C            1.553863032591     2.524473150973    -0.554594513066    12.000000000000
         C            2.856485032591     2.158573150973    -0.205413513066    12.000000000000
         C           -2.007508967409     0.647390150973     0.886319486934    12.000000000000
         C           -2.675229967409    -1.009166849027    -0.756135513066    12.000000000000
         C           -3.349423967409     0.962581150973     1.104370486934    12.000000000000
         C           -4.011581967409    -0.673197849027    -0.550914513066    12.000000000000
         C            3.853724032591    -1.917161849027     0.538662486934    12.000000000000
         C           -4.351766967409     0.312726150973     0.380426486934    12.000000000000
         H           -0.453290967409     1.820636150973    -0.840187513066     1.007825032230
         H            4.187855032591     0.586161150973     0.370997486934     1.007825032230
         H            1.806251032591    -2.139080849027     0.063701486934     1.007825032230
         H            1.322022032591     3.547664150973    -0.836904513066     1.007825032230
         H            3.646573032591     2.906546150973    -0.185737513066     1.007825032230
         H           -1.228023967409     1.144350150973     1.458054486934     1.007825032230
         H           -2.394419967409    -1.791294849027    -1.456787513066     1.007825032230
         H           -3.613302967409     1.716396150973     1.842389486934     1.007825032230
         H           -4.791007967409    -1.184521849027    -1.110865513066     1.007825032230
         H            4.459336032591    -1.711232849027    -0.355525513066     1.007825032230
         H            3.839839032591    -2.994897849027     0.709335486934     1.007825032230
         H            4.339325032591    -1.447123849027     1.399560486934     1.007825032230
         H           -5.395648967409     0.568560150973     0.546090486934     1.007825032230

  Basis Set: AUG-CC-PVTZ
    Blend: AUG-CC-PVTZ
  Basis Set: (AUG-CC-PVTZ AUX)
    Blend: AUG-CC-PVTZ-JKFIT
	 Reference Energy          =    -667.2598282361821020 [Eh]
	 Singles Energy            =      -0.0000000000000000 [Eh]
	 Same-Spin Energy          =      -0.7346990227880479 [Eh]
	 Opposite-Spin Energy      =      -2.2653730872480362 [Eh]
	 Correlation Energy        =      -3.0000721100360841 [Eh]
	 Total Energy              =    -670.2599003462181599 [Eh]

	 ================> DF-SCS-MP2 Energies <==================
	-----------------------------------------------------------
	 SCS Same-Spin Scale       =       0.3333333333333333 [-]
	 SCS Opposite-Spin Scale   =       1.2000000000000000 [-]
	 SCS Same-Spin Energy      =      -0.2448996742626826 [Eh]
	 SCS Opposite-Spin Energy  =      -2.7184477046976432 [Eh]
	 SCS Correlation Energy    =      -2.9633473789603260 [Eh]
	 SCS Total Energy          =    -670.2231756151423951 [Eh]
	-----------------------------------------------------------

  Dipole Moment: [D]
     X:     0.5374      Y:     0.9081      Z:     0.4338     Total:     1.1409

*** Psi4 exiting successfully. Buy a developer a beer!
