                               Psi4 1.3.2 release

  ==> Input File <==

--------------------------------------------------------------------------
#psi4
#
memory 32 gb

molecule  {
0 1
  O       -0.0649480    -2.0007500    -0.4572220
  N        2.4573690    -1.4749290     0.4038410
  C        0.8099710     0.2105070    -0.2160820
  C        2.1525410    -0.1743900     0.0797160
  C       -0.2789970    -0.7898520    -0.2615780
  C       -1.6915990    -0.3449750    -0.0589870
  C        0.5343510     1.5458860    -0.5628900
  C        3.1364470     0.8361460     0.1179860
  C        1.5277130     2.5174420    -0.5614560
  C        2.8303350     2.1515420    -0.2122750
  C       -2.1276745     0.6232928     0.8579987
  C       -2.7013800    -1.0161980    -0.7629970
  C       -3.3755740     0.9555500     1.0975090
  C       -4.0377320    -0.6802290    -0.5577760
  C        3.8275740    -1.9241930     0.5318010
  C       -4.3779170     0.3056950     0.3735650
  H       -0.4794410     1.8136050    -0.8470490
  H        4.1617050     0.5791300     0.3641360
  H        1.7801010    -2.1461120     0.0568400
  H        1.2958720     3.5406330    -0.8437660
  H        3.6204230     2.8995150    -0.1925990
  H       -1.2541740     1.1373190     1.4511930
  H       -2.4205700    -1.7983260    -1.4636490
  H       -3.6394530     1.7093650     1.8355280
  H       -4.8171580    -1.1915530    -1.1177270
  H        4.4331860    -1.7182640    -0.3623870
  H        3.8136890    -3.0019290     0.7024740
  H        4.3131750    -1.4541550     1.3926990
  H       -5.4217990     0.5615290     0.5392290
units angstrom
no_reorient  #important for SAPT in psi4, default
symmetry c1  #important for SAPT in psi4, default
}

set PROPERTIES_ORIGIN ["COM"]
properties('MP2/aug-cc-pvtz', properties = ['dipole'])
--------------------------------------------------------------------------

    Molecular point group: c1
  Charge       = 0
  Multiplicity = 1
  Basis Set: AUG-CC-PVTZ
    Blend: AUG-CC-PVTZ
  Basis Set: (AUG-CC-PVTZ AUX)
    Blend: AUG-CC-PVTZ-JKFIT

    Orbital Energies [Eh]
    ---------------------

    Doubly Occupied:

       1A    -20.540975     2A    -15.562016     3A    -11.342642
       4A    -11.297242     5A    -11.257125     6A    -11.252741
       7A    -11.252607     8A    -11.251080     9A    -11.248768
      10A    -11.247920    11A    -11.247096    12A    -11.241951
      13A    -11.238664    14A    -11.234770    15A    -11.228788
      16A    -11.225769    17A     -1.373526    18A     -1.244473
      19A     -1.171995    20A     -1.142504    21A     -1.055400
      22A     -1.034555    23A     -1.019925    24A     -1.009931
      25A     -0.929809    26A     -0.890457    27A     -0.846108
      28A     -0.829064    29A     -0.807702    30A     -0.775263
      31A     -0.717703    32A     -0.701038    33A     -0.683996
      34A     -0.657234    35A     -0.641020    36A     -0.637215
      37A     -0.618120    38A     -0.615161    39A     -0.609990
      40A     -0.601739    41A     -0.589470    42A     -0.577676
      43A     -0.545839    44A     -0.542217    45A     -0.531365
      46A     -0.523204    47A     -0.517945    48A     -0.503946
      49A     -0.492442    50A     -0.479820    51A     -0.429273
      52A     -0.421525    53A     -0.355302    54A     -0.347656
      55A     -0.342402    56A     -0.292026

  @DF-RHF Final Energy:  -667.25085158756929

   => Energetics <=

    Nuclear Repulsion Energy =           1002.9945856253292504
    One-Electron Energy =               -2896.9384933568894667
    Two-Electron Energy =                1226.6930561439908161
    Total Energy =                       -667.2508515875692865
  Basis Set: (AUG-CC-PVTZ AUX)
    Blend: AUG-CC-PVTZ-RI
    Molecular point group: c1

    Geometry (in Angstrom), charge = 0, multiplicity = 1:

       Center              X                  Y                   Z               Mass
    ------------   -----------------  -----------------  -----------------  -----------------
         O           -0.034328737290    -1.995431946563    -0.448898830366    15.994914619570
         N            2.487988262710    -1.469610946563     0.412164169634    14.003074004430
         C            0.840590262710     0.215825053437    -0.207758830366    12.000000000000
         C            2.183160262710    -0.169071946563     0.088039169634    12.000000000000
         C           -0.248377737290    -0.784533946563    -0.253254830366    12.000000000000
         C           -1.660979737290    -0.339656946563    -0.050663830366    12.000000000000
         C            0.564970262710     1.551204053437    -0.554566830366    12.000000000000
         C            3.167066262710     0.841464053437     0.126309169634    12.000000000000
         C            1.558332262710     2.522760053437    -0.553132830366    12.000000000000
         C            2.860954262710     2.156860053437    -0.203951830366    12.000000000000
         C           -2.097055237290     0.628610853437     0.866321869634    12.000000000000
         C           -2.670760737290    -1.010879946563    -0.754673830366    12.000000000000
         C           -3.344954737290     0.960868053437     1.105832169634    12.000000000000
         C           -4.007112737290    -0.674910946563    -0.549452830366    12.000000000000
         C            3.858193262710    -1.918874946563     0.540124169634    12.000000000000
         C           -4.347297737290     0.311013053437     0.381888169634    12.000000000000
         H           -0.448821737290     1.818923053437    -0.838725830366     1.007825032230
         H            4.192324262710     0.584448053437     0.372459169634     1.007825032230
         H            1.810720262710    -2.140793946563     0.065163169634     1.007825032230
         H            1.326491262710     3.545951053437    -0.835442830366     1.007825032230
         H            3.651042262710     2.904833053437    -0.184275830366     1.007825032230
         H           -1.223554737290     1.142637053437     1.459516169634     1.007825032230
         H           -2.389950737290    -1.793007946563    -1.455325830366     1.007825032230
         H           -3.608833737290     1.714683053437     1.843851169634     1.007825032230
         H           -4.786538737290    -1.186234946563    -1.109403830366     1.007825032230
         H            4.463805262710    -1.712945946563    -0.354063830366     1.007825032230
         H            3.844308262710    -2.996610946563     0.710797169634     1.007825032230
         H            4.343794262710    -1.448836946563     1.401022169634     1.007825032230
         H           -5.391179737290     0.566847053437     0.547552169634     1.007825032230

  Basis Set: AUG-CC-PVTZ
    Blend: AUG-CC-PVTZ
  Basis Set: (AUG-CC-PVTZ AUX)
    Blend: AUG-CC-PVTZ-JKFIT
	 Reference Energy          =    -667.2508515875692865 [Eh]
	 Singles Energy            =      -0.0000000000000000 [Eh]
	 Same-Spin Energy          =      -0.7347440594284311 [Eh]
	 Opposite-Spin Energy      =      -2.2654402835875143 [Eh]
	 Correlation Energy        =      -3.0001843430159454 [Eh]
	 Total Energy              =    -670.2510359305852035 [Eh]

	 ================> DF-SCS-MP2 Energies <==================
	-----------------------------------------------------------
	 SCS Same-Spin Scale       =       0.3333333333333333 [-]
	 SCS Opposite-Spin Scale   =       1.2000000000000000 [-]
	 SCS Same-Spin Energy      =      -0.2449146864761437 [Eh]
	 SCS Opposite-Spin Energy  =      -2.7185283403050171 [Eh]
	 SCS Correlation Energy    =      -2.9634430267811607 [Eh]
	 SCS Total Energy          =    -670.2142946143504787 [Eh]
	-----------------------------------------------------------

  Dipole Moment: [D]
     X:     0.3326      Y:     1.1836      Z:     0.3175     Total:     1.2698

*** Psi4 exiting successfully. Buy a developer a beer!
