                               Psi4 1.3.2 release

  ==> Input File <==

--------------------------------------------------------------------------
#psi4
#
memory 32 gb

molecule  {
0 1
  O       -0.0649480    -2.0007500    -0.4572220
  N        2.4573690    -1.4749290     0.4038410
  C        0.8099710     0.2105070    -0.2160820
  C        2.0141204    -0.2128669     0.0874412
  C       -0.2789970    -0.7898520    -0.2615780
  C       -1.6915990    -0.3449750    -0.0589870
  C        0.5343510     1.5458860    -0.5628900
  C        3.1364470     0.8361460     0.1179860
  C        1.5277130     2.5174420    -0.5614560
  C        2.8303350     2.1515420    -0.2122750
  C       -2.0336590     0.6403590     0.8794580
  C       -2.7013800    -1.0161980    -0.7629970
  C       -3.3755740     0.9555500     1.0975090
  C       -4.0377320    -0.6802290    -0.5577760
  C        3.8275740    -1.9241930     0.5318010
  C       -4.3779170     0.3056950     0.3735650
  H       -0.4794410     1.8136050    -0.8470490
  H        4.1617050     0.5791300     0.3641360
  H        1.7801010    -2.1461120     0.0568400
  H        1.2958720     3.5406330    -0.8437660
  H        3.6204230     2.8995150    -0.1925990
  H       -1.2541740     1.1373190     1.4511930
  H       -2.4205700    -1.7983260    -1.4636490
  H       -3.6394530     1.7093650     1.8355280
  H       -4.8171580    -1.1915530    -1.1177270
  H        4.4331860    -1.7182640    -0.3623870
  H        3.8136890    -3.0019290     0.7024740
  H        4.3131750    -1.4541550     1.3926990
  H       -5.4217990     0.5615290     0.5392290
units angstrom
no_reorient  #important for SAPT in psi4, default
symmetry c1  #important for SAPT in psi4, default
}

set PROPERTIES_ORIGIN ["COM"]
properties('MP2/aug-cc-pvtz', properties = ['dipole'])
--------------------------------------------------------------------------

    Molecular point group: c1
  Charge       = 0
  Multiplicity = 1
  Basis Set: AUG-CC-PVTZ
    Blend: AUG-CC-PVTZ
  Basis Set: (AUG-CC-PVTZ AUX)
    Blend: AUG-CC-PVTZ-JKFIT

    Orbital Energies [Eh]
    ---------------------

    Doubly Occupied:

       1A    -20.541429     2A    -15.562081     3A    -11.339626
       4A    -11.297295     5A    -11.261776     6A    -11.251809
       7A    -11.250461     8A    -11.249974     9A    -11.249070
      10A    -11.247187    11A    -11.246545    12A    -11.245283
      13A    -11.243736    14A    -11.240265    15A    -11.226633
      16A    -11.226573    17A     -1.374627    18A     -1.243771
      19A     -1.164031    20A     -1.143933    21A     -1.058668
      22A     -1.031549    23A     -1.024212    24A     -0.999332
      25A     -0.932024    26A     -0.885463    27A     -0.844616
      28A     -0.838241    29A     -0.811646    30A     -0.770412
      31A     -0.718215    32A     -0.695264    33A     -0.687477
      34A     -0.653814    35A     -0.645567    36A     -0.635147
      37A     -0.623527    38A     -0.612646    39A     -0.609555
      40A     -0.597759    41A     -0.595790    42A     -0.579926
      43A     -0.547839    44A     -0.542576    45A     -0.527053
      46A     -0.515958    47A     -0.515161    48A     -0.506031
      49A     -0.500784    50A     -0.485626    51A     -0.429423
      52A     -0.414412    53A     -0.351633    54A     -0.346076
      55A     -0.343623    56A     -0.290774

  @DF-RHF Final Energy:  -667.23887036050621

   => Energetics <=

    Nuclear Repulsion Energy =           1003.7059892885869203
    One-Electron Energy =               -2898.3418727639927965
    Two-Electron Energy =                1227.3970131148998917
    Total Energy =                       -667.2388703605060982
  Basis Set: (AUG-CC-PVTZ AUX)
    Blend: AUG-CC-PVTZ-RI
    Molecular point group: c1

    Geometry (in Angstrom), charge = 0, multiplicity = 1:

       Center              X                  Y                   Z               Mass
    ------------   -----------------  -----------------  -----------------  -----------------
         O           -0.031804521649    -1.994214851593    -0.450557828350    15.994914619570
         N            2.490512478351    -1.468393851593     0.410505171650    14.003074004430
         C            0.843114478351     0.217042148407    -0.209417828350    12.000000000000
         C            2.047263878351    -0.206331751593     0.094105371650    12.000000000000
         C           -0.245853521649    -0.783316851593    -0.254913828350    12.000000000000
         C           -1.658455521649    -0.338439851593    -0.052322828350    12.000000000000
         C            0.567494478351     1.552421148407    -0.556225828350    12.000000000000
         C            3.169590478351     0.842681148407     0.124650171650    12.000000000000
         C            1.560856478351     2.523977148407    -0.554791828350    12.000000000000
         C            2.863478478351     2.158077148407    -0.205610828350    12.000000000000
         C           -2.000515521649     0.646894148407     0.886122171650    12.000000000000
         C           -2.668236521649    -1.009662851593    -0.756332828350    12.000000000000
         C           -3.342430521649     0.962085148407     1.104173171650    12.000000000000
         C           -4.004588521649    -0.673693851593    -0.551111828350    12.000000000000
         C            3.860717478351    -1.917657851593     0.538465171650    12.000000000000
         C           -4.344773521649     0.312230148407     0.380229171650    12.000000000000
         H           -0.446297521649     1.820140148407    -0.840384828350     1.007825032230
         H            4.194848478351     0.585665148407     0.370800171650     1.007825032230
         H            1.813244478351    -2.139576851593     0.063504171650     1.007825032230
         H            1.329015478351     3.547168148407    -0.837101828350     1.007825032230
         H            3.653566478351     2.906050148407    -0.185934828350     1.007825032230
         H           -1.221030521649     1.143854148407     1.457857171650     1.007825032230
         H           -2.387426521649    -1.791790851593    -1.456984828350     1.007825032230
         H           -3.606309521649     1.715900148407     1.842192171650     1.007825032230
         H           -4.784014521649    -1.185017851593    -1.111062828350     1.007825032230
         H            4.466329478351    -1.711728851593    -0.355722828350     1.007825032230
         H            3.846832478351    -2.995393851593     0.709138171650     1.007825032230
         H            4.346318478351    -1.447619851593     1.399363171650     1.007825032230
         H           -5.388655521649     0.568064148407     0.545893171650     1.007825032230

  Basis Set: AUG-CC-PVTZ
    Blend: AUG-CC-PVTZ
  Basis Set: (AUG-CC-PVTZ AUX)
    Blend: AUG-CC-PVTZ-JKFIT
	 Reference Energy          =    -667.2388703605062119 [Eh]
	 Singles Energy            =      -0.0000000000000000 [Eh]
	 Same-Spin Energy          =      -0.7342071545878567 [Eh]
	 Opposite-Spin Energy      =      -2.2667510184149084 [Eh]
	 Correlation Energy        =      -3.0009581730027652 [Eh]
	 Total Energy              =    -670.2398285335090122 [Eh]

	 ================> DF-SCS-MP2 Energies <==================
	-----------------------------------------------------------
	 SCS Same-Spin Scale       =       0.3333333333333333 [-]
	 SCS Opposite-Spin Scale   =       1.2000000000000000 [-]
	 SCS Same-Spin Energy      =      -0.2447357181959522 [Eh]
	 SCS Opposite-Spin Energy  =      -2.7201012220978900 [Eh]
	 SCS Correlation Energy    =      -2.9648369402938424 [Eh]
	 SCS Total Energy          =    -670.2037073008000334 [Eh]
	-----------------------------------------------------------

  Dipole Moment: [D]
     X:     0.3744      Y:     1.0818      Z:     0.3727     Total:     1.2039

*** Psi4 exiting successfully. Buy a developer a beer!
