                               Psi4 1.3.2 release

  ==> Input File <==

--------------------------------------------------------------------------
#psi4
#
memory 32 gb

molecule  {
0 1
  O       -0.0649480    -2.0007500    -0.4572220
  N        2.4573690    -1.4749290     0.4038410
  C        0.7627003     0.1996525    -0.2237863
  C        2.1525410    -0.1743900     0.0797160
  C       -0.2789970    -0.7898520    -0.2615780
  C       -1.6915990    -0.3449750    -0.0589870
  C        0.5343510     1.5458860    -0.5628900
  C        3.1364470     0.8361460     0.1179860
  C        1.5277130     2.5174420    -0.5614560
  C        2.8303350     2.1515420    -0.2122750
  C       -2.0336590     0.6403590     0.8794580
  C       -2.7013800    -1.0161980    -0.7629970
  C       -3.3755740     0.9555500     1.0975090
  C       -4.0377320    -0.6802290    -0.5577760
  C        3.8275740    -1.9241930     0.5318010
  C       -4.3779170     0.3056950     0.3735650
  H       -0.4794410     1.8136050    -0.8470490
  H        4.1617050     0.5791300     0.3641360
  H        1.7801010    -2.1461120     0.0568400
  H        1.2958720     3.5406330    -0.8437660
  H        3.6204230     2.8995150    -0.1925990
  H       -1.2541740     1.1373190     1.4511930
  H       -2.4205700    -1.7983260    -1.4636490
  H       -3.6394530     1.7093650     1.8355280
  H       -4.8171580    -1.1915530    -1.1177270
  H        4.4331860    -1.7182640    -0.3623870
  H        3.8136890    -3.0019290     0.7024740
  H        4.3131750    -1.4541550     1.3926990
  H       -5.4217990     0.5615290     0.5392290
units angstrom
no_reorient  #important for SAPT in psi4, default
symmetry c1  #important for SAPT in psi4, default
}

set PROPERTIES_ORIGIN ["COM"]
properties('MP2/aug-cc-pvtz', properties = ['dipole'])
--------------------------------------------------------------------------

    Molecular point group: c1
  Charge       = 0
  Multiplicity = 1
  Basis Set: AUG-CC-PVTZ
    Blend: AUG-CC-PVTZ
  Basis Set: (AUG-CC-PVTZ AUX)
    Blend: AUG-CC-PVTZ-JKFIT

    Orbital Energies [Eh]
    ---------------------

    Doubly Occupied:

       1A    -20.536588     2A    -15.564901     3A    -11.335752
       4A    -11.303957     5A    -11.258278     6A    -11.256111
       7A    -11.255262     8A    -11.250108     9A    -11.249083
      10A    -11.247480    11A    -11.245537    12A    -11.243960
      13A    -11.242477    14A    -11.238958    15A    -11.229097
      16A    -11.226265    17A     -1.370988    18A     -1.244996
      19A     -1.162655    20A     -1.141278    21A     -1.059493
      22A     -1.024545    23A     -1.019901    24A     -1.008938
      25A     -0.932221    26A     -0.892067    27A     -0.845274
      28A     -0.833169    29A     -0.806089    30A     -0.771091
      31A     -0.718067    32A     -0.704624    33A     -0.682780
      34A     -0.656208    35A     -0.644164    36A     -0.633402
      37A     -0.618898    38A     -0.615592    39A     -0.607612
      40A     -0.602727    41A     -0.595189    42A     -0.577538
      43A     -0.545345    44A     -0.543629    45A     -0.532263
      46A     -0.519821    47A     -0.511339    48A     -0.500544
      49A     -0.499425    50A     -0.484617    51A     -0.430664
      52A     -0.420152    53A     -0.351908    54A     -0.344406
      55A     -0.342357    56A     -0.290961

  @DF-RHF Final Energy:  -667.25957149569047

   => Energetics <=

    Nuclear Repulsion Energy =           1002.5473957306103330
    One-Electron Energy =               -2896.0724292444656385
    Two-Electron Energy =                1226.2654620181647260
    Total Energy =                       -667.2595714956905795
  Basis Set: (AUG-CC-PVTZ AUX)
    Blend: AUG-CC-PVTZ-RI
    Molecular point group: c1

    Geometry (in Angstrom), charge = 0, multiplicity = 1:

       Center              X                  Y                   Z               Mass
    ------------   -----------------  -----------------  -----------------  -----------------
         O           -0.036985953585    -1.995785051731    -0.449680735736    15.994914619570
         N            2.485331046415    -1.469964051731     0.411382264264    14.003074004430
         C            0.790662346415     0.204617448269    -0.216245035736    12.000000000000
         C            2.180503046415    -0.169425051731     0.087257264264    12.000000000000
         C           -0.251034953585    -0.784887051731    -0.254036735736    12.000000000000
         C           -1.663636953585    -0.340010051731    -0.051445735736    12.000000000000
         C            0.562313046415     1.550850948269    -0.555348735736    12.000000000000
         C            3.164409046415     0.841110948269     0.125527264264    12.000000000000
         C            1.555675046415     2.522406948269    -0.553914735736    12.000000000000
         C            2.858297046415     2.156506948269    -0.204733735736    12.000000000000
         C           -2.005696953585     0.645323948269     0.886999264264    12.000000000000
         C           -2.673417953585    -1.011233051731    -0.755455735736    12.000000000000
         C           -3.347611953585     0.960514948269     1.105050264264    12.000000000000
         C           -4.009769953585    -0.675264051731    -0.550234735736    12.000000000000
         C            3.855536046415    -1.919228051731     0.539342264264    12.000000000000
         C           -4.349954953585     0.310659948269     0.381106264264    12.000000000000
         H           -0.451478953585     1.818569948269    -0.839507735736     1.007825032230
         H            4.189667046415     0.584094948269     0.371677264264     1.007825032230
         H            1.808063046415    -2.141147051731     0.064381264264     1.007825032230
         H            1.323834046415     3.545597948269    -0.836224735736     1.007825032230
         H            3.648385046415     2.904479948269    -0.185057735736     1.007825032230
         H           -1.226211953585     1.142283948269     1.458734264264     1.007825032230
         H           -2.392607953585    -1.793361051731    -1.456107735736     1.007825032230
         H           -3.611490953585     1.714329948269     1.843069264264     1.007825032230
         H           -4.789195953585    -1.186588051731    -1.110185735736     1.007825032230
         H            4.461148046415    -1.713299051731    -0.354845735736     1.007825032230
         H            3.841651046415    -2.996964051731     0.710015264264     1.007825032230
         H            4.341137046415    -1.449190051731     1.400240264264     1.007825032230
         H           -5.393836953585     0.566493948269     0.546770264264     1.007825032230

  Basis Set: AUG-CC-PVTZ
    Blend: AUG-CC-PVTZ
  Basis Set: (AUG-CC-PVTZ AUX)
    Blend: AUG-CC-PVTZ-JKFIT
	 Reference Energy          =    -667.2595714956904658 [Eh]
	 Singles Energy            =      -0.0000000000000000 [Eh]
	 Same-Spin Energy          =      -0.7349248320761019 [Eh]
	 Opposite-Spin Energy      =      -2.2657246234474928 [Eh]
	 Correlation Energy        =      -3.0006494555235950 [Eh]
	 Total Energy              =    -670.2602209512140234 [Eh]

	 ================> DF-SCS-MP2 Energies <==================
	-----------------------------------------------------------
	 SCS Same-Spin Scale       =       0.3333333333333333 [-]
	 SCS Opposite-Spin Scale   =       1.2000000000000000 [-]
	 SCS Same-Spin Energy      =      -0.2449749440253673 [Eh]
	 SCS Opposite-Spin Energy  =      -2.7188695481369911 [Eh]
	 SCS Correlation Energy    =      -2.9638444921623583 [Eh]
	 SCS Total Energy          =    -670.2234159878528317 [Eh]
	-----------------------------------------------------------

  Dipole Moment: [D]
     X:     0.5418      Y:     1.2391      Z:     0.3680     Total:     1.4015

*** Psi4 exiting successfully. Buy a developer a beer!
