                               Psi4 1.4a2.dev612

  ==> Input File <==

--------------------------------------------------------------------------
#psi4
#
memory 32 gb

molecule  {
0 1
  O       -0.0649480    -2.0007500    -0.4572220
  N        2.4573690    -1.4749290     0.4038410
  C        0.8099710     0.2105070    -0.2160820
  C        2.1525410    -0.1743900     0.0797160
  C       -0.2453672    -0.8258337    -0.2460580
  C       -1.6915990    -0.3449750    -0.0589870
  C        0.5343510     1.5458860    -0.5628900
  C        3.1364470     0.8361460     0.1179860
  C        1.5277130     2.5174420    -0.5614560
  C        2.8303350     2.1515420    -0.2122750
  C       -2.0336590     0.6403590     0.8794580
  C       -2.7013800    -1.0161980    -0.7629970
  C       -3.3755740     0.9555500     1.0975090
  C       -4.0377320    -0.6802290    -0.5577760
  C        3.8275740    -1.9241930     0.5318010
  C       -4.3779170     0.3056950     0.3735650
  H       -0.4794410     1.8136050    -0.8470490
  H        4.1617050     0.5791300     0.3641360
  H        1.7801010    -2.1461120     0.0568400
  H        1.2958720     3.5406330    -0.8437660
  H        3.6204230     2.8995150    -0.1925990
  H       -1.2541740     1.1373190     1.4511930
  H       -2.4205700    -1.7983260    -1.4636490
  H       -3.6394530     1.7093650     1.8355280
  H       -4.8171580    -1.1915530    -1.1177270
  H        4.4331860    -1.7182640    -0.3623870
  H        3.8136890    -3.0019290     0.7024740
  H        4.3131750    -1.4541550     1.3926990
  H       -5.4217990     0.5615290     0.5392290
units angstrom
no_reorient  #important for SAPT in psi4, default
symmetry c1  #important for SAPT in psi4, default
}

set PROPERTIES_ORIGIN ["COM"]
properties('MP2/aug-cc-pvtz', properties = ['dipole'])
--------------------------------------------------------------------------

    Molecular point group: c1
  Charge       = 0
  Multiplicity = 1
  Basis Set: AUG-CC-PVTZ
    Blend: AUG-CC-PVTZ
  Basis Set: (AUG-CC-PVTZ AUX)
    Blend: AUG-CC-PVTZ-JKFIT

    Orbital Energies [Eh]
    ---------------------

    Doubly Occupied:

       1A    -20.545409     2A    -15.563176     3A    -11.339547
       4A    -11.296520     5A    -11.258102     6A    -11.253248
       7A    -11.252593     8A    -11.248568     9A    -11.247433
      10A    -11.247241    11A    -11.244199    12A    -11.242942
      13A    -11.241670    14A    -11.237976    15A    -11.228890
      16A    -11.226377    17A     -1.399617    18A     -1.246034
      19A     -1.160211    20A     -1.141976    21A     -1.052713
      22A     -1.022591    23A     -1.018651    24A     -1.010326
      25A     -0.929495    26A     -0.886040    27A     -0.842079
      28A     -0.832416    29A     -0.807443    30A     -0.770612
      31A     -0.716546    32A     -0.703270    33A     -0.684995
      34A     -0.658091    35A     -0.645192    36A     -0.632387
      37A     -0.620537    38A     -0.616297    39A     -0.609133
      40A     -0.603495    41A     -0.594289    42A     -0.580933
      43A     -0.553346    44A     -0.543401    45A     -0.532562
      46A     -0.519496    47A     -0.510963    48A     -0.505129
      49A     -0.499532    50A     -0.492307    51A     -0.430203
      52A     -0.414724    53A     -0.350443    54A     -0.343335
      55A     -0.341435    56A     -0.292835

  @DF-RHF Final Energy:  -667.26394867277611

   => Energetics <=

    Nuclear Repulsion Energy =           1002.6190923564938657
    One-Electron Energy =               -2896.1881429588866013
    Two-Electron Energy =                1226.3051019296167397
    Total Energy =                       -667.2639486727759959
  Basis Set: (AUG-CC-PVTZ AUX)
    Blend: AUG-CC-PVTZ-RI
    Molecular point group: c1

    Geometry (in Angstrom), charge = 0, multiplicity = 1:

       Center              X                  Y                   Z               Mass
    ------------   -----------------  -----------------  -----------------  -----------------
         O           -0.041584756593    -1.994356691672    -0.451000925113    15.994914619570
         N            2.480732243407    -1.468535691672     0.410062074887    14.003074004430
         C            0.833334243407     0.216900308328    -0.209860925113    12.000000000000
         C            2.175904243407    -0.167996691672     0.085937074887    12.000000000000
         C           -0.222003956593    -0.819440391672    -0.239836925113    12.000000000000
         C           -1.668235756593    -0.338581691672    -0.052765925113    12.000000000000
         C            0.557714243407     1.552279308328    -0.556668925113    12.000000000000
         C            3.159810243407     0.842539308328     0.124207074887    12.000000000000
         C            1.551076243407     2.523835308328    -0.555234925113    12.000000000000
         C            2.853698243407     2.157935308328    -0.206053925113    12.000000000000
         C           -2.010295756593     0.646752308328     0.885679074887    12.000000000000
         C           -2.678016756593    -1.009804691672    -0.756775925113    12.000000000000
         C           -3.352210756593     0.961943308328     1.103730074887    12.000000000000
         C           -4.014368756593    -0.673835691672    -0.551554925113    12.000000000000
         C            3.850937243407    -1.917799691672     0.538022074887    12.000000000000
         C           -4.354553756593     0.312088308328     0.379786074887    12.000000000000
         H           -0.456077756593     1.819998308328    -0.840827925113     1.007825032230
         H            4.185068243407     0.585523308328     0.370357074887     1.007825032230
         H            1.803464243407    -2.139718691672     0.063061074887     1.007825032230
         H            1.319235243407     3.547026308328    -0.837544925113     1.007825032230
         H            3.643786243407     2.905908308328    -0.186377925113     1.007825032230
         H           -1.230810756593     1.143712308328     1.457414074887     1.007825032230
         H           -2.397206756593    -1.791932691672    -1.457427925113     1.007825032230
         H           -3.616089756593     1.715758308328     1.841749074887     1.007825032230
         H           -4.793794756593    -1.185159691672    -1.111505925113     1.007825032230
         H            4.456549243407    -1.711870691672    -0.356165925113     1.007825032230
         H            3.837052243407    -2.995535691672     0.708695074887     1.007825032230
         H            4.336538243407    -1.447761691672     1.398920074887     1.007825032230
         H           -5.398435756593     0.567922308328     0.545450074887     1.007825032230

  Basis Set: AUG-CC-PVTZ
    Blend: AUG-CC-PVTZ
  Basis Set: (AUG-CC-PVTZ AUX)
    Blend: AUG-CC-PVTZ-JKFIT
	 Reference Energy          =    -667.2639486727761096 [Eh]
	 Singles Energy            =      -0.0000000000000000 [Eh]
	 Same-Spin Energy          =      -0.7334701113726017 [Eh]
	 Opposite-Spin Energy      =      -2.2630673491522302 [Eh]
	 Correlation Energy        =      -2.9965374605248316 [Eh]
	 Total Energy              =    -670.2604861333009012 [Eh]

	 ================> DF-SCS-MP2 Energies <==================
	-----------------------------------------------------------
	 SCS Same-Spin Scale       =       0.3333333333333333 [-]
	 SCS Opposite-Spin Scale   =       1.2000000000000000 [-]
	 SCS Same-Spin Energy      =      -0.2444900371242005 [Eh]
	 SCS Opposite-Spin Energy  =      -2.7156808189826762 [Eh]
	 SCS Correlation Energy    =      -2.9601708561068767 [Eh]
	 SCS Total Energy          =    -670.2241195288829658 [Eh]
	-----------------------------------------------------------

  Dipole Moment: [D]
     X:     0.5460      Y:     1.0591      Z:     0.3090     Total:     1.2310

*** Psi4 exiting successfully. Buy a developer a beer!
