                               Psi4 1.3.2 release

  ==> Input File <==

--------------------------------------------------------------------------
#psi4
#
memory 32 gb

molecule  {
0 1
  O        0.0615529    -1.9702166    -0.4643898
  N        2.4573690    -1.4749290     0.4038410
  C        0.8099710     0.2105070    -0.2160820
  C        2.1525410    -0.1743900     0.0797160
  C       -0.2789970    -0.7898520    -0.2615780
  C       -1.6915990    -0.3449750    -0.0589870
  C        0.5343510     1.5458860    -0.5628900
  C        3.1364470     0.8361460     0.1179860
  C        1.5277130     2.5174420    -0.5614560
  C        2.8303350     2.1515420    -0.2122750
  C       -2.0336590     0.6403590     0.8794580
  C       -2.7013800    -1.0161980    -0.7629970
  C       -3.3755740     0.9555500     1.0975090
  C       -4.0377320    -0.6802290    -0.5577760
  C        3.8275740    -1.9241930     0.5318010
  C       -4.3779170     0.3056950     0.3735650
  H       -0.4794410     1.8136050    -0.8470490
  H        4.1617050     0.5791300     0.3641360
  H        1.7801010    -2.1461120     0.0568400
  H        1.2958720     3.5406330    -0.8437660
  H        3.6204230     2.8995150    -0.1925990
  H       -1.2541740     1.1373190     1.4511930
  H       -2.4205700    -1.7983260    -1.4636490
  H       -3.6394530     1.7093650     1.8355280
  H       -4.8171580    -1.1915530    -1.1177270
  H        4.4331860    -1.7182640    -0.3623870
  H        3.8136890    -3.0019290     0.7024740
  H        4.3131750    -1.4541550     1.3926990
  H       -5.4217990     0.5615290     0.5392290
units angstrom
no_reorient  #important for SAPT in psi4, default
symmetry c1  #important for SAPT in psi4, default
}

set PROPERTIES_ORIGIN ["COM"]
properties('MP2/aug-cc-pvtz', properties = ['dipole'])
--------------------------------------------------------------------------

    Molecular point group: c1
  Charge       = 0
  Multiplicity = 1
  Basis Set: AUG-CC-PVTZ
    Blend: AUG-CC-PVTZ
  Basis Set: (AUG-CC-PVTZ AUX)
    Blend: AUG-CC-PVTZ-JKFIT

    Orbital Energies [Eh]
    ---------------------

    Doubly Occupied:

       1A    -20.539799     2A    -15.555798     3A    -11.341424
       4A    -11.293331     5A    -11.256013     6A    -11.254571
       7A    -11.254204     8A    -11.253546     9A    -11.251722
      10A    -11.249320    11A    -11.248782    12A    -11.248370
      13A    -11.247000    14A    -11.233989    15A    -11.225964
      16A    -11.222924    17A     -1.374868    18A     -1.239249
      19A     -1.167588    20A     -1.138997    21A     -1.056956
      22A     -1.028975    23A     -1.020784    24A     -1.006684
      25A     -0.927274    26A     -0.887755    27A     -0.846545
      28A     -0.836622    29A     -0.805113    30A     -0.773845
      31A     -0.718865    32A     -0.697838    33A     -0.684988
      34A     -0.653535    35A     -0.650103    36A     -0.634253
      37A     -0.618123    38A     -0.612374    39A     -0.609939
      40A     -0.601170    41A     -0.597795    42A     -0.572455
      43A     -0.546011    44A     -0.538447    45A     -0.531183
      46A     -0.521561    47A     -0.514383    48A     -0.505353
      49A     -0.500206    50A     -0.486322    51A     -0.425809
      52A     -0.416768    53A     -0.350932    54A     -0.349453
      55A     -0.343477    56A     -0.288170

  @DF-RHF Final Energy:  -667.25895388816309

   => Energetics <=

    Nuclear Repulsion Energy =           1003.3921616287004781
    One-Electron Energy =               -2897.7871780209625285
    Two-Electron Energy =                1227.1360625040988452
    Total Energy =                       -667.2589538881632052
  Basis Set: (AUG-CC-PVTZ AUX)
    Blend: AUG-CC-PVTZ-RI
    Molecular point group: c1

    Geometry (in Angstrom), charge = 0, multiplicity = 1:

       Center              X                  Y                   Z               Mass
    ------------   -----------------  -----------------  -----------------  -----------------
         O            0.077242928395    -1.968182177378    -0.456743387564    15.994914619570
         N            2.473059028395    -1.472894577378     0.411487412436    14.003074004430
         C            0.825661028395     0.212541422622    -0.208435587564    12.000000000000
         C            2.168231028395    -0.172355577378     0.087362412436    12.000000000000
         C           -0.263306971605    -0.787817577378    -0.253931587564    12.000000000000
         C           -1.675908971605    -0.342940577378    -0.051340587564    12.000000000000
         C            0.550041028395     1.547920422622    -0.555243587564    12.000000000000
         C            3.152137028395     0.838180422622     0.125632412436    12.000000000000
         C            1.543403028395     2.519476422622    -0.553809587564    12.000000000000
         C            2.846025028395     2.153576422622    -0.204628587564    12.000000000000
         C           -2.017968971605     0.642393422622     0.887104412436    12.000000000000
         C           -2.685689971605    -1.014163577378    -0.755350587564    12.000000000000
         C           -3.359883971605     0.957584422622     1.105155412436    12.000000000000
         C           -4.022041971605    -0.678194577378    -0.550129587564    12.000000000000
         C            3.843264028395    -1.922158577378     0.539447412436    12.000000000000
         C           -4.362226971605     0.307729422622     0.381211412436    12.000000000000
         H           -0.463750971605     1.815639422622    -0.839402587564     1.007825032230
         H            4.177395028395     0.581164422622     0.371782412436     1.007825032230
         H            1.795791028395    -2.144077577378     0.064486412436     1.007825032230
         H            1.311562028395     3.542667422622    -0.836119587564     1.007825032230
         H            3.636113028395     2.901549422622    -0.184952587564     1.007825032230
         H           -1.238483971605     1.139353422622     1.458839412436     1.007825032230
         H           -2.404879971605    -1.796291577378    -1.456002587564     1.007825032230
         H           -3.623762971605     1.711399422622     1.843174412436     1.007825032230
         H           -4.801467971605    -1.189518577378    -1.110080587564     1.007825032230
         H            4.448876028395    -1.716229577378    -0.354740587564     1.007825032230
         H            3.829379028395    -2.999894577378     0.710120412436     1.007825032230
         H            4.328865028395    -1.452120577378     1.400345412436     1.007825032230
         H           -5.406108971605     0.563563422622     0.546875412436     1.007825032230

  Basis Set: AUG-CC-PVTZ
    Blend: AUG-CC-PVTZ
  Basis Set: (AUG-CC-PVTZ AUX)
    Blend: AUG-CC-PVTZ-JKFIT
	 Reference Energy          =    -667.2589538881630915 [Eh]
	 Singles Energy            =      -0.0000000000000000 [Eh]
	 Same-Spin Energy          =      -0.7351494843650730 [Eh]
	 Opposite-Spin Energy      =      -2.2658176572104161 [Eh]
	 Correlation Energy        =      -3.0009671415754893 [Eh]
	 Total Energy              =    -670.2599210297386207 [Eh]

	 ================> DF-SCS-MP2 Energies <==================
	-----------------------------------------------------------
	 SCS Same-Spin Scale       =       0.3333333333333333 [-]
	 SCS Opposite-Spin Scale   =       1.2000000000000000 [-]
	 SCS Same-Spin Energy      =      -0.2450498281216910 [Eh]
	 SCS Opposite-Spin Energy  =      -2.7189811886524993 [Eh]
	 SCS Correlation Energy    =      -2.9640310167741903 [Eh]
	 SCS Total Energy          =    -670.2229849049373342 [Eh]
	-----------------------------------------------------------

  Dipole Moment: [D]
     X:    -0.2502      Y:     1.1066      Z:     0.3756     Total:     1.1951

*** Psi4 exiting successfully. Buy a developer a beer!
