                               Psi4 1.3.2 release

  ==> Input File <==

--------------------------------------------------------------------------
#psi4
#
memory 32 gb

molecule  {
0 1
  O       -0.0649480    -2.0007500    -0.4572220
  N        2.4573690    -1.4749290     0.4038410
  C        0.7739315     0.0661079    -0.2026543
  C        2.1525410    -0.1743900     0.0797160
  C       -0.2789970    -0.7898520    -0.2615780
  C       -1.6915990    -0.3449750    -0.0589870
  C        0.5343510     1.5458860    -0.5628900
  C        3.1364470     0.8361460     0.1179860
  C        1.5277130     2.5174420    -0.5614560
  C        2.8303350     2.1515420    -0.2122750
  C       -2.0336590     0.6403590     0.8794580
  C       -2.7013800    -1.0161980    -0.7629970
  C       -3.3755740     0.9555500     1.0975090
  C       -4.0377320    -0.6802290    -0.5577760
  C        3.8275740    -1.9241930     0.5318010
  C       -4.3779170     0.3056950     0.3735650
  H       -0.4794410     1.8136050    -0.8470490
  H        4.1617050     0.5791300     0.3641360
  H        1.7801010    -2.1461120     0.0568400
  H        1.2958720     3.5406330    -0.8437660
  H        3.6204230     2.8995150    -0.1925990
  H       -1.2541740     1.1373190     1.4511930
  H       -2.4205700    -1.7983260    -1.4636490
  H       -3.6394530     1.7093650     1.8355280
  H       -4.8171580    -1.1915530    -1.1177270
  H        4.4331860    -1.7182640    -0.3623870
  H        3.8136890    -3.0019290     0.7024740
  H        4.3131750    -1.4541550     1.3926990
  H       -5.4217990     0.5615290     0.5392290
units angstrom
no_reorient  #important for SAPT in psi4, default
symmetry c1  #important for SAPT in psi4, default
}

set PROPERTIES_ORIGIN ["COM"]
properties('MP2/aug-cc-pvtz', properties = ['dipole'])
--------------------------------------------------------------------------

    Molecular point group: c1
  Charge       = 0
  Multiplicity = 1
  Basis Set: AUG-CC-PVTZ
    Blend: AUG-CC-PVTZ
  Basis Set: (AUG-CC-PVTZ AUX)
    Blend: AUG-CC-PVTZ-JKFIT

    Orbital Energies [Eh]
    ---------------------

    Doubly Occupied:

       1A    -20.523359     2A    -15.563068     3A    -11.322419
       4A    -11.306008     5A    -11.268352     6A    -11.263850
       7A    -11.257462     8A    -11.248434     9A    -11.247377
      10A    -11.246857    11A    -11.243748    12A    -11.242491
      13A    -11.240947    14A    -11.235967    15A    -11.235838
      16A    -11.231792    17A     -1.365975    18A     -1.247497
      19A     -1.160319    20A     -1.136256    21A     -1.060701
      22A     -1.023759    23A     -1.020229    24A     -1.009839
      25A     -0.935163    26A     -0.895752    27A     -0.848499
      28A     -0.833028    29A     -0.803621    30A     -0.771693
      31A     -0.720922    32A     -0.704738    33A     -0.680210
      34A     -0.660335    35A     -0.643670    36A     -0.633499
      37A     -0.619627    38A     -0.617011    39A     -0.606193
      40A     -0.599560    41A     -0.593134    42A     -0.571067
      43A     -0.549455    44A     -0.544616    45A     -0.530026
      46A     -0.520035    47A     -0.509598    48A     -0.499801
      49A     -0.492969    50A     -0.477238    51A     -0.430494
      52A     -0.418983    53A     -0.344913    54A     -0.341242
      55A     -0.338061    56A     -0.298715

  @DF-RHF Final Energy:  -667.23416070800363

   => Energetics <=

    Nuclear Repulsion Energy =           1002.9237549652294774
    One-Electron Energy =               -2896.8430064989574930
    Two-Electron Energy =                1226.6850908257245010
    Total Energy =                       -667.2341607080036283
  Basis Set: (AUG-CC-PVTZ AUX)
    Blend: AUG-CC-PVTZ-RI
    Molecular point group: c1

    Geometry (in Angstrom), charge = 0, multiplicity = 1:

       Center              X                  Y                   Z               Mass
    ------------   -----------------  -----------------  -----------------  -----------------
         O           -0.037624393105    -1.988193685692    -0.450881987955    15.994914619570
         N            2.484692606895    -1.462372685692     0.410181012045    14.003074004430
         C            0.801255106895     0.078664214308    -0.196314287955    12.000000000000
         C            2.179864606895    -0.161833685692     0.086056012045    12.000000000000
         C           -0.251673393105    -0.777295685692    -0.255237987955    12.000000000000
         C           -1.664275393105    -0.332418685692    -0.052646987955    12.000000000000
         C            0.561674606895     1.558442314308    -0.556549987955    12.000000000000
         C            3.163770606895     0.848702314308     0.124326012045    12.000000000000
         C            1.555036606895     2.529998314308    -0.555115987955    12.000000000000
         C            2.857658606895     2.164098314308    -0.205934987955    12.000000000000
         C           -2.006335393105     0.652915314308     0.885798012045    12.000000000000
         C           -2.674056393105    -1.003641685692    -0.756656987955    12.000000000000
         C           -3.348250393105     0.968106314308     1.103849012045    12.000000000000
         C           -4.010408393105    -0.667672685692    -0.551435987955    12.000000000000
         C            3.854897606895    -1.911636685692     0.538141012045    12.000000000000
         C           -4.350593393105     0.318251314308     0.379905012045    12.000000000000
         H           -0.452117393105     1.826161314308    -0.840708987955     1.007825032230
         H            4.189028606895     0.591686314308     0.370476012045     1.007825032230
         H            1.807424606895    -2.133555685692     0.063180012045     1.007825032230
         H            1.323195606895     3.553189314308    -0.837425987955     1.007825032230
         H            3.647746606895     2.912071314308    -0.186258987955     1.007825032230
         H           -1.226850393105     1.149875314308     1.457533012045     1.007825032230
         H           -2.393246393105    -1.785769685692    -1.457308987955     1.007825032230
         H           -3.612129393105     1.721921314308     1.841868012045     1.007825032230
         H           -4.789834393105    -1.178996685692    -1.111386987955     1.007825032230
         H            4.460509606895    -1.705707685692    -0.356046987955     1.007825032230
         H            3.841012606895    -2.989372685692     0.708814012045     1.007825032230
         H            4.340498606895    -1.441598685692     1.399039012045     1.007825032230
         H           -5.394475393105     0.574085314308     0.545569012045     1.007825032230

  Basis Set: AUG-CC-PVTZ
    Blend: AUG-CC-PVTZ
  Basis Set: (AUG-CC-PVTZ AUX)
    Blend: AUG-CC-PVTZ-JKFIT
	 Reference Energy          =    -667.2341607080036283 [Eh]
	 Singles Energy            =      -0.0000000000000000 [Eh]
	 Same-Spin Energy          =      -0.7358253714314039 [Eh]
	 Opposite-Spin Energy      =      -2.2681972553713381 [Eh]
	 Correlation Energy        =      -3.0040226268027421 [Eh]
	 Total Energy              =    -670.2381833348064220 [Eh]

	 ================> DF-SCS-MP2 Energies <==================
	-----------------------------------------------------------
	 SCS Same-Spin Scale       =       0.3333333333333333 [-]
	 SCS Opposite-Spin Scale   =       1.2000000000000000 [-]
	 SCS Same-Spin Energy      =      -0.2452751238104680 [Eh]
	 SCS Opposite-Spin Energy  =      -2.7218367064456057 [Eh]
	 SCS Correlation Energy    =      -2.9671118302560737 [Eh]
	 SCS Total Energy          =    -670.2012725382596727 [Eh]
	-----------------------------------------------------------

  Dipole Moment: [D]
     X:     0.9045      Y:     1.5502      Z:     0.3869     Total:     1.8360

*** Psi4 exiting successfully. Buy a developer a beer!
