                               Psi4 1.4a3.dev225

  ==> Input File <==

--------------------------------------------------------------------------
#psi4
#
memory 32 gb

molecule  {
0 1
  O       -0.0649480    -2.0007500    -0.4572220
  N        2.4573690    -1.4749290     0.4038410
  C        0.8099710     0.2105070    -0.2160820
  C        2.1713493    -0.1797821     0.0838599
  C       -0.2789970    -0.7898520    -0.2615780
  C       -1.6915990    -0.3449750    -0.0589870
  C        0.5343510     1.5458860    -0.5628900
  C        3.1364470     0.8361460     0.1179860
  C        1.5277130     2.5174420    -0.5614560
  C        2.8303350     2.1515420    -0.2122750
  C       -2.0336590     0.6403590     0.8794580
  C       -2.7013800    -1.0161980    -0.7629970
  C       -3.3755740     0.9555500     1.0975090
  C       -4.0377320    -0.6802290    -0.5577760
  C        3.8275740    -1.9241930     0.5318010
  C       -4.3779170     0.3056950     0.3735650
  H       -0.4794410     1.8136050    -0.8470490
  H        4.1617050     0.5791300     0.3641360
  H        1.7801010    -2.1461120     0.0568400
  H        1.2958720     3.5406330    -0.8437660
  H        3.6204230     2.8995150    -0.1925990
  H       -1.2541740     1.1373190     1.4511930
  H       -2.4205700    -1.7983260    -1.4636490
  H       -3.6394530     1.7093650     1.8355280
  H       -4.8171580    -1.1915530    -1.1177270
  H        4.4331860    -1.7182640    -0.3623870
  H        3.8136890    -3.0019290     0.7024740
  H        4.3131750    -1.4541550     1.3926990
  H       -5.4217990     0.5615290     0.5392290
units angstrom
no_reorient  #important for SAPT in psi4, default
symmetry c1  #important for SAPT in psi4, default
}

set PROPERTIES_ORIGIN ["COM"]
properties('MP2/aug-cc-pvtz', properties = ['dipole'])
--------------------------------------------------------------------------

    Molecular point group: c1
  Charge       = 0
  Multiplicity = 1
  Basis Set: AUG-CC-PVTZ
    Blend: AUG-CC-PVTZ
  Basis Set: (AUG-CC-PVTZ AUX)
    Blend: AUG-CC-PVTZ-JKFIT

    Orbital Energies [Eh]
    ---------------------

    Doubly Occupied:

       1A    -20.539189     2A    -15.563382     3A    -11.339731
       4A    -11.297731     5A    -11.257552     6A    -11.253152
       7A    -11.252693     8A    -11.251115     9A    -11.250008
      10A    -11.249069    11A    -11.246776    12A    -11.244733
      13A    -11.243337    14A    -11.239727    15A    -11.227266
      16A    -11.225310    17A     -1.372063    18A     -1.248180
      19A     -1.163228    20A     -1.141371    21A     -1.055573
      22A     -1.025144    23A     -1.019596    24A     -1.010444
      25A     -0.930795    26A     -0.888993    27A     -0.845174
      28A     -0.833921    29A     -0.806410    30A     -0.771163
      31A     -0.717789    32A     -0.703626    33A     -0.683342
      34A     -0.656263    35A     -0.644888    36A     -0.633681
      37A     -0.619859    38A     -0.615848    39A     -0.608102
      40A     -0.600682    41A     -0.595825    42A     -0.577364
      43A     -0.544659    44A     -0.542852    45A     -0.532114
      46A     -0.520242    47A     -0.512606    48A     -0.501696
      49A     -0.500877    50A     -0.486426    51A     -0.431135
      52A     -0.418750    53A     -0.350297    54A     -0.344864
      55A     -0.343011    56A     -0.291164

  @DF-RHF Final Energy:  -667.26242355932163

   => Energetics <=

    Nuclear Repulsion Energy =           1002.3577424553382116
    One-Electron Energy =               -2895.6987586990248928
    Two-Electron Energy =                1226.0785926843650486
    Total Energy =                       -667.2624235593216326
  Basis Set: (AUG-CC-PVTZ AUX)
    Blend: AUG-CC-PVTZ-RI
    Molecular point group: c1

    Geometry (in Angstrom), charge = 0, multiplicity = 1:

       Center              X                  Y                   Z               Mass
    ------------   -----------------  -----------------  -----------------  -----------------
         O           -0.040742225845    -1.996095562810    -0.450354248728    15.994914619570
         N            2.481574774155    -1.470274562810     0.410708751272    14.003074004430
         C            0.834176774155     0.215161437190    -0.209214248728    12.000000000000
         C            2.195555074155    -0.175127662810     0.090727651272    12.000000000000
         C           -0.254791225845    -0.785197562810    -0.254710248728    12.000000000000
         C           -1.667393225845    -0.340320562810    -0.052119248728    12.000000000000
         C            0.558556774155     1.550540437190    -0.556022248728    12.000000000000
         C            3.160652774155     0.840800437190     0.124853751272    12.000000000000
         C            1.551918774155     2.522096437190    -0.554588248728    12.000000000000
         C            2.854540774155     2.156196437190    -0.205407248728    12.000000000000
         C           -2.009453225845     0.645013437190     0.886325751272    12.000000000000
         C           -2.677174225845    -1.011543562810    -0.756129248728    12.000000000000
         C           -3.351368225845     0.960204437190     1.104376751272    12.000000000000
         C           -4.013526225845    -0.675574562810    -0.550908248728    12.000000000000
         C            3.851779774155    -1.919538562810     0.538668751272    12.000000000000
         C           -4.353711225845     0.310349437190     0.380432751272    12.000000000000
         H           -0.455235225845     1.818259437190    -0.840181248728     1.007825032230
         H            4.185910774155     0.583784437190     0.371003751272     1.007825032230
         H            1.804306774155    -2.141457562810     0.063707751272     1.007825032230
         H            1.320077774155     3.545287437190    -0.836898248728     1.007825032230
         H            3.644628774155     2.904169437190    -0.185731248728     1.007825032230
         H           -1.229968225845     1.141973437190     1.458060751272     1.007825032230
         H           -2.396364225845    -1.793671562810    -1.456781248728     1.007825032230
         H           -3.615247225845     1.714019437190     1.842395751272     1.007825032230
         H           -4.792952225845    -1.186898562810    -1.110859248728     1.007825032230
         H            4.457391774155    -1.713609562810    -0.355519248728     1.007825032230
         H            3.837894774155    -2.997274562810     0.709341751272     1.007825032230
         H            4.337380774155    -1.449500562810     1.399566751272     1.007825032230
         H           -5.397593225845     0.566183437190     0.546096751272     1.007825032230

  Basis Set: AUG-CC-PVTZ
    Blend: AUG-CC-PVTZ
  Basis Set: (AUG-CC-PVTZ AUX)
    Blend: AUG-CC-PVTZ-JKFIT
	 Reference Energy          =    -667.2624235593216326 [Eh]
	 Singles Energy            =      -0.0000000000000000 [Eh]
	 Same-Spin Energy          =      -0.7346636350871427 [Eh]
	 Opposite-Spin Energy      =      -2.2652658664426402 [Eh]
	 Correlation Energy        =      -2.9999295015297829 [Eh]
	 Total Energy              =    -670.2623530608514102 [Eh]

	 ================> DF-SCS-MP2 Energies <==================
	-----------------------------------------------------------
	 SCS Same-Spin Scale       =       0.3333333333333333 [-]
	 SCS Opposite-Spin Scale   =       1.2000000000000000 [-]
	 SCS Same-Spin Energy      =      -0.2448878783623809 [Eh]
	 SCS Opposite-Spin Energy  =      -2.7183190397311683 [Eh]
	 SCS Correlation Energy    =      -2.9632069180935492 [Eh]
	 SCS Total Energy          =    -670.2256304774151658 [Eh]
	-----------------------------------------------------------

  Dipole Moment: [D]
     X:     0.3546      Y:     1.1554      Z:     0.3609     Total:     1.2614

*** Psi4 exiting successfully. Buy a developer a beer!
