                               Psi4 1.3.2 release

  ==> Input File <==

--------------------------------------------------------------------------
#psi4
#
memory 32 gb

molecule  {
0 1
  O       -0.0649480    -2.0007500    -0.4572220
  N        2.4573690    -1.4749290     0.4038410
  C        0.8099710     0.2105070    -0.2160820
  C        2.1796851    -0.0800786     0.0624491
  C       -0.2789970    -0.7898520    -0.2615780
  C       -1.6915990    -0.3449750    -0.0589870
  C        0.5343510     1.5458860    -0.5628900
  C        3.1364470     0.8361460     0.1179860
  C        1.5277130     2.5174420    -0.5614560
  C        2.8303350     2.1515420    -0.2122750
  C       -2.0336590     0.6403590     0.8794580
  C       -2.7013800    -1.0161980    -0.7629970
  C       -3.3755740     0.9555500     1.0975090
  C       -4.0377320    -0.6802290    -0.5577760
  C        3.8275740    -1.9241930     0.5318010
  C       -4.3779170     0.3056950     0.3735650
  H       -0.4794410     1.8136050    -0.8470490
  H        4.1617050     0.5791300     0.3641360
  H        1.7801010    -2.1461120     0.0568400
  H        1.2958720     3.5406330    -0.8437660
  H        3.6204230     2.8995150    -0.1925990
  H       -1.2541740     1.1373190     1.4511930
  H       -2.4205700    -1.7983260    -1.4636490
  H       -3.6394530     1.7093650     1.8355280
  H       -4.8171580    -1.1915530    -1.1177270
  H        4.4331860    -1.7182640    -0.3623870
  H        3.8136890    -3.0019290     0.7024740
  H        4.3131750    -1.4541550     1.3926990
  H       -5.4217990     0.5615290     0.5392290
units angstrom
no_reorient  #important for SAPT in psi4, default
symmetry c1  #important for SAPT in psi4, default
}

set PROPERTIES_ORIGIN ["COM"]
properties('MP2/aug-cc-pvtz', properties = ['dipole'])
--------------------------------------------------------------------------

    Molecular point group: c1
  Charge       = 0
  Multiplicity = 1
  Basis Set: AUG-CC-PVTZ
    Blend: AUG-CC-PVTZ
  Basis Set: (AUG-CC-PVTZ AUX)
    Blend: AUG-CC-PVTZ-JKFIT

    Orbital Energies [Eh]
    ---------------------

    Doubly Occupied:

       1A    -20.542130     2A    -15.548202     3A    -11.344216
       4A    -11.288974     5A    -11.256785     6A    -11.255680
       7A    -11.253268     8A    -11.251768     9A    -11.251679
      10A    -11.248798    11A    -11.247029    12A    -11.246442
      13A    -11.245006    14A    -11.244257    15A    -11.231849
      16A    -11.223936    17A     -1.373754    18A     -1.219089
      19A     -1.165218    20A     -1.146160    21A     -1.061094
      22A     -1.028357    23A     -1.024003    24A     -1.016530
      25A     -0.915331    26A     -0.892923    27A     -0.848177
      28A     -0.836655    29A     -0.807130    30A     -0.774092
      31A     -0.721037    32A     -0.696698    33A     -0.678798
      34A     -0.657775    35A     -0.644570    36A     -0.632449
      37A     -0.625373    38A     -0.611600    39A     -0.603111
      40A     -0.599417    41A     -0.597286    42A     -0.574878
      43A     -0.546881    44A     -0.540809    45A     -0.526390
      46A     -0.522996    47A     -0.514996    48A     -0.503770
      49A     -0.500518    50A     -0.486306    51A     -0.424391
      52A     -0.413974    53A     -0.353936    54A     -0.346622
      55A     -0.345097    56A     -0.301547

  @DF-RHF Final Energy:  -667.24987876067212

   => Energetics <=

    Nuclear Repulsion Energy =           1002.4402466682870454
    One-Electron Energy =               -2895.8607420498483407
    Two-Electron Energy =                1226.1706166208891773
    Total Energy =                       -667.2498787606721180
  Basis Set: (AUG-CC-PVTZ AUX)
    Blend: AUG-CC-PVTZ-RI
    Molecular point group: c1

    Geometry (in Angstrom), charge = 0, multiplicity = 1:

       Center              X                  Y                   Z               Mass
    ------------   -----------------  -----------------  -----------------  -----------------
         O           -0.041216075848    -2.001763225627    -0.449137148074    15.994914619570
         N            2.481100924152    -1.475942225627     0.411925851926    14.003074004430
         C            0.833702924152     0.209493774373    -0.207997148074    12.000000000000
         C            2.203417024152    -0.081091825627     0.070533951926    12.000000000000
         C           -0.255265075848    -0.790865225627    -0.253493148074    12.000000000000
         C           -1.667867075848    -0.345988225627    -0.050902148074    12.000000000000
         C            0.558082924152     1.544872774373    -0.554805148074    12.000000000000
         C            3.160178924152     0.835132774373     0.126070851926    12.000000000000
         C            1.551444924152     2.516428774373    -0.553371148074    12.000000000000
         C            2.854066924152     2.150528774373    -0.204190148074    12.000000000000
         C           -2.009927075848     0.639345774373     0.887542851926    12.000000000000
         C           -2.677648075848    -1.017211225627    -0.754912148074    12.000000000000
         C           -3.351842075848     0.954536774373     1.105593851926    12.000000000000
         C           -4.014000075848    -0.681242225627    -0.549691148074    12.000000000000
         C            3.851305924152    -1.925206225627     0.539885851926    12.000000000000
         C           -4.354185075848     0.304681774373     0.381649851926    12.000000000000
         H           -0.455709075848     1.812591774373    -0.838964148074     1.007825032230
         H            4.185436924152     0.578116774373     0.372220851926     1.007825032230
         H            1.803832924152    -2.147125225627     0.064924851926     1.007825032230
         H            1.319603924152     3.539619774373    -0.835681148074     1.007825032230
         H            3.644154924152     2.898501774373    -0.184514148074     1.007825032230
         H           -1.230442075848     1.136305774373     1.459277851926     1.007825032230
         H           -2.396838075848    -1.799339225627    -1.455564148074     1.007825032230
         H           -3.615721075848     1.708351774373     1.843612851926     1.007825032230
         H           -4.793426075848    -1.192566225627    -1.109642148074     1.007825032230
         H            4.456917924152    -1.719277225627    -0.354302148074     1.007825032230
         H            3.837420924152    -3.002942225627     0.710558851926     1.007825032230
         H            4.336906924152    -1.455168225627     1.400783851926     1.007825032230
         H           -5.398067075848     0.560515774373     0.547313851926     1.007825032230

  Basis Set: AUG-CC-PVTZ
    Blend: AUG-CC-PVTZ
  Basis Set: (AUG-CC-PVTZ AUX)
    Blend: AUG-CC-PVTZ-JKFIT
	 Reference Energy          =    -667.2498787606721180 [Eh]
	 Singles Energy            =      -0.0000000000000000 [Eh]
	 Same-Spin Energy          =      -0.7344385018971564 [Eh]
	 Opposite-Spin Energy      =      -2.2657258150061423 [Eh]
	 Correlation Energy        =      -3.0001643169032990 [Eh]
	 Total Energy              =    -670.2500430775754694 [Eh]

	 ================> DF-SCS-MP2 Energies <==================
	-----------------------------------------------------------
	 SCS Same-Spin Scale       =       0.3333333333333333 [-]
	 SCS Opposite-Spin Scale   =       1.2000000000000000 [-]
	 SCS Same-Spin Energy      =      -0.2448128339657188 [Eh]
	 SCS Opposite-Spin Energy  =      -2.7188709780073705 [Eh]
	 SCS Correlation Energy    =      -2.9636838119730893 [Eh]
	 SCS Total Energy          =    -670.2135625726451735 [Eh]
	-----------------------------------------------------------

  Dipole Moment: [D]
     X:    -0.0766      Y:     1.7903      Z:     0.1704     Total:     1.8000

*** Psi4 exiting successfully. Buy a developer a beer!
