                               Psi4 1.4a2.dev612

  ==> Input File <==

--------------------------------------------------------------------------
#psi4
#
memory 32 gb

molecule  {
0 1
  O       -0.0649480    -2.0007500    -0.4572220
  N        2.4573690    -1.4749290     0.4038410
  C        0.8099710     0.2105070    -0.2160820
  C        2.1525410    -0.1743900     0.0797160
  C       -0.2104516    -0.8605528    -0.2305014
  C       -1.6915990    -0.3449750    -0.0589870
  C        0.5343510     1.5458860    -0.5628900
  C        3.1364470     0.8361460     0.1179860
  C        1.5277130     2.5174420    -0.5614560
  C        2.8303350     2.1515420    -0.2122750
  C       -2.0336590     0.6403590     0.8794580
  C       -2.7013800    -1.0161980    -0.7629970
  C       -3.3755740     0.9555500     1.0975090
  C       -4.0377320    -0.6802290    -0.5577760
  C        3.8275740    -1.9241930     0.5318010
  C       -4.3779170     0.3056950     0.3735650
  H       -0.4794410     1.8136050    -0.8470490
  H        4.1617050     0.5791300     0.3641360
  H        1.7801010    -2.1461120     0.0568400
  H        1.2958720     3.5406330    -0.8437660
  H        3.6204230     2.8995150    -0.1925990
  H       -1.2541740     1.1373190     1.4511930
  H       -2.4205700    -1.7983260    -1.4636490
  H       -3.6394530     1.7093650     1.8355280
  H       -4.8171580    -1.1915530    -1.1177270
  H        4.4331860    -1.7182640    -0.3623870
  H        3.8136890    -3.0019290     0.7024740
  H        4.3131750    -1.4541550     1.3926990
  H       -5.4217990     0.5615290     0.5392290
units angstrom
no_reorient  #important for SAPT in psi4, default
symmetry c1  #important for SAPT in psi4, default
}

set PROPERTIES_ORIGIN ["COM"]
properties('MP2/aug-cc-pvtz', properties = ['dipole'])
--------------------------------------------------------------------------

    Molecular point group: c1
  Charge       = 0
  Multiplicity = 1
  Basis Set: AUG-CC-PVTZ
    Blend: AUG-CC-PVTZ
  Basis Set: (AUG-CC-PVTZ AUX)
    Blend: AUG-CC-PVTZ-JKFIT

    Orbital Energies [Eh]
    ---------------------

    Doubly Occupied:

       1A    -20.551032     2A    -15.564658     3A    -11.339265
       4A    -11.296003     5A    -11.259246     6A    -11.254068
       7A    -11.252687     8A    -11.245862     9A    -11.244302
      10A    -11.244119    11A    -11.241268    12A    -11.240707
      13A    -11.239575    14A    -11.237903    15A    -11.229026
      16A    -11.226982    17A     -1.427304    18A     -1.247825
      19A     -1.156833    20A     -1.141991    21A     -1.050102
      22A     -1.019440    23A     -1.016470    24A     -1.010608
      25A     -0.929812    26A     -0.884114    27A     -0.838531
      28A     -0.830054    29A     -0.807526    30A     -0.769779
      31A     -0.715734    32A     -0.705442    33A     -0.687510
      34A     -0.662194    35A     -0.644602    36A     -0.631186
      37A     -0.622071    38A     -0.617931    39A     -0.609740
      40A     -0.605196    41A     -0.592578    42A     -0.583459
      43A     -0.563836    44A     -0.544533    45A     -0.533708
      46A     -0.519055    47A     -0.509912    48A     -0.506335
      49A     -0.497849    50A     -0.494913    51A     -0.431249
      52A     -0.407805    53A     -0.350748    54A     -0.340890
      55A     -0.339252    56A     -0.293719

  @DF-RHF Final Energy:  -667.25811153370103

   => Energetics <=

    Nuclear Repulsion Energy =           1002.7520484115875661
    One-Electron Energy =               -2896.4032430592610581
    Two-Electron Energy =                1226.3930831139723523
    Total Energy =                       -667.2581115337011397
  Basis Set: (AUG-CC-PVTZ AUX)
    Blend: AUG-CC-PVTZ-RI
    Molecular point group: c1

    Geometry (in Angstrom), charge = 0, multiplicity = 1:

       Center              X                  Y                   Z               Mass
    ------------   -----------------  -----------------  -----------------  -----------------
         O           -0.043569539955    -1.992383078387    -0.451885242749    15.994914619570
         N            2.478747460045    -1.466562078387     0.409177757251    14.003074004430
         C            0.831349460045     0.218873921613    -0.210745242749    12.000000000000
         C            2.173919460045    -0.166023078387     0.085052757251    12.000000000000
         C           -0.189073139955    -0.852185878387    -0.225164642749    12.000000000000
         C           -1.670220539955    -0.336608078387    -0.053650242749    12.000000000000
         C            0.555729460045     1.554252921613    -0.557553242749    12.000000000000
         C            3.157825460045     0.844512921613     0.123322757251    12.000000000000
         C            1.549091460045     2.525808921613    -0.556119242749    12.000000000000
         C            2.851713460045     2.159908921613    -0.206938242749    12.000000000000
         C           -2.012280539955     0.648725921613     0.884794757251    12.000000000000
         C           -2.680001539955    -1.007831078387    -0.757660242749    12.000000000000
         C           -3.354195539955     0.963916921613     1.102845757251    12.000000000000
         C           -4.016353539955    -0.671862078387    -0.552439242749    12.000000000000
         C            3.848952460045    -1.915826078387     0.537137757251    12.000000000000
         C           -4.356538539955     0.314061921613     0.378901757251    12.000000000000
         H           -0.458062539955     1.821971921613    -0.841712242749     1.007825032230
         H            4.183083460045     0.587496921613     0.369472757251     1.007825032230
         H            1.801479460045    -2.137745078387     0.062176757251     1.007825032230
         H            1.317250460045     3.548999921613    -0.838429242749     1.007825032230
         H            3.641801460045     2.907881921613    -0.187262242749     1.007825032230
         H           -1.232795539955     1.145685921613     1.456529757251     1.007825032230
         H           -2.399191539955    -1.789959078387    -1.458312242749     1.007825032230
         H           -3.618074539955     1.717731921613     1.840864757251     1.007825032230
         H           -4.795779539955    -1.183186078387    -1.112390242749     1.007825032230
         H            4.454564460045    -1.709897078387    -0.357050242749     1.007825032230
         H            3.835067460045    -2.993562078387     0.707810757251     1.007825032230
         H            4.334553460045    -1.445788078387     1.398035757251     1.007825032230
         H           -5.400420539955     0.569895921613     0.544565757251     1.007825032230

  Basis Set: AUG-CC-PVTZ
    Blend: AUG-CC-PVTZ
  Basis Set: (AUG-CC-PVTZ AUX)
    Blend: AUG-CC-PVTZ-JKFIT
	 Reference Energy          =    -667.2581115337010260 [Eh]
	 Singles Energy            =      -0.0000000000000000 [Eh]
	 Same-Spin Energy          =      -0.7326399529701779 [Eh]
	 Opposite-Spin Energy      =      -2.2614182012726896 [Eh]
	 Correlation Energy        =      -2.9940581542428673 [Eh]
	 Total Energy              =    -670.2521696879439332 [Eh]

	 ================> DF-SCS-MP2 Energies <==================
	-----------------------------------------------------------
	 SCS Same-Spin Scale       =       0.3333333333333333 [-]
	 SCS Opposite-Spin Scale   =       1.2000000000000000 [-]
	 SCS Same-Spin Energy      =      -0.2442133176567260 [Eh]
	 SCS Opposite-Spin Energy  =      -2.7137018415272274 [Eh]
	 SCS Correlation Energy    =      -2.9579151591839534 [Eh]
	 SCS Total Energy          =    -670.2160266928849524 [Eh]
	-----------------------------------------------------------

  Dipole Moment: [D]
     X:     0.8068      Y:     0.9068      Z:     0.2718     Total:     1.2438

*** Psi4 exiting successfully. Buy a developer a beer!
