                               Psi4 1.4a3.dev225

  ==> Input File <==

--------------------------------------------------------------------------
#psi4
#
memory 32 gb

molecule  {
0 1
  O       -0.0649480    -2.0007500    -0.4572220
  N        2.4573690    -1.4749290     0.4038410
  C        0.8099710     0.2105070    -0.2160820
  C        2.1995618    -0.1878702     0.0900757
  C       -0.2789970    -0.7898520    -0.2615780
  C       -1.6915990    -0.3449750    -0.0589870
  C        0.5343510     1.5458860    -0.5628900
  C        3.1364470     0.8361460     0.1179860
  C        1.5277130     2.5174420    -0.5614560
  C        2.8303350     2.1515420    -0.2122750
  C       -2.0336590     0.6403590     0.8794580
  C       -2.7013800    -1.0161980    -0.7629970
  C       -3.3755740     0.9555500     1.0975090
  C       -4.0377320    -0.6802290    -0.5577760
  C        3.8275740    -1.9241930     0.5318010
  C       -4.3779170     0.3056950     0.3735650
  H       -0.4794410     1.8136050    -0.8470490
  H        4.1617050     0.5791300     0.3641360
  H        1.7801010    -2.1461120     0.0568400
  H        1.2958720     3.5406330    -0.8437660
  H        3.6204230     2.8995150    -0.1925990
  H       -1.2541740     1.1373190     1.4511930
  H       -2.4205700    -1.7983260    -1.4636490
  H       -3.6394530     1.7093650     1.8355280
  H       -4.8171580    -1.1915530    -1.1177270
  H        4.4331860    -1.7182640    -0.3623870
  H        3.8136890    -3.0019290     0.7024740
  H        4.3131750    -1.4541550     1.3926990
  H       -5.4217990     0.5615290     0.5392290
units angstrom
no_reorient  #important for SAPT in psi4, default
symmetry c1  #important for SAPT in psi4, default
}

set PROPERTIES_ORIGIN ["COM"]
properties('MP2/aug-cc-pvtz', properties = ['dipole'])
--------------------------------------------------------------------------

    Molecular point group: c1
  Charge       = 0
  Multiplicity = 1
  Basis Set: AUG-CC-PVTZ
    Blend: AUG-CC-PVTZ
  Basis Set: (AUG-CC-PVTZ AUX)
    Blend: AUG-CC-PVTZ-JKFIT

    Orbital Energies [Eh]
    ---------------------

    Doubly Occupied:

       1A    -20.538435     2A    -15.565479     3A    -11.339155
       4A    -11.298311     5A    -11.258190     6A    -11.253848
       7A    -11.252774     8A    -11.250707     9A    -11.249692
      10A    -11.248707    11A    -11.246427    12A    -11.244408
      13A    -11.243042    14A    -11.241236    15A    -11.224862
      16A    -11.224493    17A     -1.371457    18A     -1.253932
      19A     -1.162818    20A     -1.140371    21A     -1.054896
      22A     -1.024707    23A     -1.018511    24A     -1.010589
      25A     -0.932770    26A     -0.889426    27A     -0.845231
      28A     -0.833094    29A     -0.804742    30A     -0.770374
      31A     -0.717898    32A     -0.706684    33A     -0.683056
      34A     -0.657096    35A     -0.644754    36A     -0.634262
      37A     -0.620539    38A     -0.617066    39A     -0.608052
      40A     -0.599246    41A     -0.595463    42A     -0.576804
      43A     -0.544424    44A     -0.543401    45A     -0.533796
      46A     -0.520105    47A     -0.512286    48A     -0.500809
      49A     -0.497640    50A     -0.486114    51A     -0.433724
      52A     -0.418147    53A     -0.350067    54A     -0.344471
      55A     -0.342715    56A     -0.289795

  @DF-RHF Final Energy:  -667.25991262608125

   => Energetics <=

    Nuclear Repulsion Energy =           1002.1348903378936939
    One-Electron Energy =               -2895.2474125862836445
    Two-Electron Energy =                1225.8526096223088189
    Total Energy =                       -667.2599126260811317
  Basis Set: (AUG-CC-PVTZ AUX)
    Blend: AUG-CC-PVTZ-RI
    Molecular point group: c1

    Geometry (in Angstrom), charge = 0, multiplicity = 1:

       Center              X                  Y                   Z               Mass
    ------------   -----------------  -----------------  -----------------  -----------------
         O           -0.042345970320    -1.995635793357    -0.450707586961    15.994914619570
         N            2.479971029680    -1.469814793357     0.410355413039    14.003074004430
         C            0.832573029680     0.215621206643    -0.209567586961    12.000000000000
         C            2.222163829680    -0.182755993357     0.096590113039    12.000000000000
         C           -0.256394970320    -0.784737793357    -0.255063586961    12.000000000000
         C           -1.668996970320    -0.339860793357    -0.052472586961    12.000000000000
         C            0.556953029680     1.551000206643    -0.556375586961    12.000000000000
         C            3.159049029680     0.841260206643     0.124500413039    12.000000000000
         C            1.550315029680     2.522556206643    -0.554941586961    12.000000000000
         C            2.852937029680     2.156656206643    -0.205760586961    12.000000000000
         C           -2.011056970320     0.645473206643     0.885972413039    12.000000000000
         C           -2.678777970320    -1.011083793357    -0.756482586961    12.000000000000
         C           -3.352971970320     0.960664206643     1.104023413039    12.000000000000
         C           -4.015129970320    -0.675114793357    -0.551261586961    12.000000000000
         C            3.850176029680    -1.919078793357     0.538315413039    12.000000000000
         C           -4.355314970320     0.310809206643     0.380079413039    12.000000000000
         H           -0.456838970320     1.818719206643    -0.840534586961     1.007825032230
         H            4.184307029680     0.584244206643     0.370650413039     1.007825032230
         H            1.802703029680    -2.140997793357     0.063354413039     1.007825032230
         H            1.318474029680     3.545747206643    -0.837251586961     1.007825032230
         H            3.643025029680     2.904629206643    -0.186084586961     1.007825032230
         H           -1.231571970320     1.142433206643     1.457707413039     1.007825032230
         H           -2.397967970320    -1.793211793357    -1.457134586961     1.007825032230
         H           -3.616850970320     1.714479206643     1.842042413039     1.007825032230
         H           -4.794555970320    -1.186438793357    -1.111212586961     1.007825032230
         H            4.455788029680    -1.713149793357    -0.355872586961     1.007825032230
         H            3.836291029680    -2.996814793357     0.708988413039     1.007825032230
         H            4.335777029680    -1.449040793357     1.399213413039     1.007825032230
         H           -5.399196970320     0.566643206643     0.545743413039     1.007825032230

  Basis Set: AUG-CC-PVTZ
    Blend: AUG-CC-PVTZ
  Basis Set: (AUG-CC-PVTZ AUX)
    Blend: AUG-CC-PVTZ-JKFIT
	 Reference Energy          =    -667.2599126260812454 [Eh]
	 Singles Energy            =      -0.0000000000000000 [Eh]
	 Same-Spin Energy          =      -0.7347646444683535 [Eh]
	 Opposite-Spin Energy      =      -2.2653570308119755 [Eh]
	 Correlation Energy        =      -3.0001216752803290 [Eh]
	 Total Energy              =    -670.2600343013615429 [Eh]

	 ================> DF-SCS-MP2 Energies <==================
	-----------------------------------------------------------
	 SCS Same-Spin Scale       =       0.3333333333333333 [-]
	 SCS Opposite-Spin Scale   =       1.2000000000000000 [-]
	 SCS Same-Spin Energy      =      -0.2449215481561178 [Eh]
	 SCS Opposite-Spin Energy  =      -2.7184284369743703 [Eh]
	 SCS Correlation Energy    =      -2.9633499851304883 [Eh]
	 SCS Total Energy          =    -670.2232626112116805 [Eh]
	-----------------------------------------------------------

  Dipole Moment: [D]
     X:     0.4008      Y:     1.0858      Z:     0.3828     Total:     1.2191

*** Psi4 exiting successfully. Buy a developer a beer!
