                               Psi4 1.3.2 release

  ==> Input File <==

--------------------------------------------------------------------------
#psi4
#
memory 32 gb

molecule  {
0 1
  O       -0.0649480    -2.0007500    -0.4572220
  N        2.4573690    -1.4749290     0.4038410
  C        0.8099710     0.2105070    -0.2160820
  C        2.1328377    -0.1820551     0.0683780
  C       -0.2789970    -0.7898520    -0.2615780
  C       -1.6915990    -0.3449750    -0.0589870
  C        0.5343510     1.5458860    -0.5628900
  C        3.1364470     0.8361460     0.1179860
  C        1.5277130     2.5174420    -0.5614560
  C        2.8303350     2.1515420    -0.2122750
  C       -2.0336590     0.6403590     0.8794580
  C       -2.7013800    -1.0161980    -0.7629970
  C       -3.3755740     0.9555500     1.0975090
  C       -4.0377320    -0.6802290    -0.5577760
  C        3.8275740    -1.9241930     0.5318010
  C       -4.3779170     0.3056950     0.3735650
  H       -0.4794410     1.8136050    -0.8470490
  H        4.1617050     0.5791300     0.3641360
  H        1.7801010    -2.1461120     0.0568400
  H        1.2958720     3.5406330    -0.8437660
  H        3.6204230     2.8995150    -0.1925990
  H       -1.2541740     1.1373190     1.4511930
  H       -2.4205700    -1.7983260    -1.4636490
  H       -3.6394530     1.7093650     1.8355280
  H       -4.8171580    -1.1915530    -1.1177270
  H        4.4331860    -1.7182640    -0.3623870
  H        3.8136890    -3.0019290     0.7024740
  H        4.3131750    -1.4541550     1.3926990
  H       -5.4217990     0.5615290     0.5392290
units angstrom
no_reorient  #important for SAPT in psi4, default
symmetry c1  #important for SAPT in psi4, default
}

set PROPERTIES_ORIGIN ["COM"]
properties('MP2/aug-cc-pvtz', properties = ['dipole'])
--------------------------------------------------------------------------

    Molecular point group: c1
  Charge       = 0
  Multiplicity = 1
  Basis Set: AUG-CC-PVTZ
    Blend: AUG-CC-PVTZ
  Basis Set: (AUG-CC-PVTZ AUX)
    Blend: AUG-CC-PVTZ-JKFIT

    Orbital Energies [Eh]
    ---------------------

    Doubly Occupied:

       1A    -20.539877     2A    -15.562182     3A    -11.339997
       4A    -11.297605     5A    -11.257879     6A    -11.252219
       7A    -11.251739     8A    -11.251429     9A    -11.250235
      10A    -11.249259    11A    -11.247019    12A    -11.244982
      13A    -11.243549    14A    -11.236827    15A    -11.231019
      16A    -11.225832    17A     -1.372728    18A     -1.244517
      19A     -1.163552    20A     -1.142129    21A     -1.056188
      22A     -1.025810    23A     -1.021597    24A     -1.008347
      25A     -0.929906    26A     -0.887970    27A     -0.844850
      28A     -0.835015    29A     -0.808601    30A     -0.771583
      31A     -0.717904    32A     -0.700257    33A     -0.684065
      34A     -0.655514    35A     -0.645062    36A     -0.633235
      37A     -0.618602    38A     -0.615724    39A     -0.608067
      40A     -0.601697    41A     -0.596074    42A     -0.578008
      43A     -0.545488    44A     -0.542361    45A     -0.529756
      46A     -0.519888    47A     -0.512860    48A     -0.505572
      49A     -0.501282    50A     -0.486364    51A     -0.429533
      52A     -0.418645    53A     -0.350409    54A     -0.345262
      55A     -0.343210    56A     -0.291943

  @DF-RHF Final Energy:  -667.26218628475021

   => Energetics <=

    Nuclear Repulsion Energy =           1002.6780898432913318
    One-Electron Energy =               -2896.3381056139523935
    Two-Electron Energy =                1226.3978294859109610
    Total Energy =                       -667.2621862847502143
  Basis Set: (AUG-CC-PVTZ AUX)
    Blend: AUG-CC-PVTZ-RI
    Molecular point group: c1

    Geometry (in Angstrom), charge = 0, multiplicity = 1:

       Center              X                  Y                   Z               Mass
    ------------   -----------------  -----------------  -----------------  -----------------
         O           -0.038553027238    -1.995966353729    -0.449474177427    15.994914619570
         N            2.483763972762    -1.470145353729     0.411588822573    14.003074004430
         C            0.836365972762     0.215290646271    -0.208334177427    12.000000000000
         C            2.159232672762    -0.177271453729     0.076125822573    12.000000000000
         C           -0.252602027238    -0.785068353729    -0.253830177427    12.000000000000
         C           -1.665204027238    -0.340191353729    -0.051239177427    12.000000000000
         C            0.560745972762     1.550669646271    -0.555142177427    12.000000000000
         C            3.162841972762     0.840929646271     0.125733822573    12.000000000000
         C            1.554107972762     2.522225646271    -0.553708177427    12.000000000000
         C            2.856729972762     2.156325646271    -0.204527177427    12.000000000000
         C           -2.007264027238     0.645142646271     0.887205822573    12.000000000000
         C           -2.674985027238    -1.011414353729    -0.755249177427    12.000000000000
         C           -3.349179027238     0.960333646271     1.105256822573    12.000000000000
         C           -4.011337027238    -0.675445353729    -0.550028177427    12.000000000000
         C            3.853968972762    -1.919409353729     0.539548822573    12.000000000000
         C           -4.351522027238     0.310478646271     0.381312822573    12.000000000000
         H           -0.453046027238     1.818388646271    -0.839301177427     1.007825032230
         H            4.188099972762     0.583913646271     0.371883822573     1.007825032230
         H            1.806495972762    -2.141328353729     0.064587822573     1.007825032230
         H            1.322266972762     3.545416646271    -0.836018177427     1.007825032230
         H            3.646817972762     2.904298646271    -0.184851177427     1.007825032230
         H           -1.227779027238     1.142102646271     1.458940822573     1.007825032230
         H           -2.394175027238    -1.793542353729    -1.455901177427     1.007825032230
         H           -3.613058027238     1.714148646271     1.843275822573     1.007825032230
         H           -4.790763027238    -1.186769353729    -1.109979177427     1.007825032230
         H            4.459580972762    -1.713480353729    -0.354639177427     1.007825032230
         H            3.840083972762    -2.997145353729     0.710221822573     1.007825032230
         H            4.339569972762    -1.449371353729     1.400446822573     1.007825032230
         H           -5.395404027238     0.566312646271     0.546976822573     1.007825032230

  Basis Set: AUG-CC-PVTZ
    Blend: AUG-CC-PVTZ
  Basis Set: (AUG-CC-PVTZ AUX)
    Blend: AUG-CC-PVTZ-JKFIT
	 Reference Energy          =    -667.2621862847502143 [Eh]
	 Singles Energy            =      -0.0000000000000000 [Eh]
	 Same-Spin Energy          =      -0.7345676300897211 [Eh]
	 Opposite-Spin Energy      =      -2.2653458227156502 [Eh]
	 Correlation Energy        =      -2.9999134528053713 [Eh]
	 Total Energy              =    -670.2620997375555589 [Eh]

	 ================> DF-SCS-MP2 Energies <==================
	-----------------------------------------------------------
	 SCS Same-Spin Scale       =       0.3333333333333333 [-]
	 SCS Opposite-Spin Scale   =       1.2000000000000000 [-]
	 SCS Same-Spin Energy      =      -0.2448558766965737 [Eh]
	 SCS Opposite-Spin Energy  =      -2.7184149872587802 [Eh]
	 SCS Correlation Energy    =      -2.9632708639553540 [Eh]
	 SCS Total Energy          =    -670.2254571487055728 [Eh]
	-----------------------------------------------------------

  Dipole Moment: [D]
     X:     0.3391      Y:     1.1838      Z:     0.3482     Total:     1.2797

*** Psi4 exiting successfully. Buy a developer a beer!
