                               Psi4 1.3.2 release

  ==> Input File <==

--------------------------------------------------------------------------
#psi4
#
memory 32 gb

molecule  {
0 1
  O       -0.0649480    -2.0007500    -0.4572220
  N        2.4573690    -1.4749290     0.4038410
  C        0.7842825     0.1146126    -0.2074819
  C        2.1525410    -0.1743900     0.0797160
  C       -0.2789970    -0.7898520    -0.2615780
  C       -1.6915990    -0.3449750    -0.0589870
  C        0.5343510     1.5458860    -0.5628900
  C        3.1364470     0.8361460     0.1179860
  C        1.5277130     2.5174420    -0.5614560
  C        2.8303350     2.1515420    -0.2122750
  C       -2.0336590     0.6403590     0.8794580
  C       -2.7013800    -1.0161980    -0.7629970
  C       -3.3755740     0.9555500     1.0975090
  C       -4.0377320    -0.6802290    -0.5577760
  C        3.8275740    -1.9241930     0.5318010
  C       -4.3779170     0.3056950     0.3735650
  H       -0.4794410     1.8136050    -0.8470490
  H        4.1617050     0.5791300     0.3641360
  H        1.7801010    -2.1461120     0.0568400
  H        1.2958720     3.5406330    -0.8437660
  H        3.6204230     2.8995150    -0.1925990
  H       -1.2541740     1.1373190     1.4511930
  H       -2.4205700    -1.7983260    -1.4636490
  H       -3.6394530     1.7093650     1.8355280
  H       -4.8171580    -1.1915530    -1.1177270
  H        4.4331860    -1.7182640    -0.3623870
  H        3.8136890    -3.0019290     0.7024740
  H        4.3131750    -1.4541550     1.3926990
  H       -5.4217990     0.5615290     0.5392290
units angstrom
no_reorient  #important for SAPT in psi4, default
symmetry c1  #important for SAPT in psi4, default
}

set PROPERTIES_ORIGIN ["COM"]
properties('MP2/aug-cc-pvtz', properties = ['dipole'])
--------------------------------------------------------------------------

    Molecular point group: c1
  Charge       = 0
  Multiplicity = 1
  Basis Set: AUG-CC-PVTZ
    Blend: AUG-CC-PVTZ
  Basis Set: (AUG-CC-PVTZ AUX)
    Blend: AUG-CC-PVTZ-JKFIT

    Orbital Energies [Eh]
    ---------------------

    Doubly Occupied:

       1A    -20.529285     2A    -15.562407     3A    -11.328955
       4A    -11.302687     5A    -11.263691     6A    -11.260008
       7A    -11.257229     8A    -11.249505     9A    -11.248424
      10A    -11.247755    11A    -11.244947    12A    -11.243384
      13A    -11.241894    14A    -11.236864    15A    -11.233428
      16A    -11.229804    17A     -1.368155    18A     -1.246229
      19A     -1.161467    20A     -1.137531    21A     -1.059027
      22A     -1.024157    23A     -1.020362    24A     -1.009895
      25A     -0.932747    26A     -0.893464    27A     -0.847796
      28A     -0.833798    29A     -0.804422    30A     -0.771566
      31A     -0.719890    32A     -0.703176    33A     -0.681120
      34A     -0.659205    35A     -0.644002    36A     -0.633437
      37A     -0.619901    38A     -0.616376    39A     -0.606867
      40A     -0.600238    41A     -0.594167    42A     -0.572892
      43A     -0.547414    44A     -0.544076    45A     -0.530095
      46A     -0.520071    47A     -0.510547    48A     -0.500963
      49A     -0.496770    50A     -0.481454    51A     -0.429925
      52A     -0.420225    53A     -0.346372    54A     -0.342622
      55A     -0.340085    56A     -0.296491

  @DF-RHF Final Energy:  -667.24957018418036

   => Energetics <=

    Nuclear Repulsion Energy =           1002.7544442893437235
    One-Electron Energy =               -2896.5095053687241489
    Two-Electron Energy =                1226.5054908952001824
    Total Energy =                       -667.2495701841803566
  Basis Set: (AUG-CC-PVTZ AUX)
    Blend: AUG-CC-PVTZ-RI
    Molecular point group: c1

    Geometry (in Angstrom), charge = 0, multiplicity = 1:

       Center              X                  Y                   Z               Mass
    ------------   -----------------  -----------------  -----------------  -----------------
         O           -0.038212797502    -1.990950943809    -0.450607562193    15.994914619570
         N            2.484104202498    -1.465129943809     0.410455437807    14.003074004430
         C            0.811017702498     0.124411656191    -0.200867462193    12.000000000000
         C            2.179276202498    -0.164590943809     0.086330437807    12.000000000000
         C           -0.252261797502    -0.780052943809    -0.254963562193    12.000000000000
         C           -1.664863797502    -0.335175943809    -0.052372562193    12.000000000000
         C            0.561086202498     1.555685056191    -0.556275562193    12.000000000000
         C            3.163182202498     0.845945056191     0.124600437807    12.000000000000
         C            1.554448202498     2.527241056191    -0.554841562193    12.000000000000
         C            2.857070202498     2.161341056191    -0.205660562193    12.000000000000
         C           -2.006923797502     0.650158056191     0.886072437807    12.000000000000
         C           -2.674644797502    -1.006398943809    -0.756382562193    12.000000000000
         C           -3.348838797502     0.965349056191     1.104123437807    12.000000000000
         C           -4.010996797502    -0.670429943809    -0.551161562193    12.000000000000
         C            3.854309202498    -1.914393943809     0.538415437807    12.000000000000
         C           -4.351181797502     0.315494056191     0.380179437807    12.000000000000
         H           -0.452705797502     1.823404056191    -0.840434562193     1.007825032230
         H            4.188440202498     0.588929056191     0.370750437807     1.007825032230
         H            1.806836202498    -2.136312943809     0.063454437807     1.007825032230
         H            1.322607202498     3.550432056191    -0.837151562193     1.007825032230
         H            3.647158202498     2.909314056191    -0.185984562193     1.007825032230
         H           -1.227438797502     1.147118056191     1.457807437807     1.007825032230
         H           -2.393834797502    -1.788526943809    -1.457034562193     1.007825032230
         H           -3.612717797502     1.719164056191     1.842142437807     1.007825032230
         H           -4.790422797502    -1.181753943809    -1.111112562193     1.007825032230
         H            4.459921202498    -1.708464943809    -0.355772562193     1.007825032230
         H            3.840424202498    -2.992129943809     0.709088437807     1.007825032230
         H            4.339910202498    -1.444355943809     1.399313437807     1.007825032230
         H           -5.395063797502     0.571328056191     0.545843437807     1.007825032230

  Basis Set: AUG-CC-PVTZ
    Blend: AUG-CC-PVTZ
  Basis Set: (AUG-CC-PVTZ AUX)
    Blend: AUG-CC-PVTZ-JKFIT
	 Reference Energy          =    -667.2495701841803566 [Eh]
	 Singles Energy            =      -0.0000000000000000 [Eh]
	 Same-Spin Energy          =      -0.7352920734940082 [Eh]
	 Opposite-Spin Energy      =      -2.2668907078711977 [Eh]
	 Correlation Energy        =      -3.0021827813652058 [Eh]
	 Total Energy              =    -670.2517529655455064 [Eh]

	 ================> DF-SCS-MP2 Energies <==================
	-----------------------------------------------------------
	 SCS Same-Spin Scale       =       0.3333333333333333 [-]
	 SCS Opposite-Spin Scale   =       1.2000000000000000 [-]
	 SCS Same-Spin Energy      =      -0.2450973578313360 [Eh]
	 SCS Opposite-Spin Energy  =      -2.7202688494454370 [Eh]
	 SCS Correlation Energy    =      -2.9653662072767730 [Eh]
	 SCS Total Energy          =    -670.2149363914571722 [Eh]
	-----------------------------------------------------------

  Dipole Moment: [D]
     X:     0.7082      Y:     1.4396      Z:     0.3725     Total:     1.6470

*** Psi4 exiting successfully. Buy a developer a beer!
