                               Psi4 1.3.2 release

  ==> Input File <==

--------------------------------------------------------------------------
#psi4
#
memory 32 gb

molecule  {
0 1
  O       -0.0649480    -2.0007500    -0.4572220
  N        2.4573690    -1.4749290     0.4038410
  C        0.8099710     0.2105070    -0.2160820
  C        2.2467722    -0.1566352     0.0765351
  C       -0.2789970    -0.7898520    -0.2615780
  C       -1.6915990    -0.3449750    -0.0589870
  C        0.5343510     1.5458860    -0.5628900
  C        3.1364470     0.8361460     0.1179860
  C        1.5277130     2.5174420    -0.5614560
  C        2.8303350     2.1515420    -0.2122750
  C       -2.0336590     0.6403590     0.8794580
  C       -2.7013800    -1.0161980    -0.7629970
  C       -3.3755740     0.9555500     1.0975090
  C       -4.0377320    -0.6802290    -0.5577760
  C        3.8275740    -1.9241930     0.5318010
  C       -4.3779170     0.3056950     0.3735650
  H       -0.4794410     1.8136050    -0.8470490
  H        4.1617050     0.5791300     0.3641360
  H        1.7801010    -2.1461120     0.0568400
  H        1.2958720     3.5406330    -0.8437660
  H        3.6204230     2.8995150    -0.1925990
  H       -1.2541740     1.1373190     1.4511930
  H       -2.4205700    -1.7983260    -1.4636490
  H       -3.6394530     1.7093650     1.8355280
  H       -4.8171580    -1.1915530    -1.1177270
  H        4.4331860    -1.7182640    -0.3623870
  H        3.8136890    -3.0019290     0.7024740
  H        4.3131750    -1.4541550     1.3926990
  H       -5.4217990     0.5615290     0.5392290
units angstrom
no_reorient  #important for SAPT in psi4, default
symmetry c1  #important for SAPT in psi4, default
}

set PROPERTIES_ORIGIN ["COM"]
properties('MP2/aug-cc-pvtz', properties = ['dipole'])
--------------------------------------------------------------------------

    Molecular point group: c1
  Charge       = 0
  Multiplicity = 1
  Basis Set: AUG-CC-PVTZ
    Blend: AUG-CC-PVTZ
  Basis Set: (AUG-CC-PVTZ AUX)
    Blend: AUG-CC-PVTZ-JKFIT

    Orbital Energies [Eh]
    ---------------------

    Doubly Occupied:

       1A    -20.538826     2A    -15.560744     3A    -11.340450
       4A    -11.294448     5A    -11.256498     6A    -11.254339
       7A    -11.253638     8A    -11.251198     9A    -11.250111
      10A    -11.249466    11A    -11.246932    12A    -11.245446
      13A    -11.244800    14A    -11.243454    15A    -11.227248
      16A    -11.219875    17A     -1.371426    18A     -1.244459
      19A     -1.163318    20A     -1.142745    21A     -1.056739
      22A     -1.025942    23A     -1.021787    24A     -1.010785
      25A     -0.927494    26A     -0.892611    27A     -0.846465
      28A     -0.833364    29A     -0.802303    30A     -0.769794
      31A     -0.718495    32A     -0.707021    33A     -0.681727
      34A     -0.656986    35A     -0.644356    36A     -0.634867
      37A     -0.623279    38A     -0.612719    39A     -0.608074
      40A     -0.598721    41A     -0.595901    42A     -0.575787
      43A     -0.544309    44A     -0.541861    45A     -0.534426
      46A     -0.520929    47A     -0.512827    48A     -0.501298
      49A     -0.494561    50A     -0.484321    51A     -0.429824
      52A     -0.419507    53A     -0.351737    54A     -0.344840
      55A     -0.343391    56A     -0.293393

  @DF-RHF Final Energy:  -667.25160123626642

   => Energetics <=

    Nuclear Repulsion Energy =           1001.8108899951577087
    One-Electron Energy =               -2894.6012582697303515
    Two-Electron Energy =                1225.5387670383063323
    Total Energy =                       -667.2516012362664242
  Basis Set: (AUG-CC-PVTZ AUX)
    Blend: AUG-CC-PVTZ-RI
    Molecular point group: c1

    Geometry (in Angstrom), charge = 0, multiplicity = 1:

       Center              X                  Y                   Z               Mass
    ------------   -----------------  -----------------  -----------------  -----------------
         O           -0.045029653728    -1.997411352371    -0.449937869196    15.994914619570
         N            2.477287346272    -1.471590352371     0.411125130804    14.003074004430
         C            0.829889346272     0.213845647629    -0.208797869196    12.000000000000
         C            2.266690546272    -0.153296552371     0.083819230804    12.000000000000
         C           -0.259078653728    -0.786513352371    -0.254293869196    12.000000000000
         C           -1.671680653728    -0.341636352371    -0.051702869196    12.000000000000
         C            0.554269346272     1.549224647629    -0.555605869196    12.000000000000
         C            3.156365346272     0.839484647629     0.125270130804    12.000000000000
         C            1.547631346272     2.520780647629    -0.554171869196    12.000000000000
         C            2.850253346272     2.154880647629    -0.204990869196    12.000000000000
         C           -2.013740653728     0.643697647629     0.886742130804    12.000000000000
         C           -2.681461653728    -1.012859352371    -0.755712869196    12.000000000000
         C           -3.355655653728     0.958888647629     1.104793130804    12.000000000000
         C           -4.017813653728    -0.676890352371    -0.550491869196    12.000000000000
         C            3.847492346272    -1.920854352371     0.539085130804    12.000000000000
         C           -4.357998653728     0.309033647629     0.380849130804    12.000000000000
         H           -0.459522653728     1.816943647629    -0.839764869196     1.007825032230
         H            4.181623346272     0.582468647629     0.371420130804     1.007825032230
         H            1.800019346272    -2.142773352371     0.064124130804     1.007825032230
         H            1.315790346272     3.543971647629    -0.836481869196     1.007825032230
         H            3.640341346272     2.902853647629    -0.185314869196     1.007825032230
         H           -1.234255653728     1.140657647629     1.458477130804     1.007825032230
         H           -2.400651653728    -1.794987352371    -1.456364869196     1.007825032230
         H           -3.619534653728     1.712703647629     1.842812130804     1.007825032230
         H           -4.797239653728    -1.188214352371    -1.110442869196     1.007825032230
         H            4.453104346272    -1.714925352371    -0.355102869196     1.007825032230
         H            3.833607346272    -2.998590352371     0.709758130804     1.007825032230
         H            4.333093346272    -1.450816352371     1.399983130804     1.007825032230
         H           -5.401880653728     0.564867647629     0.546513130804     1.007825032230

  Basis Set: AUG-CC-PVTZ
    Blend: AUG-CC-PVTZ
  Basis Set: (AUG-CC-PVTZ AUX)
    Blend: AUG-CC-PVTZ-JKFIT
	 Reference Energy          =    -667.2516012362664242 [Eh]
	 Singles Energy            =      -0.0000000000000000 [Eh]
	 Same-Spin Energy          =      -0.7346824514664645 [Eh]
	 Opposite-Spin Energy      =      -2.2657433733949541 [Eh]
	 Correlation Energy        =      -3.0004258248614186 [Eh]
	 Total Energy              =    -670.2520270611278193 [Eh]

	 ================> DF-SCS-MP2 Energies <==================
	-----------------------------------------------------------
	 SCS Same-Spin Scale       =       0.3333333333333333 [-]
	 SCS Opposite-Spin Scale   =       1.2000000000000000 [-]
	 SCS Same-Spin Energy      =      -0.2448941504888215 [Eh]
	 SCS Opposite-Spin Energy  =      -2.7188920480739447 [Eh]
	 SCS Correlation Energy    =      -2.9637861985627660 [Eh]
	 SCS Total Energy          =    -670.2153874348291538 [Eh]
	-----------------------------------------------------------

  Dipole Moment: [D]
     X:     0.2535      Y:     1.3077      Z:     0.3142     Total:     1.3686

*** Psi4 exiting successfully. Buy a developer a beer!
