                               Psi4 1.3.2 release

  ==> Input File <==

--------------------------------------------------------------------------
#psi4
#
memory 32 gb

molecule  {
0 1
  O       -0.0649480    -2.0007500    -0.4572220
  N        2.4573690    -1.4749290     0.4038410
  C        0.8099710     0.2105070    -0.2160820
  C        2.1596259    -0.1506093     0.0774535
  C       -0.2789970    -0.7898520    -0.2615780
  C       -1.6915990    -0.3449750    -0.0589870
  C        0.5343510     1.5458860    -0.5628900
  C        3.1364470     0.8361460     0.1179860
  C        1.5277130     2.5174420    -0.5614560
  C        2.8303350     2.1515420    -0.2122750
  C       -2.0336590     0.6403590     0.8794580
  C       -2.7013800    -1.0161980    -0.7629970
  C       -3.3755740     0.9555500     1.0975090
  C       -4.0377320    -0.6802290    -0.5577760
  C        3.8275740    -1.9241930     0.5318010
  C       -4.3779170     0.3056950     0.3735650
  H       -0.4794410     1.8136050    -0.8470490
  H        4.1617050     0.5791300     0.3641360
  H        1.7801010    -2.1461120     0.0568400
  H        1.2958720     3.5406330    -0.8437660
  H        3.6204230     2.8995150    -0.1925990
  H       -1.2541740     1.1373190     1.4511930
  H       -2.4205700    -1.7983260    -1.4636490
  H       -3.6394530     1.7093650     1.8355280
  H       -4.8171580    -1.1915530    -1.1177270
  H        4.4331860    -1.7182640    -0.3623870
  H        3.8136890    -3.0019290     0.7024740
  H        4.3131750    -1.4541550     1.3926990
  H       -5.4217990     0.5615290     0.5392290
units angstrom
no_reorient  #important for SAPT in psi4, default
symmetry c1  #important for SAPT in psi4, default
}

set PROPERTIES_ORIGIN ["COM"]
properties('MP2/aug-cc-pvtz', properties = ['dipole'])
--------------------------------------------------------------------------

    Molecular point group: c1
  Charge       = 0
  Multiplicity = 1
  Basis Set: AUG-CC-PVTZ
    Blend: AUG-CC-PVTZ
  Basis Set: (AUG-CC-PVTZ AUX)
    Blend: AUG-CC-PVTZ-JKFIT

    Orbital Energies [Eh]
    ---------------------

    Doubly Occupied:

       1A    -20.540421     2A    -15.558382     3A    -11.341227
       4A    -11.295242     5A    -11.254452     6A    -11.253718
       7A    -11.253396     8A    -11.251902     9A    -11.250647
      10A    -11.249957    11A    -11.247504    12A    -11.245364
      13A    -11.243941    14A    -11.240033    15A    -11.227746
      16A    -11.227464    17A     -1.372856    18A     -1.236945
      19A     -1.164010    20A     -1.143460    21A     -1.057224
      22A     -1.026050    23A     -1.021131    24A     -1.012087
      25A     -0.925736    26A     -0.890002    27A     -0.845919
      28A     -0.835106    29A     -0.807438    30A     -0.771973
      31A     -0.718677    32A     -0.699986    33A     -0.682554
      34A     -0.655895    35A     -0.645024    36A     -0.633083
      37A     -0.620220    38A     -0.612842    39A     -0.608089
      40A     -0.601715    41A     -0.596492    42A     -0.577201
      43A     -0.545546    44A     -0.540977    45A     -0.530259
      46A     -0.520937    47A     -0.513236    48A     -0.504428
      49A     -0.501603    50A     -0.486778    51A     -0.425768
      52A     -0.420155    53A     -0.351295    54A     -0.345538
      55A     -0.343728    56A     -0.294572

  @DF-RHF Final Energy:  -667.26207992579839

   => Energetics <=

    Nuclear Repulsion Energy =           1002.4754047560683148
    One-Electron Energy =               -2895.9391056422000474
    Two-Electron Energy =                1226.2016209603334573
    Total Energy =                       -667.2620799257983890
  Basis Set: (AUG-CC-PVTZ AUX)
    Blend: AUG-CC-PVTZ-RI
    Molecular point group: c1

    Geometry (in Angstrom), charge = 0, multiplicity = 1:

       Center              X                  Y                   Z               Mass
    ------------   -----------------  -----------------  -----------------  -----------------
         O           -0.040075807131    -1.997753895705    -0.449990075804    15.994914619570
         N            2.482241192869    -1.471932895705     0.411072924196    14.003074004430
         C            0.834843192869     0.213503104295    -0.208850075804    12.000000000000
         C            2.184498092869    -0.147613195705     0.084685424196    12.000000000000
         C           -0.254124807131    -0.786855895705    -0.254346075804    12.000000000000
         C           -1.666726807131    -0.341978895705    -0.051755075804    12.000000000000
         C            0.559223192869     1.548882104295    -0.555658075804    12.000000000000
         C            3.161319192869     0.839142104295     0.125217924196    12.000000000000
         C            1.552585192869     2.520438104295    -0.554224075804    12.000000000000
         C            2.855207192869     2.154538104295    -0.205043075804    12.000000000000
         C           -2.008786807131     0.643355104295     0.886689924196    12.000000000000
         C           -2.676507807131    -1.013201895705    -0.755765075804    12.000000000000
         C           -3.350701807131     0.958546104295     1.104740924196    12.000000000000
         C           -4.012859807131    -0.677232895705    -0.550544075804    12.000000000000
         C            3.852446192869    -1.921196895705     0.539032924196    12.000000000000
         C           -4.353044807131     0.308691104295     0.380796924196    12.000000000000
         H           -0.454568807131     1.816601104295    -0.839817075804     1.007825032230
         H            4.186577192869     0.582126104295     0.371367924196     1.007825032230
         H            1.804973192869    -2.143115895705     0.064071924196     1.007825032230
         H            1.320744192869     3.543629104295    -0.836534075804     1.007825032230
         H            3.645295192869     2.902511104295    -0.185367075804     1.007825032230
         H           -1.229301807131     1.140315104295     1.458424924196     1.007825032230
         H           -2.395697807131    -1.795329895705    -1.456417075804     1.007825032230
         H           -3.614580807131     1.712361104295     1.842759924196     1.007825032230
         H           -4.792285807131    -1.188556895705    -1.110495075804     1.007825032230
         H            4.458058192869    -1.715267895705    -0.355155075804     1.007825032230
         H            3.838561192869    -2.998932895705     0.709705924196     1.007825032230
         H            4.338047192869    -1.451158895705     1.399930924196     1.007825032230
         H           -5.396926807131     0.564525104295     0.546460924196     1.007825032230

  Basis Set: AUG-CC-PVTZ
    Blend: AUG-CC-PVTZ
  Basis Set: (AUG-CC-PVTZ AUX)
    Blend: AUG-CC-PVTZ-JKFIT
	 Reference Energy          =    -667.2620799257983890 [Eh]
	 Singles Energy            =      -0.0000000000000000 [Eh]
	 Same-Spin Energy          =      -0.7345505454178130 [Eh]
	 Opposite-Spin Energy      =      -2.2652962481157557 [Eh]
	 Correlation Energy        =      -2.9998467935335684 [Eh]
	 Total Energy              =    -670.2619267193319956 [Eh]

	 ================> DF-SCS-MP2 Energies <==================
	-----------------------------------------------------------
	 SCS Same-Spin Scale       =       0.3333333333333333 [-]
	 SCS Opposite-Spin Scale   =       1.2000000000000000 [-]
	 SCS Same-Spin Energy      =      -0.2448501818059377 [Eh]
	 SCS Opposite-Spin Energy  =      -2.7183554977389068 [Eh]
	 SCS Correlation Energy    =      -2.9632056795448447 [Eh]
	 SCS Total Energy          =    -670.2252856053432879 [Eh]
	-----------------------------------------------------------

  Dipole Moment: [D]
     X:     0.2168      Y:     1.3509      Z:     0.3017     Total:     1.4010

*** Psi4 exiting successfully. Buy a developer a beer!
