                               Psi4 1.3.2 release

  ==> Input File <==

--------------------------------------------------------------------------
#psi4
#
memory 32 gb

molecule  {
0 1
  O       -0.0649480    -2.0007500    -0.4572220
  N        2.4573690    -1.4749290     0.4038410
  C        0.8099710     0.2105070    -0.2160820
  C        2.1291975    -0.1798228     0.0807587
  C       -0.2789970    -0.7898520    -0.2615780
  C       -1.6915990    -0.3449750    -0.0589870
  C        0.5343510     1.5458860    -0.5628900
  C        3.1364470     0.8361460     0.1179860
  C        1.5277130     2.5174420    -0.5614560
  C        2.8303350     2.1515420    -0.2122750
  C       -2.0336590     0.6403590     0.8794580
  C       -2.7013800    -1.0161980    -0.7629970
  C       -3.3755740     0.9555500     1.0975090
  C       -4.0377320    -0.6802290    -0.5577760
  C        3.8275740    -1.9241930     0.5318010
  C       -4.3779170     0.3056950     0.3735650
  H       -0.4794410     1.8136050    -0.8470490
  H        4.1617050     0.5791300     0.3641360
  H        1.7801010    -2.1461120     0.0568400
  H        1.2958720     3.5406330    -0.8437660
  H        3.6204230     2.8995150    -0.1925990
  H       -1.2541740     1.1373190     1.4511930
  H       -2.4205700    -1.7983260    -1.4636490
  H       -3.6394530     1.7093650     1.8355280
  H       -4.8171580    -1.1915530    -1.1177270
  H        4.4331860    -1.7182640    -0.3623870
  H        3.8136890    -3.0019290     0.7024740
  H        4.3131750    -1.4541550     1.3926990
  H       -5.4217990     0.5615290     0.5392290
units angstrom
no_reorient  #important for SAPT in psi4, default
symmetry c1  #important for SAPT in psi4, default
}

set PROPERTIES_ORIGIN ["COM"]
properties('MP2/aug-cc-pvtz', properties = ['dipole'])
--------------------------------------------------------------------------

    Molecular point group: c1
  Charge       = 0
  Multiplicity = 1
  Basis Set: AUG-CC-PVTZ
    Blend: AUG-CC-PVTZ
  Basis Set: (AUG-CC-PVTZ AUX)
    Blend: AUG-CC-PVTZ-JKFIT

    Orbital Energies [Eh]
    ---------------------

    Doubly Occupied:

       1A    -20.539985     2A    -15.562092     3A    -11.340044
       4A    -11.297612     5A    -11.257941     6A    -11.252178
       7A    -11.251657     8A    -11.251457     9A    -11.250261
      10A    -11.249277    11A    -11.247042    12A    -11.245006
      13A    -11.243568    14A    -11.236675    15A    -11.231060
      16A    -11.225796    17A     -1.372801    18A     -1.244366
      19A     -1.163578    20A     -1.142132    21A     -1.056224
      22A     -1.025853    23A     -1.021672    24A     -1.008307
      25A     -0.929889    26A     -0.887957    27A     -0.844881
      28A     -0.835067    29A     -0.808701    30A     -0.771651
      31A     -0.717958    32A     -0.700302    33A     -0.684110
      34A     -0.655527    35A     -0.645103    36A     -0.633270
      37A     -0.618652    38A     -0.615576    39A     -0.608092
      40A     -0.601810    41A     -0.596099    42A     -0.578096
      43A     -0.545453    44A     -0.542419    45A     -0.529758
      46A     -0.519803    47A     -0.512995    48A     -0.505718
      49A     -0.501304    50A     -0.486436    51A     -0.429303
      52A     -0.418662    53A     -0.350448    54A     -0.345273
      55A     -0.343249    56A     -0.291827

  @DF-RHF Final Energy:  -667.26233528263845

   => Energetics <=

    Nuclear Repulsion Energy =           1002.7002062753190330
    One-Electron Energy =               -2896.3811313456326388
    Two-Electron Energy =                1226.4185897876752733
    Total Energy =                       -667.2623352826383325
  Basis Set: (AUG-CC-PVTZ AUX)
    Blend: AUG-CC-PVTZ-RI
    Molecular point group: c1

    Geometry (in Angstrom), charge = 0, multiplicity = 1:

       Center              X                  Y                   Z               Mass
    ------------   -----------------  -----------------  -----------------  -----------------
         O           -0.038346099435    -1.996093249211    -0.450177960474    15.994914619570
         N            2.483970900565    -1.470272249211     0.410885039526    14.003074004430
         C            0.836572900565     0.215163750789    -0.209037960474    12.000000000000
         C            2.155799400565    -0.175166049211     0.087802739526    12.000000000000
         C           -0.252395099435    -0.785195249211    -0.254533960474    12.000000000000
         C           -1.664997099435    -0.340318249211    -0.051942960474    12.000000000000
         C            0.560952900565     1.550542750789    -0.555845960474    12.000000000000
         C            3.163048900565     0.840802750789     0.125030039526    12.000000000000
         C            1.554314900565     2.522098750789    -0.554411960474    12.000000000000
         C            2.856936900565     2.156198750789    -0.205230960474    12.000000000000
         C           -2.007057099435     0.645015750789     0.886502039526    12.000000000000
         C           -2.674778099435    -1.011541249211    -0.755952960474    12.000000000000
         C           -3.348972099435     0.960206750789     1.104553039526    12.000000000000
         C           -4.011130099435    -0.675572249211    -0.550731960474    12.000000000000
         C            3.854175900565    -1.919536249211     0.538845039526    12.000000000000
         C           -4.351315099435     0.310351750789     0.380609039526    12.000000000000
         H           -0.452839099435     1.818261750789    -0.840004960474     1.007825032230
         H            4.188306900565     0.583786750789     0.371180039526     1.007825032230
         H            1.806702900565    -2.141455249211     0.063884039526     1.007825032230
         H            1.322473900565     3.545289750789    -0.836721960474     1.007825032230
         H            3.647024900565     2.904171750789    -0.185554960474     1.007825032230
         H           -1.227572099435     1.141975750789     1.458237039526     1.007825032230
         H           -2.393968099435    -1.793669249211    -1.456604960474     1.007825032230
         H           -3.612851099435     1.714021750789     1.842572039526     1.007825032230
         H           -4.790556099435    -1.186896249211    -1.110682960474     1.007825032230
         H            4.459787900565    -1.713607249211    -0.355342960474     1.007825032230
         H            3.840290900565    -2.997272249211     0.709518039526     1.007825032230
         H            4.339776900565    -1.449498249211     1.399743039526     1.007825032230
         H           -5.395197099435     0.566185750789     0.546273039526     1.007825032230

  Basis Set: AUG-CC-PVTZ
    Blend: AUG-CC-PVTZ
  Basis Set: (AUG-CC-PVTZ AUX)
    Blend: AUG-CC-PVTZ-JKFIT
	 Reference Energy          =    -667.2623352826384462 [Eh]
	 Singles Energy            =      -0.0000000000000000 [Eh]
	 Same-Spin Energy          =      -0.7345521171551220 [Eh]
	 Opposite-Spin Energy      =      -2.2653395680601744 [Eh]
	 Correlation Energy        =      -2.9998916852152964 [Eh]
	 Total Energy              =    -670.2622269678537350 [Eh]

	 ================> DF-SCS-MP2 Energies <==================
	-----------------------------------------------------------
	 SCS Same-Spin Scale       =       0.3333333333333333 [-]
	 SCS Opposite-Spin Scale   =       1.2000000000000000 [-]
	 SCS Same-Spin Energy      =      -0.2448507057183740 [Eh]
	 SCS Opposite-Spin Energy  =      -2.7184074816722092 [Eh]
	 SCS Correlation Energy    =      -2.9632581873905832 [Eh]
	 SCS Total Energy          =    -670.2255934700290254 [Eh]
	-----------------------------------------------------------

  Dipole Moment: [D]
     X:     0.3357      Y:     1.1801      Z:     0.3519     Total:     1.2763

*** Psi4 exiting successfully. Buy a developer a beer!
