                               Psi4 1.3.2 release

  ==> Input File <==

--------------------------------------------------------------------------
#psi4
#
memory 32 gb

molecule  {
0 1
  O       -0.0649480    -2.0007500    -0.4572220
  N        2.4656650    -1.4513089     0.4004304
  C        0.8099710     0.2105070    -0.2160820
  C        2.1525410    -0.1743900     0.0797160
  C       -0.2789970    -0.7898520    -0.2615780
  C       -1.6915990    -0.3449750    -0.0589870
  C        0.5343510     1.5458860    -0.5628900
  C        3.1364470     0.8361460     0.1179860
  C        1.5277130     2.5174420    -0.5614560
  C        2.8303350     2.1515420    -0.2122750
  C       -2.0336590     0.6403590     0.8794580
  C       -2.7013800    -1.0161980    -0.7629970
  C       -3.3755740     0.9555500     1.0975090
  C       -4.0377320    -0.6802290    -0.5577760
  C        3.8275740    -1.9241930     0.5318010
  C       -4.3779170     0.3056950     0.3735650
  H       -0.4794410     1.8136050    -0.8470490
  H        4.1617050     0.5791300     0.3641360
  H        1.7801010    -2.1461120     0.0568400
  H        1.2958720     3.5406330    -0.8437660
  H        3.6204230     2.8995150    -0.1925990
  H       -1.2541740     1.1373190     1.4511930
  H       -2.4205700    -1.7983260    -1.4636490
  H       -3.6394530     1.7093650     1.8355280
  H       -4.8171580    -1.1915530    -1.1177270
  H        4.4331860    -1.7182640    -0.3623870
  H        3.8136890    -3.0019290     0.7024740
  H        4.3131750    -1.4541550     1.3926990
  H       -5.4217990     0.5615290     0.5392290
units angstrom
no_reorient  #important for SAPT in psi4, default
symmetry c1  #important for SAPT in psi4, default
}

set PROPERTIES_ORIGIN ["COM"]
properties('MP2/aug-cc-pvtz', properties = ['dipole'])
--------------------------------------------------------------------------

    Molecular point group: c1
  Charge       = 0
  Multiplicity = 1
  Basis Set: AUG-CC-PVTZ
    Blend: AUG-CC-PVTZ
  Basis Set: (AUG-CC-PVTZ AUX)
    Blend: AUG-CC-PVTZ-JKFIT

    Orbital Energies [Eh]
    ---------------------

    Doubly Occupied:

       1A    -20.539290     2A    -15.564311     3A    -11.339723
       4A    -11.296202     5A    -11.258775     6A    -11.252069
       7A    -11.251904     8A    -11.251100     9A    -11.249986
      10A    -11.249011    11A    -11.246756    12A    -11.244709
      13A    -11.243313    14A    -11.237158    15A    -11.227073
      16A    -11.224121    17A     -1.372224    18A     -1.250121
      19A     -1.163203    20A     -1.141094    21A     -1.055525
      22A     -1.025245    23A     -1.020355    24A     -1.009806
      25A     -0.931225    26A     -0.887852    27A     -0.845305
      28A     -0.834444    29A     -0.805776    30A     -0.771660
      31A     -0.717666    32A     -0.701768    33A     -0.683262
      34A     -0.656819    35A     -0.644720    36A     -0.633236
      37A     -0.619048    38A     -0.616939    39A     -0.608041
      40A     -0.601628    41A     -0.595795    42A     -0.576381
      43A     -0.545200    44A     -0.543261    45A     -0.530925
      46A     -0.519825    47A     -0.512878    48A     -0.503156
      49A     -0.500986    50A     -0.486687    51A     -0.431541
      52A     -0.418047    53A     -0.350060    54A     -0.344917
      55A     -0.342951    56A     -0.289522

  @DF-RHF Final Energy:  -667.26201303081348

   => Energetics <=

    Nuclear Repulsion Energy =           1002.8919703806019470
    One-Electron Energy =               -2896.7787746043368315
    Two-Electron Energy =                1226.6247911929215206
    Total Energy =                       -667.2620130308134776
  Basis Set: (AUG-CC-PVTZ AUX)
    Blend: AUG-CC-PVTZ-RI
    Molecular point group: c1

    Geometry (in Angstrom), charge = 0, multiplicity = 1:

       Center              X                  Y                   Z               Mass
    ------------   -----------------  -----------------  -----------------  -----------------
         O           -0.040223371054    -1.997968891772    -0.449892449503    15.994914619570
         N            2.490389628946    -1.448527791772     0.407759950497    14.003074004430
         C            0.834695628946     0.213288108228    -0.208752449503    12.000000000000
         C            2.177265628946    -0.171608891772     0.087045550497    12.000000000000
         C           -0.254272371054    -0.787070891772    -0.254248449503    12.000000000000
         C           -1.666874371054    -0.342193891772    -0.051657449503    12.000000000000
         C            0.559075628946     1.548667108228    -0.555560449503    12.000000000000
         C            3.161171628946     0.838927108228     0.125315550497    12.000000000000
         C            1.552437628946     2.520223108228    -0.554126449503    12.000000000000
         C            2.855059628946     2.154323108228    -0.204945449503    12.000000000000
         C           -2.008934371054     0.643140108228     0.886787550497    12.000000000000
         C           -2.676655371054    -1.013416891772    -0.755667449503    12.000000000000
         C           -3.350849371054     0.958331108228     1.104838550497    12.000000000000
         C           -4.013007371054    -0.677447891772    -0.550446449503    12.000000000000
         C            3.852298628946    -1.921411891772     0.539130550497    12.000000000000
         C           -4.353192371054     0.308476108228     0.380894550497    12.000000000000
         H           -0.454716371054     1.816386108228    -0.839719449503     1.007825032230
         H            4.186429628946     0.581911108228     0.371465550497     1.007825032230
         H            1.804825628946    -2.143330891772     0.064169550497     1.007825032230
         H            1.320596628946     3.543414108228    -0.836436449503     1.007825032230
         H            3.645147628946     2.902296108228    -0.185269449503     1.007825032230
         H           -1.229449371054     1.140100108228     1.458522550497     1.007825032230
         H           -2.395845371054    -1.795544891772    -1.456319449503     1.007825032230
         H           -3.614728371054     1.712146108228     1.842857550497     1.007825032230
         H           -4.792433371054    -1.188771891772    -1.110397449503     1.007825032230
         H            4.457910628946    -1.715482891772    -0.355057449503     1.007825032230
         H            3.838413628946    -2.999147891772     0.709803550497     1.007825032230
         H            4.337899628946    -1.451373891772     1.400028550497     1.007825032230
         H           -5.397074371054     0.564310108228     0.546558550497     1.007825032230

  Basis Set: AUG-CC-PVTZ
    Blend: AUG-CC-PVTZ
  Basis Set: (AUG-CC-PVTZ AUX)
    Blend: AUG-CC-PVTZ-JKFIT
	 Reference Energy          =    -667.2620130308134776 [Eh]
	 Singles Energy            =      -0.0000000000000000 [Eh]
	 Same-Spin Energy          =      -0.7347867887242678 [Eh]
	 Opposite-Spin Energy      =      -2.2654165460943418 [Eh]
	 Correlation Energy        =      -3.0002033348186097 [Eh]
	 Total Energy              =    -670.2622163656320708 [Eh]

	 ================> DF-SCS-MP2 Energies <==================
	-----------------------------------------------------------
	 SCS Same-Spin Scale       =       0.3333333333333333 [-]
	 SCS Opposite-Spin Scale   =       1.2000000000000000 [-]
	 SCS Same-Spin Energy      =      -0.2449289295747559 [Eh]
	 SCS Opposite-Spin Energy  =      -2.7184998553132100 [Eh]
	 SCS Correlation Energy    =      -2.9634287848879661 [Eh]
	 SCS Total Energy          =    -670.2254418157014015 [Eh]
	-----------------------------------------------------------

  Dipole Moment: [D]
     X:     0.3849      Y:     1.0591      Z:     0.3895     Total:     1.1923

*** Psi4 exiting successfully. Buy a developer a beer!
