                               Psi4 1.4a3.dev225

  ==> Input File <==

--------------------------------------------------------------------------
#psi4
#
memory 32 gb

molecule  {
0 1
  O       -0.0649480    -2.0007500    -0.4572220
  N        2.4573690    -1.4749290     0.4038410
  C        0.8099710     0.2105070    -0.2160820
  C        2.1525410    -0.1743900     0.0797160
  C       -0.2789970    -0.7898520    -0.2615780
  C       -1.6915990    -0.3449750    -0.0589870
  C        0.5343510     1.5458860    -0.5628900
  C        3.1364470     0.8361460     0.1179860
  C        1.5277130     2.5174420    -0.5614560
  C        2.8303350     2.1515420    -0.2122750
  C       -2.0214692     0.6052452     0.8460151
  C       -2.7013800    -1.0161980    -0.7629970
  C       -3.3755740     0.9555500     1.0975090
  C       -4.0377320    -0.6802290    -0.5577760
  C        3.8275740    -1.9241930     0.5318010
  C       -4.3779170     0.3056950     0.3735650
  H       -0.4794410     1.8136050    -0.8470490
  H        4.1617050     0.5791300     0.3641360
  H        1.7801010    -2.1461120     0.0568400
  H        1.2958720     3.5406330    -0.8437660
  H        3.6204230     2.8995150    -0.1925990
  H       -1.2541740     1.1373190     1.4511930
  H       -2.4205700    -1.7983260    -1.4636490
  H       -3.6394530     1.7093650     1.8355280
  H       -4.8171580    -1.1915530    -1.1177270
  H        4.4331860    -1.7182640    -0.3623870
  H        3.8136890    -3.0019290     0.7024740
  H        4.3131750    -1.4541550     1.3926990
  H       -5.4217990     0.5615290     0.5392290
units angstrom
no_reorient  #important for SAPT in psi4, default
symmetry c1  #important for SAPT in psi4, default
}

set PROPERTIES_ORIGIN ["COM"]
properties('MP2/aug-cc-pvtz', properties = ['dipole'])
--------------------------------------------------------------------------

    Molecular point group: c1
  Charge       = 0
  Multiplicity = 1
  Basis Set: AUG-CC-PVTZ
    Blend: AUG-CC-PVTZ
  Basis Set: (AUG-CC-PVTZ AUX)
    Blend: AUG-CC-PVTZ-JKFIT

    Orbital Energies [Eh]
    ---------------------

    Doubly Occupied:

       1A    -20.540377     2A    -15.562028     3A    -11.340455
       4A    -11.297331     5A    -11.257167     6A    -11.252725
       7A    -11.252700     8A    -11.250568     9A    -11.249608
      10A    -11.247003    11A    -11.246792    12A    -11.244242
      13A    -11.242789    14A    -11.238637    15A    -11.228909
      16A    -11.225895    17A     -1.373096    18A     -1.244509
      19A     -1.166844    20A     -1.142126    21A     -1.058721
      22A     -1.025215    23A     -1.019325    24A     -1.010062
      25A     -0.929533    26A     -0.887992    27A     -0.842955
      28A     -0.837334    29A     -0.808141    30A     -0.772961
      31A     -0.717797    32A     -0.701164    33A     -0.682178
      34A     -0.656193    35A     -0.644857    36A     -0.634248
      37A     -0.618808    38A     -0.615424    39A     -0.610699
      40A     -0.602117    41A     -0.591559    42A     -0.577792
      43A     -0.544758    44A     -0.542217    45A     -0.530623
      46A     -0.518014    47A     -0.514337    48A     -0.503979
      49A     -0.502516    50A     -0.486600    51A     -0.429298
      52A     -0.418999    53A     -0.352979    54A     -0.348379
      55A     -0.339402    56A     -0.292219

  @DF-RHF Final Energy:  -667.26021185122761

   => Energetics <=

    Nuclear Repulsion Energy =           1003.3036601052330070
    One-Electron Energy =               -2897.5813441090381275
    Two-Electron Energy =                1227.0174721525775112
    Total Energy =                       -667.2602118512274956
  Basis Set: (AUG-CC-PVTZ AUX)
    Blend: AUG-CC-PVTZ-RI
    Molecular point group: c1

    Geometry (in Angstrom), charge = 0, multiplicity = 1:

       Center              X                  Y                   Z               Mass
    ------------   -----------------  -----------------  -----------------  -----------------
         O           -0.040365996060    -1.994406027598    -0.448217620537    15.994914619570
         N            2.481951003940    -1.468585027598     0.412845379463    14.003074004430
         C            0.834553003940     0.216850972402    -0.207077620537    12.000000000000
         C            2.177123003940    -0.168046027598     0.088720379463    12.000000000000
         C           -0.254414996060    -0.783508027598    -0.252573620537    12.000000000000
         C           -1.667016996060    -0.338631027598    -0.049982620537    12.000000000000
         C            0.558933003940     1.552229972402    -0.553885620537    12.000000000000
         C            3.161029003940     0.842489972402     0.126990379463    12.000000000000
         C            1.552295003940     2.523785972402    -0.552451620537    12.000000000000
         C            2.854917003940     2.157885972402    -0.203270620537    12.000000000000
         C           -1.996887196060     0.611589172402     0.855019479463    12.000000000000
         C           -2.676797996060    -1.009854027598    -0.753992620537    12.000000000000
         C           -3.350991996060     0.961893972402     1.106513379463    12.000000000000
         C           -4.013149996060    -0.673885027598    -0.548771620537    12.000000000000
         C            3.852156003940    -1.917849027598     0.540805379463    12.000000000000
         C           -4.353334996060     0.312038972402     0.382569379463    12.000000000000
         H           -0.454858996060     1.819948972402    -0.838044620537     1.007825032230
         H            4.186287003940     0.585473972402     0.373140379463     1.007825032230
         H            1.804683003940    -2.139768027598     0.065844379463     1.007825032230
         H            1.320454003940     3.546976972402    -0.834761620537     1.007825032230
         H            3.645005003940     2.905858972402    -0.183594620537     1.007825032230
         H           -1.229591996060     1.143662972402     1.460197379463     1.007825032230
         H           -2.395987996060    -1.791982027598    -1.454644620537     1.007825032230
         H           -3.614870996060     1.715708972402     1.844532379463     1.007825032230
         H           -4.792575996060    -1.185209027598    -1.108722620537     1.007825032230
         H            4.457768003940    -1.711920027598    -0.353382620537     1.007825032230
         H            3.838271003940    -2.995585027598     0.711478379463     1.007825032230
         H            4.337757003940    -1.447811027598     1.401703379463     1.007825032230
         H           -5.397216996060     0.567872972402     0.548233379463     1.007825032230

  Basis Set: AUG-CC-PVTZ
    Blend: AUG-CC-PVTZ
  Basis Set: (AUG-CC-PVTZ AUX)
    Blend: AUG-CC-PVTZ-JKFIT
	 Reference Energy          =    -667.2602118512276093 [Eh]
	 Singles Energy            =      -0.0000000000000000 [Eh]
	 Same-Spin Energy          =      -0.7344944313402449 [Eh]
	 Opposite-Spin Energy      =      -2.2652352471185044 [Eh]
	 Correlation Energy        =      -2.9997296784587495 [Eh]
	 Total Energy              =    -670.2599415296863299 [Eh]

	 ================> DF-SCS-MP2 Energies <==================
	-----------------------------------------------------------
	 SCS Same-Spin Scale       =       0.3333333333333333 [-]
	 SCS Opposite-Spin Scale   =       1.2000000000000000 [-]
	 SCS Same-Spin Energy      =      -0.2448314771134150 [Eh]
	 SCS Opposite-Spin Energy  =      -2.7182822965422053 [Eh]
	 SCS Correlation Energy    =      -2.9631137736556203 [Eh]
	 SCS Total Energy          =    -670.2233256248832731 [Eh]
	-----------------------------------------------------------

  Dipole Moment: [D]
     X:     0.3362      Y:     1.2095      Z:     0.3527     Total:     1.3040

*** Psi4 exiting successfully. Buy a developer a beer!
