                               Psi4 1.3.2 release

  ==> Input File <==

--------------------------------------------------------------------------
#psi4
#
memory 32 gb

molecule  {
0 1
  O       -0.0649480    -2.0007500    -0.4572220
  N        2.4342253    -1.4807458     0.4013794
  C        0.8099710     0.2105070    -0.2160820
  C        2.1525410    -0.1743900     0.0797160
  C       -0.2789970    -0.7898520    -0.2615780
  C       -1.6915990    -0.3449750    -0.0589870
  C        0.5343510     1.5458860    -0.5628900
  C        3.1364470     0.8361460     0.1179860
  C        1.5277130     2.5174420    -0.5614560
  C        2.8303350     2.1515420    -0.2122750
  C       -2.0336590     0.6403590     0.8794580
  C       -2.7013800    -1.0161980    -0.7629970
  C       -3.3755740     0.9555500     1.0975090
  C       -4.0377320    -0.6802290    -0.5577760
  C        3.8275740    -1.9241930     0.5318010
  C       -4.3779170     0.3056950     0.3735650
  H       -0.4794410     1.8136050    -0.8470490
  H        4.1617050     0.5791300     0.3641360
  H        1.7801010    -2.1461120     0.0568400
  H        1.2958720     3.5406330    -0.8437660
  H        3.6204230     2.8995150    -0.1925990
  H       -1.2541740     1.1373190     1.4511930
  H       -2.4205700    -1.7983260    -1.4636490
  H       -3.6394530     1.7093650     1.8355280
  H       -4.8171580    -1.1915530    -1.1177270
  H        4.4331860    -1.7182640    -0.3623870
  H        3.8136890    -3.0019290     0.7024740
  H        4.3131750    -1.4541550     1.3926990
  H       -5.4217990     0.5615290     0.5392290
units angstrom
no_reorient  #important for SAPT in psi4, default
symmetry c1  #important for SAPT in psi4, default
}

set PROPERTIES_ORIGIN ["COM"]
properties('MP2/aug-cc-pvtz', properties = ['dipole'])
--------------------------------------------------------------------------

    Molecular point group: c1
  Charge       = 0
  Multiplicity = 1
  Basis Set: AUG-CC-PVTZ
    Blend: AUG-CC-PVTZ
  Basis Set: (AUG-CC-PVTZ AUX)
    Blend: AUG-CC-PVTZ-JKFIT

    Orbital Energies [Eh]
    ---------------------

    Doubly Occupied:

       1A    -20.539223     2A    -15.561340     3A    -11.339705
       4A    -11.297074     5A    -11.258596     6A    -11.252845
       7A    -11.252360     8A    -11.251183     9A    -11.250035
      10A    -11.249109    11A    -11.246804    12A    -11.244780
      13A    -11.243361    14A    -11.238028    15A    -11.229389
      16A    -11.225905    17A     -1.372127    18A     -1.242820
      19A     -1.163294    20A     -1.141515    21A     -1.055961
      22A     -1.025315    23A     -1.020323    24A     -1.008817
      25A     -0.930045    26A     -0.889243    27A     -0.844922
      28A     -0.834302    29A     -0.809098    30A     -0.771549
      31A     -0.718018    32A     -0.703170    33A     -0.683143
      34A     -0.655047    35A     -0.644388    36A     -0.633436
      37A     -0.619058    38A     -0.613224    39A     -0.607368
      40A     -0.600769    41A     -0.595883    42A     -0.575883
      43A     -0.544929    44A     -0.543542    45A     -0.531307
      46A     -0.520667    47A     -0.512922    48A     -0.503119
      49A     -0.501015    50A     -0.486362    51A     -0.430703
      52A     -0.419134    53A     -0.350397    54A     -0.344904
      55A     -0.343051    56A     -0.292602

  @DF-RHF Final Energy:  -667.26252876218336

   => Energetics <=

    Nuclear Repulsion Energy =           1002.5716313271664148
    One-Electron Energy =               -2896.1421071435042904
    Two-Electron Energy =                1226.3079470541545106
    Total Energy =                       -667.2625287621833650
  Basis Set: (AUG-CC-PVTZ AUX)
    Blend: AUG-CC-PVTZ-RI
    Molecular point group: c1

    Geometry (in Angstrom), charge = 0, multiplicity = 1:

       Center              X                  Y                   Z               Mass
    ------------   -----------------  -----------------  -----------------  -----------------
         O           -0.038137852143    -1.996016226460    -0.449955400405    15.994914619570
         N            2.461035447857    -1.476012026460     0.408645999595    14.003074004430
         C            0.836781147857     0.215240773540    -0.208815400405    12.000000000000
         C            2.179351147857    -0.169656226460     0.086982599595    12.000000000000
         C           -0.252186852143    -0.785118226460    -0.254311400405    12.000000000000
         C           -1.664788852143    -0.340241226460    -0.051720400405    12.000000000000
         C            0.561161147857     1.550619773540    -0.555623400405    12.000000000000
         C            3.163257147857     0.840879773540     0.125252599595    12.000000000000
         C            1.554523147857     2.522175773540    -0.554189400405    12.000000000000
         C            2.857145147857     2.156275773540    -0.205008400405    12.000000000000
         C           -2.006848852143     0.645092773540     0.886724599595    12.000000000000
         C           -2.674569852143    -1.011464226460    -0.755730400405    12.000000000000
         C           -3.348763852143     0.960283773540     1.104775599595    12.000000000000
         C           -4.010921852143    -0.675495226460    -0.550509400405    12.000000000000
         C            3.854384147857    -1.919459226460     0.539067599595    12.000000000000
         C           -4.351106852143     0.310428773540     0.380831599595    12.000000000000
         H           -0.452630852143     1.818338773540    -0.839782400405     1.007825032230
         H            4.188515147857     0.583863773540     0.371402599595     1.007825032230
         H            1.806911147857    -2.141378226460     0.064106599595     1.007825032230
         H            1.322682147857     3.545366773540    -0.836499400405     1.007825032230
         H            3.647233147857     2.904248773540    -0.185332400405     1.007825032230
         H           -1.227363852143     1.142052773540     1.458459599595     1.007825032230
         H           -2.393759852143    -1.793592226460    -1.456382400405     1.007825032230
         H           -3.612642852143     1.714098773540     1.842794599595     1.007825032230
         H           -4.790347852143    -1.186819226460    -1.110460400405     1.007825032230
         H            4.459996147857    -1.713530226460    -0.355120400405     1.007825032230
         H            3.840499147857    -2.997195226460     0.709740599595     1.007825032230
         H            4.339985147857    -1.449421226460     1.399965599595     1.007825032230
         H           -5.394988852143     0.566262773540     0.546495599595     1.007825032230

  Basis Set: AUG-CC-PVTZ
    Blend: AUG-CC-PVTZ
  Basis Set: (AUG-CC-PVTZ AUX)
    Blend: AUG-CC-PVTZ-JKFIT
	 Reference Energy          =    -667.2625287621833650 [Eh]
	 Singles Energy            =      -0.0000000000000000 [Eh]
	 Same-Spin Energy          =      -0.7343958592338421 [Eh]
	 Opposite-Spin Energy      =      -2.2651489390550821 [Eh]
	 Correlation Energy        =      -2.9995447982889241 [Eh]
	 Total Energy              =    -670.2620735604723450 [Eh]

	 ================> DF-SCS-MP2 Energies <==================
	-----------------------------------------------------------
	 SCS Same-Spin Scale       =       0.3333333333333333 [-]
	 SCS Opposite-Spin Scale   =       1.2000000000000000 [-]
	 SCS Same-Spin Energy      =      -0.2447986197446140 [Eh]
	 SCS Opposite-Spin Energy  =      -2.7181787268660984 [Eh]
	 SCS Correlation Energy    =      -2.9629773466107125 [Eh]
	 SCS Total Energy          =    -670.2255061087940931 [Eh]
	-----------------------------------------------------------

  Dipole Moment: [D]
     X:     0.3769      Y:     1.2118      Z:     0.3413     Total:     1.3142

*** Psi4 exiting successfully. Buy a developer a beer!
