                               Psi4 1.3.2 release

  ==> Input File <==

--------------------------------------------------------------------------
#psi4
#
memory 32 gb

molecule  {
0 1
  O       -0.0649480    -2.0007500    -0.4572220
  N        2.4573690    -1.4749290     0.4038410
  C        0.8764858     0.1335870    -0.2340245
  C        2.1525410    -0.1743900     0.0797160
  C       -0.2789970    -0.7898520    -0.2615780
  C       -1.6915990    -0.3449750    -0.0589870
  C        0.5343510     1.5458860    -0.5628900
  C        3.1364470     0.8361460     0.1179860
  C        1.5277130     2.5174420    -0.5614560
  C        2.8303350     2.1515420    -0.2122750
  C       -2.0336590     0.6403590     0.8794580
  C       -2.7013800    -1.0161980    -0.7629970
  C       -3.3755740     0.9555500     1.0975090
  C       -4.0377320    -0.6802290    -0.5577760
  C        3.8275740    -1.9241930     0.5318010
  C       -4.3779170     0.3056950     0.3735650
  H       -0.4794410     1.8136050    -0.8470490
  H        4.1617050     0.5791300     0.3641360
  H        1.7801010    -2.1461120     0.0568400
  H        1.2958720     3.5406330    -0.8437660
  H        3.6204230     2.8995150    -0.1925990
  H       -1.2541740     1.1373190     1.4511930
  H       -2.4205700    -1.7983260    -1.4636490
  H       -3.6394530     1.7093650     1.8355280
  H       -4.8171580    -1.1915530    -1.1177270
  H        4.4331860    -1.7182640    -0.3623870
  H        3.8136890    -3.0019290     0.7024740
  H        4.3131750    -1.4541550     1.3926990
  H       -5.4217990     0.5615290     0.5392290
units angstrom
no_reorient  #important for SAPT in psi4, default
symmetry c1  #important for SAPT in psi4, default
}

set PROPERTIES_ORIGIN ["COM"]
properties('MP2/aug-cc-pvtz', properties = ['dipole'])
--------------------------------------------------------------------------

    Molecular point group: c1
  Charge       = 0
  Multiplicity = 1
  Basis Set: AUG-CC-PVTZ
    Blend: AUG-CC-PVTZ
  Basis Set: (AUG-CC-PVTZ AUX)
    Blend: AUG-CC-PVTZ-JKFIT

    Orbital Energies [Eh]
    ---------------------

    Doubly Occupied:

       1A    -20.536887     2A    -15.555733     3A    -11.339424
       4A    -11.287390     5A    -11.257693     6A    -11.254521
       7A    -11.252981     8A    -11.252717     9A    -11.251828
      10A    -11.251178    11A    -11.248488    12A    -11.245820
      13A    -11.244488    14A    -11.236124    15A    -11.232359
      16A    -11.228654    17A     -1.371949    18A     -1.245006
      19A     -1.163948    20A     -1.138510    21A     -1.053492
      22A     -1.027452    23A     -1.024116    24A     -1.008584
      25A     -0.926349    26A     -0.887490    27A     -0.848371
      28A     -0.837394    29A     -0.807856    30A     -0.771141
      31A     -0.719897    32A     -0.698303    33A     -0.681467
      34A     -0.659397    35A     -0.646007    36A     -0.633369
      37A     -0.621140    38A     -0.614228    39A     -0.608109
      40A     -0.599836    41A     -0.595704    42A     -0.572181
      43A     -0.546060    44A     -0.541488    45A     -0.527935
      46A     -0.520376    47A     -0.513450    48A     -0.506307
      49A     -0.500812    50A     -0.485487    51A     -0.427346
      52A     -0.418438    53A     -0.347956    54A     -0.345081
      55A     -0.338406    56A     -0.298545

  @DF-RHF Final Energy:  -667.25161873303955

   => Energetics <=

    Nuclear Repulsion Energy =           1002.6440978901410972
    One-Electron Energy =               -2896.2808992023756218
    Two-Electron Energy =                1226.3851825791950887
    Total Energy =                       -667.2516187330395496
  Basis Set: (AUG-CC-PVTZ AUX)
    Blend: AUG-CC-PVTZ-RI
    Molecular point group: c1

    Geometry (in Angstrom), charge = 0, multiplicity = 1:

       Center              X                  Y                   Z               Mass
    ------------   -----------------  -----------------  -----------------  -----------------
         O           -0.043454110144    -1.992029546880    -0.449098743474    15.994914619570
         N            2.478862889856    -1.466208546880     0.411964256526    14.003074004430
         C            0.897979689856     0.142307453120    -0.225901243474    12.000000000000
         C            2.174034889856    -0.165669546880     0.087839256526    12.000000000000
         C           -0.257503110144    -0.781131546880    -0.253454743474    12.000000000000
         C           -1.670105110144    -0.336254546880    -0.050863743474    12.000000000000
         C            0.555844889856     1.554606453120    -0.554766743474    12.000000000000
         C            3.157940889856     0.844866453120     0.126109256526    12.000000000000
         C            1.549206889856     2.526162453120    -0.553332743474    12.000000000000
         C            2.851828889856     2.160262453120    -0.204151743474    12.000000000000
         C           -2.012165110144     0.649079453120     0.887581256526    12.000000000000
         C           -2.679886110144    -1.007477546880    -0.754873743474    12.000000000000
         C           -3.354080110144     0.964270453120     1.105632256526    12.000000000000
         C           -4.016238110144    -0.671508546880    -0.549652743474    12.000000000000
         C            3.849067889856    -1.915472546880     0.539924256526    12.000000000000
         C           -4.356423110144     0.314415453120     0.381688256526    12.000000000000
         H           -0.457947110144     1.822325453120    -0.838925743474     1.007825032230
         H            4.183198889856     0.587850453120     0.372259256526     1.007825032230
         H            1.801594889856    -2.137391546880     0.064963256526     1.007825032230
         H            1.317365889856     3.549353453120    -0.835642743474     1.007825032230
         H            3.641916889856     2.908235453120    -0.184475743474     1.007825032230
         H           -1.232680110144     1.146039453120     1.459316256526     1.007825032230
         H           -2.399076110144    -1.789605546880    -1.455525743474     1.007825032230
         H           -3.617959110144     1.718085453120     1.843651256526     1.007825032230
         H           -4.795664110144    -1.182832546880    -1.109603743474     1.007825032230
         H            4.454679889856    -1.709543546880    -0.354263743474     1.007825032230
         H            3.835182889856    -2.993208546880     0.710597256526     1.007825032230
         H            4.334668889856    -1.445434546880     1.400822256526     1.007825032230
         H           -5.400305110144     0.570249453120     0.547352256526     1.007825032230

  Basis Set: AUG-CC-PVTZ
    Blend: AUG-CC-PVTZ
  Basis Set: (AUG-CC-PVTZ AUX)
    Blend: AUG-CC-PVTZ-JKFIT
	 Reference Energy          =    -667.2516187330395496 [Eh]
	 Singles Energy            =      -0.0000000000000000 [Eh]
	 Same-Spin Energy          =      -0.7344141899934002 [Eh]
	 Opposite-Spin Energy      =      -2.2660941639944867 [Eh]
	 Correlation Energy        =      -3.0005083539878870 [Eh]
	 Total Energy              =    -670.2521270870274748 [Eh]

	 ================> DF-SCS-MP2 Energies <==================
	-----------------------------------------------------------
	 SCS Same-Spin Scale       =       0.3333333333333333 [-]
	 SCS Opposite-Spin Scale   =       1.2000000000000000 [-]
	 SCS Same-Spin Energy      =      -0.2448047299978001 [Eh]
	 SCS Opposite-Spin Energy  =      -2.7193129967933838 [Eh]
	 SCS Correlation Energy    =      -2.9641177267911840 [Eh]
	 SCS Total Energy          =    -670.2157364598307367 [Eh]
	-----------------------------------------------------------

  Dipole Moment: [D]
     X:     0.2212      Y:     1.3724      Z:     0.3319     Total:     1.4292

*** Psi4 exiting successfully. Buy a developer a beer!
