                               Psi4 1.3.2 release

  ==> Input File <==

--------------------------------------------------------------------------
#psi4
#
memory 32 gb

molecule  {
0 1
  O       -0.0649480    -2.0007500    -0.4572220
  N        2.5133129    -1.3355117     0.3839982
  C        0.8099710     0.2105070    -0.2160820
  C        2.1525410    -0.1743900     0.0797160
  C       -0.2789970    -0.7898520    -0.2615780
  C       -1.6915990    -0.3449750    -0.0589870
  C        0.5343510     1.5458860    -0.5628900
  C        3.1364470     0.8361460     0.1179860
  C        1.5277130     2.5174420    -0.5614560
  C        2.8303350     2.1515420    -0.2122750
  C       -2.0336590     0.6403590     0.8794580
  C       -2.7013800    -1.0161980    -0.7629970
  C       -3.3755740     0.9555500     1.0975090
  C       -4.0377320    -0.6802290    -0.5577760
  C        3.8275740    -1.9241930     0.5318010
  C       -4.3779170     0.3056950     0.3735650
  H       -0.4794410     1.8136050    -0.8470490
  H        4.1617050     0.5791300     0.3641360
  H        1.7801010    -2.1461120     0.0568400
  H        1.2958720     3.5406330    -0.8437660
  H        3.6204230     2.8995150    -0.1925990
  H       -1.2541740     1.1373190     1.4511930
  H       -2.4205700    -1.7983260    -1.4636490
  H       -3.6394530     1.7093650     1.8355280
  H       -4.8171580    -1.1915530    -1.1177270
  H        4.4331860    -1.7182640    -0.3623870
  H        3.8136890    -3.0019290     0.7024740
  H        4.3131750    -1.4541550     1.3926990
  H       -5.4217990     0.5615290     0.5392290
units angstrom
no_reorient  #important for SAPT in psi4, default
symmetry c1  #important for SAPT in psi4, default
}

set PROPERTIES_ORIGIN ["COM"]
properties('MP2/aug-cc-pvtz', properties = ['dipole'])
--------------------------------------------------------------------------

    Molecular point group: c1
  Charge       = 0
  Multiplicity = 1
  Basis Set: AUG-CC-PVTZ
    Blend: AUG-CC-PVTZ
  Basis Set: (AUG-CC-PVTZ AUX)
    Blend: AUG-CC-PVTZ-JKFIT

    Orbital Energies [Eh]
    ---------------------

    Doubly Occupied:

       1A    -20.536843     2A    -15.576752     3A    -11.337265
       4A    -11.289830     5A    -11.269547     6A    -11.249371
       7A    -11.248902     8A    -11.248572     9A    -11.247575
      10A    -11.247203    11A    -11.245215    12A    -11.243254
      13A    -11.241967    14A    -11.229437    15A    -11.217752
      16A    -11.214720    17A     -1.370654    18A     -1.284127
      19A     -1.161455    20A     -1.135992    21A     -1.052382
      22A     -1.023797    23A     -1.020009    24A     -1.010589
      25A     -0.940894    26A     -0.883465    27A     -0.845985
      28A     -0.833659    29A     -0.797506    30A     -0.771319
      31A     -0.716218    32A     -0.702337    33A     -0.682298
      34A     -0.663574    35A     -0.643124    36A     -0.632876
      37A     -0.629789    38A     -0.616713    39A     -0.608599
      40A     -0.601440    41A     -0.594346    42A     -0.576592
      43A     -0.545756    44A     -0.540274    45A     -0.527599
      46A     -0.519430    47A     -0.512024    48A     -0.499577
      49A     -0.495849    50A     -0.487852    51A     -0.440885
      52A     -0.410938    53A     -0.347702    54A     -0.343586
      55A     -0.341325    56A     -0.277096

  @DF-RHF Final Energy:  -667.23212660513468

   => Energetics <=

    Nuclear Repulsion Energy =           1004.7643319893201124
    One-Electron Energy =               -2900.5252468729904649
    Two-Electron Energy =                1228.5287882785357851
    Total Energy =                       -667.2321266051346811
  Basis Set: (AUG-CC-PVTZ AUX)
    Blend: AUG-CC-PVTZ-RI
    Molecular point group: c1

    Geometry (in Angstrom), charge = 0, multiplicity = 1:

       Center              X                  Y                   Z               Mass
    ------------   -----------------  -----------------  -----------------  -----------------
         O           -0.043384043596    -2.005650175323    -0.448802437072    15.994914619570
         N            2.534876856404    -1.340411875323     0.392417762928    14.003074004430
         C            0.831534956404     0.205606824677    -0.207662437072    12.000000000000
         C            2.174104956404    -0.179290175323     0.088135562928    12.000000000000
         C           -0.257433043596    -0.794752175323    -0.253158437072    12.000000000000
         C           -1.670035043596    -0.349875175323    -0.050567437072    12.000000000000
         C            0.555914956404     1.540985824677    -0.554470437072    12.000000000000
         C            3.158010956404     0.831245824677     0.126405562928    12.000000000000
         C            1.549276956404     2.512541824677    -0.553036437072    12.000000000000
         C            2.851898956404     2.146641824677    -0.203855437072    12.000000000000
         C           -2.012095043596     0.635458824677     0.887877562928    12.000000000000
         C           -2.679816043596    -1.021098175323    -0.754577437072    12.000000000000
         C           -3.354010043596     0.950649824677     1.105928562928    12.000000000000
         C           -4.016168043596    -0.685129175323    -0.549356437072    12.000000000000
         C            3.849137956404    -1.929093175323     0.540220562928    12.000000000000
         C           -4.356353043596     0.300794824677     0.381984562928    12.000000000000
         H           -0.457877043596     1.808704824677    -0.838629437072     1.007825032230
         H            4.183268956404     0.574229824677     0.372555562928     1.007825032230
         H            1.801664956404    -2.151012175323     0.065259562928     1.007825032230
         H            1.317435956404     3.535732824677    -0.835346437072     1.007825032230
         H            3.641986956404     2.894614824677    -0.184179437072     1.007825032230
         H           -1.232610043596     1.132418824677     1.459612562928     1.007825032230
         H           -2.399006043596    -1.803226175323    -1.455229437072     1.007825032230
         H           -3.617889043596     1.704464824677     1.843947562928     1.007825032230
         H           -4.795594043596    -1.196453175323    -1.109307437072     1.007825032230
         H            4.454749956404    -1.723164175323    -0.353967437072     1.007825032230
         H            3.835252956404    -3.006829175323     0.710893562928     1.007825032230
         H            4.334738956404    -1.459055175323     1.401118562928     1.007825032230
         H           -5.400235043596     0.556628824677     0.547648562928     1.007825032230

  Basis Set: AUG-CC-PVTZ
    Blend: AUG-CC-PVTZ
  Basis Set: (AUG-CC-PVTZ AUX)
    Blend: AUG-CC-PVTZ-JKFIT
	 Reference Energy          =    -667.2321266051346811 [Eh]
	 Singles Energy            =      -0.0000000000000000 [Eh]
	 Same-Spin Energy          =      -0.7360081042831499 [Eh]
	 Opposite-Spin Energy      =      -2.2673070016709360 [Eh]
	 Correlation Energy        =      -3.0033151059540861 [Eh]
	 Total Energy              =    -670.2354417110888107 [Eh]

	 ================> DF-SCS-MP2 Energies <==================
	-----------------------------------------------------------
	 SCS Same-Spin Scale       =       0.3333333333333333 [-]
	 SCS Opposite-Spin Scale   =       1.2000000000000000 [-]
	 SCS Same-Spin Energy      =      -0.2453360347610500 [Eh]
	 SCS Opposite-Spin Energy  =      -2.7207684020051230 [Eh]
	 SCS Correlation Energy    =      -2.9661044367661731 [Eh]
	 SCS Total Energy          =    -670.1982310419008400 [Eh]
	-----------------------------------------------------------

  Dipole Moment: [D]
     X:     0.7631      Y:     0.3364      Z:     0.6131     Total:     1.0351

*** Psi4 exiting successfully. Buy a developer a beer!
