                               Psi4 1.3.2 release

  ==> Input File <==

--------------------------------------------------------------------------
#psi4
#
memory 32 gb

molecule  {
0 1
  O       -0.0649480    -2.0007500    -0.4572220
  N        2.4109959    -1.4861646     0.3988199
  C        0.8099710     0.2105070    -0.2160820
  C        2.1525410    -0.1743900     0.0797160
  C       -0.2789970    -0.7898520    -0.2615780
  C       -1.6915990    -0.3449750    -0.0589870
  C        0.5343510     1.5458860    -0.5628900
  C        3.1364470     0.8361460     0.1179860
  C        1.5277130     2.5174420    -0.5614560
  C        2.8303350     2.1515420    -0.2122750
  C       -2.0336590     0.6403590     0.8794580
  C       -2.7013800    -1.0161980    -0.7629970
  C       -3.3755740     0.9555500     1.0975090
  C       -4.0377320    -0.6802290    -0.5577760
  C        3.8275740    -1.9241930     0.5318010
  C       -4.3779170     0.3056950     0.3735650
  H       -0.4794410     1.8136050    -0.8470490
  H        4.1617050     0.5791300     0.3641360
  H        1.7801010    -2.1461120     0.0568400
  H        1.2958720     3.5406330    -0.8437660
  H        3.6204230     2.8995150    -0.1925990
  H       -1.2541740     1.1373190     1.4511930
  H       -2.4205700    -1.7983260    -1.4636490
  H       -3.6394530     1.7093650     1.8355280
  H       -4.8171580    -1.1915530    -1.1177270
  H        4.4331860    -1.7182640    -0.3623870
  H        3.8136890    -3.0019290     0.7024740
  H        4.3131750    -1.4541550     1.3926990
  H       -5.4217990     0.5615290     0.5392290
units angstrom
no_reorient  #important for SAPT in psi4, default
symmetry c1  #important for SAPT in psi4, default
}

set PROPERTIES_ORIGIN ["COM"]
properties('MP2/aug-cc-pvtz', properties = ['dipole'])
--------------------------------------------------------------------------

    Molecular point group: c1
  Charge       = 0
  Multiplicity = 1
  Basis Set: AUG-CC-PVTZ
    Blend: AUG-CC-PVTZ
  Basis Set: (AUG-CC-PVTZ AUX)
    Blend: AUG-CC-PVTZ-JKFIT

    Orbital Energies [Eh]
    ---------------------

    Doubly Occupied:

       1A    -20.538735     2A    -15.560720     3A    -11.339281
       4A    -11.296995     5A    -11.260063     6A    -11.253023
       7A    -11.252102     8A    -11.250974     9A    -11.249845
      10A    -11.248902    11A    -11.246593    12A    -11.244605
      13A    -11.243183    14A    -11.237477    15A    -11.229897
      16A    -11.225921    17A     -1.371781    18A     -1.241496
      19A     -1.163083    20A     -1.141041    21A     -1.055823
      22A     -1.025110    23A     -1.020047    24A     -1.007756
      25A     -0.930661    26A     -0.889710    27A     -0.844688
      28A     -0.834046    29A     -0.810801    30A     -0.771553
      31A     -0.718183    32A     -0.704895    33A     -0.682755
      34A     -0.654408    35A     -0.643740    36A     -0.633575
      37A     -0.618921    38A     -0.611363    39A     -0.606630
      40A     -0.600119    41A     -0.595711    42A     -0.574158
      43A     -0.544957    44A     -0.544280    45A     -0.531660
      46A     -0.520882    47A     -0.512999    48A     -0.502201
      49A     -0.500706    50A     -0.486183    51A     -0.431999
      52A     -0.419130    53A     -0.350294    54A     -0.344664
      55A     -0.342876    56A     -0.293082

  @DF-RHF Final Energy:  -667.26051134625845

   => Energetics <=

    Nuclear Repulsion Energy =           1002.6433273039693859
    One-Electron Energy =               -2896.2951135220232572
    Two-Electron Energy =                1226.3912748717955310
    Total Energy =                       -667.2605113462584541
  Basis Set: (AUG-CC-PVTZ AUX)
    Blend: AUG-CC-PVTZ-RI
    Molecular point group: c1

    Geometry (in Angstrom), charge = 0, multiplicity = 1:

       Center              X                  Y                   Z               Mass
    ------------   -----------------  -----------------  -----------------  -----------------
         O           -0.036596954711    -1.995656776151    -0.449785618706    15.994914619570
         N            2.439346945289    -1.481071376151     0.406256281294    14.003074004430
         C            0.838322045289     0.215600223849    -0.208645618706    12.000000000000
         C            2.180892045289    -0.169296776151     0.087152381294    12.000000000000
         C           -0.250645954711    -0.784758776151    -0.254141618706    12.000000000000
         C           -1.663247954711    -0.339881776151    -0.051550618706    12.000000000000
         C            0.562702045289     1.550979223849    -0.555453618706    12.000000000000
         C            3.164798045289     0.841239223849     0.125422381294    12.000000000000
         C            1.556064045289     2.522535223849    -0.554019618706    12.000000000000
         C            2.858686045289     2.156635223849    -0.204838618706    12.000000000000
         C           -2.005307954711     0.645452223849     0.886894381294    12.000000000000
         C           -2.673028954711    -1.011104776151    -0.755560618706    12.000000000000
         C           -3.347222954711     0.960643223849     1.104945381294    12.000000000000
         C           -4.009380954711    -0.675135776151    -0.550339618706    12.000000000000
         C            3.855925045289    -1.919099776151     0.539237381294    12.000000000000
         C           -4.349565954711     0.310788223849     0.381001381294    12.000000000000
         H           -0.451089954711     1.818698223849    -0.839612618706     1.007825032230
         H            4.190056045289     0.584223223849     0.371572381294     1.007825032230
         H            1.808452045289    -2.141018776151     0.064276381294     1.007825032230
         H            1.324223045289     3.545726223849    -0.836329618706     1.007825032230
         H            3.648774045289     2.904608223849    -0.185162618706     1.007825032230
         H           -1.225822954711     1.142412223849     1.458629381294     1.007825032230
         H           -2.392218954711    -1.793232776151    -1.456212618706     1.007825032230
         H           -3.611101954711     1.714458223849     1.842964381294     1.007825032230
         H           -4.788806954711    -1.186459776151    -1.110290618706     1.007825032230
         H            4.461537045289    -1.713170776151    -0.354950618706     1.007825032230
         H            3.842040045289    -2.996835776151     0.709910381294     1.007825032230
         H            4.341526045289    -1.449061776151     1.400135381294     1.007825032230
         H           -5.393447954711     0.566622223849     0.546665381294     1.007825032230

  Basis Set: AUG-CC-PVTZ
    Blend: AUG-CC-PVTZ
  Basis Set: (AUG-CC-PVTZ AUX)
    Blend: AUG-CC-PVTZ-JKFIT
	 Reference Energy          =    -667.2605113462584541 [Eh]
	 Singles Energy            =      -0.0000000000000000 [Eh]
	 Same-Spin Energy          =      -0.7342370190468113 [Eh]
	 Opposite-Spin Energy      =      -2.2651291412618124 [Eh]
	 Correlation Energy        =      -2.9993661603086235 [Eh]
	 Total Energy              =    -670.2598775065670225 [Eh]

	 ================> DF-SCS-MP2 Energies <==================
	-----------------------------------------------------------
	 SCS Same-Spin Scale       =       0.3333333333333333 [-]
	 SCS Opposite-Spin Scale   =       1.2000000000000000 [-]
	 SCS Same-Spin Energy      =      -0.2447456730156037 [Eh]
	 SCS Opposite-Spin Energy  =      -2.7181549695141749 [Eh]
	 SCS Correlation Energy    =      -2.9629006425297786 [Eh]
	 SCS Total Energy          =    -670.2234119887882571 [Eh]
	-----------------------------------------------------------

  Dipole Moment: [D]
     X:     0.4306      Y:     1.2215      Z:     0.3367     Total:     1.3382

*** Psi4 exiting successfully. Buy a developer a beer!
