                               Psi4 1.4a3.dev225

  ==> Input File <==

--------------------------------------------------------------------------
#psi4
#
memory 32 gb

molecule  {
0 1
  O       -0.0649480    -2.0007500    -0.4572220
  N        2.4573690    -1.4749290     0.4038410
  C        0.8099710     0.2105070    -0.2160820
  C        2.1525410    -0.1743900     0.0797160
  C       -0.2789970    -0.7898520    -0.2615780
  C       -1.6915990    -0.3449750    -0.0589870
  C        0.5343510     1.5458860    -0.5628900
  C        3.1364470     0.8361460     0.1179860
  C        1.5277130     2.5174420    -0.5614560
  C        2.8303350     2.1515420    -0.2122750
  C       -2.0287831     0.6263135     0.8660808
  C       -2.7013800    -1.0161980    -0.7629970
  C       -3.3755740     0.9555500     1.0975090
  C       -4.0377320    -0.6802290    -0.5577760
  C        3.8275740    -1.9241930     0.5318010
  C       -4.3779170     0.3056950     0.3735650
  H       -0.4794410     1.8136050    -0.8470490
  H        4.1617050     0.5791300     0.3641360
  H        1.7801010    -2.1461120     0.0568400
  H        1.2958720     3.5406330    -0.8437660
  H        3.6204230     2.8995150    -0.1925990
  H       -1.2541740     1.1373190     1.4511930
  H       -2.4205700    -1.7983260    -1.4636490
  H       -3.6394530     1.7093650     1.8355280
  H       -4.8171580    -1.1915530    -1.1177270
  H        4.4331860    -1.7182640    -0.3623870
  H        3.8136890    -3.0019290     0.7024740
  H        4.3131750    -1.4541550     1.3926990
  H       -5.4217990     0.5615290     0.5392290
units angstrom
no_reorient  #important for SAPT in psi4, default
symmetry c1  #important for SAPT in psi4, default
}

set PROPERTIES_ORIGIN ["COM"]
properties('MP2/aug-cc-pvtz', properties = ['dipole'])
--------------------------------------------------------------------------

    Molecular point group: c1
  Charge       = 0
  Multiplicity = 1
  Basis Set: AUG-CC-PVTZ
    Blend: AUG-CC-PVTZ
  Basis Set: (AUG-CC-PVTZ AUX)
    Blend: AUG-CC-PVTZ-JKFIT

    Orbital Energies [Eh]
    ---------------------

    Doubly Occupied:

       1A    -20.539980     2A    -15.561964     3A    -11.340263
       4A    -11.297284     5A    -11.257128     6A    -11.252695
       7A    -11.252654     8A    -11.251086     9A    -11.249973
      10A    -11.247777    11A    -11.246561    12A    -11.245781
      13A    -11.243233    14A    -11.238616    15A    -11.228906
      16A    -11.225901    17A     -1.372730    18A     -1.244453
      19A     -1.164739    20A     -1.142093    21A     -1.057081
      22A     -1.024708    23A     -1.020817    24A     -1.010029
      25A     -0.929483    26A     -0.888439    27A     -0.844301
      28A     -0.835616    29A     -0.807789    30A     -0.772155
      31A     -0.717898    32A     -0.701369    33A     -0.682923
      34A     -0.655930    35A     -0.644934    36A     -0.633662
      37A     -0.619070    38A     -0.615305    39A     -0.609165
      40A     -0.601787    41A     -0.594305    42A     -0.577712
      43A     -0.544913    44A     -0.542238    45A     -0.530743
      46A     -0.519204    47A     -0.513367    48A     -0.503876
      49A     -0.502346    50A     -0.486571    51A     -0.429340
      52A     -0.419082    53A     -0.350766    54A     -0.347021
      55A     -0.341734    56A     -0.292150

  @DF-RHF Final Energy:  -667.26262596794754

   => Energetics <=

    Nuclear Repulsion Energy =           1002.8249111994421128
    One-Electron Energy =               -2896.6317772740185319
    Two-Electron Energy =                1226.5442401066288767
    Total Energy =                       -667.2626259679475424
  Basis Set: (AUG-CC-PVTZ AUX)
    Blend: AUG-CC-PVTZ-RI
    Molecular point group: c1

    Geometry (in Angstrom), charge = 0, multiplicity = 1:

       Center              X                  Y                   Z               Mass
    ------------   -----------------  -----------------  -----------------  -----------------
         O           -0.039950236142    -1.995603658780    -0.449358258748    15.994914619570
         N            2.482366763858    -1.469782658780     0.411704741252    14.003074004430
         C            0.834968763858     0.215653341220    -0.208218258748    12.000000000000
         C            2.177538763858    -0.169243658780     0.087579741252    12.000000000000
         C           -0.253999236142    -0.784705658780    -0.253714258748    12.000000000000
         C           -1.666601236142    -0.339828658780    -0.051123258748    12.000000000000
         C            0.559348763858     1.551032341220    -0.555026258748    12.000000000000
         C            3.161444763858     0.841292341220     0.125849741252    12.000000000000
         C            1.552710763858     2.522588341220    -0.553592258748    12.000000000000
         C            2.855332763858     2.156688341220    -0.204411258748    12.000000000000
         C           -2.003785336142     0.631459841220     0.873944541252    12.000000000000
         C           -2.676382236142    -1.011051658780    -0.755133258748    12.000000000000
         C           -3.350576236142     0.960696341220     1.105372741252    12.000000000000
         C           -4.012734236142    -0.675082658780    -0.549912258748    12.000000000000
         C            3.852571763858    -1.919046658780     0.539664741252    12.000000000000
         C           -4.352919236142     0.310841341220     0.381428741252    12.000000000000
         H           -0.454443236142     1.818751341220    -0.839185258748     1.007825032230
         H            4.186702763858     0.584276341220     0.371999741252     1.007825032230
         H            1.805098763858    -2.140965658780     0.064703741252     1.007825032230
         H            1.320869763858     3.545779341220    -0.835902258748     1.007825032230
         H            3.645420763858     2.904661341220    -0.184735258748     1.007825032230
         H           -1.229176236142     1.142465341220     1.459056741252     1.007825032230
         H           -2.395572236142    -1.793179658780    -1.455785258748     1.007825032230
         H           -3.614455236142     1.714511341220     1.843391741252     1.007825032230
         H           -4.792160236142    -1.186406658780    -1.109863258748     1.007825032230
         H            4.458183763858    -1.713117658780    -0.354523258748     1.007825032230
         H            3.838686763858    -2.996782658780     0.710337741252     1.007825032230
         H            4.338172763858    -1.449008658780     1.400562741252     1.007825032230
         H           -5.396801236142     0.566675341220     0.547092741252     1.007825032230

  Basis Set: AUG-CC-PVTZ
    Blend: AUG-CC-PVTZ
  Basis Set: (AUG-CC-PVTZ AUX)
    Blend: AUG-CC-PVTZ-JKFIT
	 Reference Energy          =    -667.2626259679475424 [Eh]
	 Singles Energy            =      -0.0000000000000000 [Eh]
	 Same-Spin Energy          =      -0.7345677718591683 [Eh]
	 Opposite-Spin Energy      =      -2.2652224254030919 [Eh]
	 Correlation Energy        =      -2.9997901972622603 [Eh]
	 Total Energy              =    -670.2624161652098564 [Eh]

	 ================> DF-SCS-MP2 Energies <==================
	-----------------------------------------------------------
	 SCS Same-Spin Scale       =       0.3333333333333333 [-]
	 SCS Opposite-Spin Scale   =       1.2000000000000000 [-]
	 SCS Same-Spin Energy      =      -0.2448559239530561 [Eh]
	 SCS Opposite-Spin Energy  =      -2.7182669104837101 [Eh]
	 SCS Correlation Energy    =      -2.9631228344367662 [Eh]
	 SCS Total Energy          =    -670.2257488023842598 [Eh]
	-----------------------------------------------------------

  Dipole Moment: [D]
     X:     0.3272      Y:     1.2060      Z:     0.3486     Total:     1.2973

*** Psi4 exiting successfully. Buy a developer a beer!
