                               Psi4 1.3.2 release

  ==> Input File <==

--------------------------------------------------------------------------
#psi4
#
memory 32 gb

molecule  {
0 1
  O       -0.0649480    -2.0007500    -0.4572220
  N        2.4573690    -1.4749290     0.4038410
  C        0.8099710     0.2105070    -0.2160820
  C        2.1525410    -0.1743900     0.0797160
  C       -0.3113001    -0.7526515    -0.2770426
  C       -1.6915990    -0.3449750    -0.0589870
  C        0.5343510     1.5458860    -0.5628900
  C        3.1364470     0.8361460     0.1179860
  C        1.5277130     2.5174420    -0.5614560
  C        2.8303350     2.1515420    -0.2122750
  C       -2.0336590     0.6403590     0.8794580
  C       -2.7013800    -1.0161980    -0.7629970
  C       -3.3755740     0.9555500     1.0975090
  C       -4.0377320    -0.6802290    -0.5577760
  C        3.8275740    -1.9241930     0.5318010
  C       -4.3779170     0.3056950     0.3735650
  H       -0.4794410     1.8136050    -0.8470490
  H        4.1617050     0.5791300     0.3641360
  H        1.7801010    -2.1461120     0.0568400
  H        1.2958720     3.5406330    -0.8437660
  H        3.6204230     2.8995150    -0.1925990
  H       -1.2541740     1.1373190     1.4511930
  H       -2.4205700    -1.7983260    -1.4636490
  H       -3.6394530     1.7093650     1.8355280
  H       -4.8171580    -1.1915530    -1.1177270
  H        4.4331860    -1.7182640    -0.3623870
  H        3.8136890    -3.0019290     0.7024740
  H        4.3131750    -1.4541550     1.3926990
  H       -5.4217990     0.5615290     0.5392290
units angstrom
no_reorient  #important for SAPT in psi4, default
symmetry c1  #important for SAPT in psi4, default
}

set PROPERTIES_ORIGIN ["COM"]
properties('MP2/aug-cc-pvtz', properties = ['dipole'])
--------------------------------------------------------------------------

    Molecular point group: c1
  Charge       = 0
  Multiplicity = 1
  Basis Set: AUG-CC-PVTZ
    Blend: AUG-CC-PVTZ
  Basis Set: (AUG-CC-PVTZ AUX)
    Blend: AUG-CC-PVTZ-JKFIT

    Orbital Energies [Eh]
    ---------------------

    Doubly Occupied:

       1A    -20.533790     2A    -15.560843     3A    -11.340782
       4A    -11.298135     5A    -11.256212     6A    -11.254437
       7A    -11.253185     8A    -11.252885     9A    -11.252169
      10A    -11.250524    11A    -11.249345    12A    -11.246833
      13A    -11.245290    14A    -11.239667    15A    -11.229027
      16A    -11.225530    17A     -1.346393    18A     -1.242869
      19A     -1.166710    20A     -1.142276    21A     -1.060136
      22A     -1.028266    23A     -1.022456    24A     -1.009729
      25A     -0.929673    26A     -0.892050    27A     -0.847866
      28A     -0.836538    29A     -0.807823    30A     -0.772503
      31A     -0.719729    32A     -0.700308    33A     -0.682581
      34A     -0.656214    35A     -0.644533    36A     -0.633373
      37A     -0.618817    38A     -0.614468    39A     -0.606839
      40A     -0.599579    41A     -0.597106    42A     -0.573282
      43A     -0.541255    44A     -0.539454    45A     -0.528676
      46A     -0.521381    47A     -0.514792    48A     -0.503426
      49A     -0.502027    50A     -0.478618    51A     -0.428661
      52A     -0.420679    53A     -0.351138    54A     -0.346111
      55A     -0.344646    56A     -0.291474

  @DF-RHF Final Energy:  -667.25531209619749

   => Energetics <=

    Nuclear Repulsion Energy =           1002.4357661351124307
    One-Electron Energy =               -2895.8759438976949241
    Two-Electron Energy =                1226.1848656663851216
    Total Energy =                       -667.2553120961974855
  Basis Set: (AUG-CC-PVTZ AUX)
    Blend: AUG-CC-PVTZ-RI
    Molecular point group: c1

    Geometry (in Angstrom), charge = 0, multiplicity = 1:

       Center              X                  Y                   Z               Mass
    ------------   -----------------  -----------------  -----------------  -----------------
         O           -0.037836789413    -1.998516746573    -0.449239600131    15.994914619570
         N            2.484480210587    -1.472695746573     0.411823399869    14.003074004430
         C            0.837082210587     0.212740253427    -0.208099600131    12.000000000000
         C            2.179652210587    -0.172156746573     0.087698399869    12.000000000000
         C           -0.284188889413    -0.750418246573    -0.269060200131    12.000000000000
         C           -1.664487789413    -0.342741746573    -0.051004600131    12.000000000000
         C            0.561462210587     1.548119253427    -0.554907600131    12.000000000000
         C            3.163558210587     0.838379253427     0.125968399869    12.000000000000
         C            1.554824210587     2.519675253427    -0.553473600131    12.000000000000
         C            2.857446210587     2.153775253427    -0.204292600131    12.000000000000
         C           -2.006547789413     0.642592253427     0.887440399869    12.000000000000
         C           -2.674268789413    -1.013964746573    -0.755014600131    12.000000000000
         C           -3.348462789413     0.957783253427     1.105491399869    12.000000000000
         C           -4.010620789413    -0.677995746573    -0.549793600131    12.000000000000
         C            3.854685210587    -1.921959746573     0.539783399869    12.000000000000
         C           -4.350805789413     0.307928253427     0.381547399869    12.000000000000
         H           -0.452329789413     1.815838253427    -0.839066600131     1.007825032230
         H            4.188816210587     0.581363253427     0.372118399869     1.007825032230
         H            1.807212210587    -2.143878746573     0.064822399869     1.007825032230
         H            1.322983210587     3.542866253427    -0.835783600131     1.007825032230
         H            3.647534210587     2.901748253427    -0.184616600131     1.007825032230
         H           -1.227062789413     1.139552253427     1.459175399869     1.007825032230
         H           -2.393458789413    -1.796092746573    -1.455666600131     1.007825032230
         H           -3.612341789413     1.711598253427     1.843510399869     1.007825032230
         H           -4.790046789413    -1.189319746573    -1.109744600131     1.007825032230
         H            4.460297210587    -1.716030746573    -0.354404600131     1.007825032230
         H            3.840800210587    -2.999695746573     0.710456399869     1.007825032230
         H            4.340286210587    -1.451921746573     1.400681399869     1.007825032230
         H           -5.394687789413     0.563762253427     0.547211399869     1.007825032230

  Basis Set: AUG-CC-PVTZ
    Blend: AUG-CC-PVTZ
  Basis Set: (AUG-CC-PVTZ AUX)
    Blend: AUG-CC-PVTZ-JKFIT
	 Reference Energy          =    -667.2553120961974855 [Eh]
	 Singles Energy            =      -0.0000000000000000 [Eh]
	 Same-Spin Energy          =      -0.7360151898075782 [Eh]
	 Opposite-Spin Energy      =      -2.2679879897860902 [Eh]
	 Correlation Energy        =      -3.0040031795936684 [Eh]
	 Total Energy              =    -670.2593152757912094 [Eh]

	 ================> DF-SCS-MP2 Energies <==================
	-----------------------------------------------------------
	 SCS Same-Spin Scale       =       0.3333333333333333 [-]
	 SCS Opposite-Spin Scale   =       1.2000000000000000 [-]
	 SCS Same-Spin Energy      =      -0.2453383966025260 [Eh]
	 SCS Opposite-Spin Energy  =      -2.7215855877433079 [Eh]
	 SCS Correlation Energy    =      -2.9669239843458342 [Eh]
	 SCS Total Energy          =    -670.2222360805433254 [Eh]
	-----------------------------------------------------------

  Dipole Moment: [D]
     X:     0.1289      Y:     1.3365      Z:     0.3817     Total:     1.3959

*** Psi4 exiting successfully. Buy a developer a beer!
