                               Psi4 1.3.2 release

  ==> Input File <==

--------------------------------------------------------------------------
#psi4
#
memory 32 gb

molecule  {
0 1
  O       -0.0649480    -2.0007500    -0.4572220
  N        2.5033707    -1.4621089     0.4084672
  C        0.8099710     0.2105070    -0.2160820
  C        2.1525410    -0.1743900     0.0797160
  C       -0.2789970    -0.7898520    -0.2615780
  C       -1.6915990    -0.3449750    -0.0589870
  C        0.5343510     1.5458860    -0.5628900
  C        3.1364470     0.8361460     0.1179860
  C        1.5277130     2.5174420    -0.5614560
  C        2.8303350     2.1515420    -0.2122750
  C       -2.0336590     0.6403590     0.8794580
  C       -2.7013800    -1.0161980    -0.7629970
  C       -3.3755740     0.9555500     1.0975090
  C       -4.0377320    -0.6802290    -0.5577760
  C        3.8275740    -1.9241930     0.5318010
  C       -4.3779170     0.3056950     0.3735650
  H       -0.4794410     1.8136050    -0.8470490
  H        4.1617050     0.5791300     0.3641360
  H        1.7801010    -2.1461120     0.0568400
  H        1.2958720     3.5406330    -0.8437660
  H        3.6204230     2.8995150    -0.1925990
  H       -1.2541740     1.1373190     1.4511930
  H       -2.4205700    -1.7983260    -1.4636490
  H       -3.6394530     1.7093650     1.8355280
  H       -4.8171580    -1.1915530    -1.1177270
  H        4.4331860    -1.7182640    -0.3623870
  H        3.8136890    -3.0019290     0.7024740
  H        4.3131750    -1.4541550     1.3926990
  H       -5.4217990     0.5615290     0.5392290
units angstrom
no_reorient  #important for SAPT in psi4, default
symmetry c1  #important for SAPT in psi4, default
}

set PROPERTIES_ORIGIN ["COM"]
properties('MP2/aug-cc-pvtz', properties = ['dipole'])
--------------------------------------------------------------------------

    Molecular point group: c1
  Charge       = 0
  Multiplicity = 1
  Basis Set: AUG-CC-PVTZ
    Blend: AUG-CC-PVTZ
  Basis Set: (AUG-CC-PVTZ AUX)
    Blend: AUG-CC-PVTZ-JKFIT

    Orbital Energies [Eh]
    ---------------------

    Doubly Occupied:

       1A    -20.540790     2A    -15.562971     3A    -11.341034
       4A    -11.297913     5A    -11.254088     6A    -11.253192
       7A    -11.252351     8A    -11.251852     9A    -11.250637
      10A    -11.249772    11A    -11.247474    12A    -11.245340
      13A    -11.243927    14A    -11.239817    15A    -11.228011
      16A    -11.225955    17A     -1.373303    18A     -1.248457
      19A     -1.163994    20A     -1.143423    21A     -1.056426
      22A     -1.026013    23A     -1.021469    24A     -1.012631
      25A     -0.928414    26A     -0.887705    27A     -0.845752
      28A     -0.835150    29A     -0.804877    30A     -0.771516
      31A     -0.718151    32A     -0.698863    33A     -0.684074
      34A     -0.657890    35A     -0.646122    36A     -0.633379
      37A     -0.620470    38A     -0.618786    39A     -0.609760
      40A     -0.603075    41A     -0.596461    42A     -0.581008
      43A     -0.545636    44A     -0.539265    45A     -0.529789
      46A     -0.518625    47A     -0.512631    48A     -0.505064
      49A     -0.501706    50A     -0.486714    51A     -0.426562
      52A     -0.418620    53A     -0.350778    54A     -0.345668
      55A     -0.343616    56A     -0.291034

  @DF-RHF Final Energy:  -667.25891398043632

   => Energetics <=

    Nuclear Repulsion Energy =           1002.4325390811158059
    One-Electron Energy =               -2895.8068973347271822
    Two-Electron Energy =                1226.1154442731749441
    Total Energy =                       -667.2589139804363185
  Basis Set: (AUG-CC-PVTZ AUX)
    Blend: AUG-CC-PVTZ-RI
    Molecular point group: c1

    Geometry (in Angstrom), charge = 0, multiplicity = 1:

       Center              X                  Y                   Z               Mass
    ------------   -----------------  -----------------  -----------------  -----------------
         O           -0.042724538381    -1.997252485310    -0.450425562045    15.994914619570
         N            2.525594161619    -1.458611385310     0.415263637955    14.003074004430
         C            0.832194461619     0.214004514690    -0.209285562045    12.000000000000
         C            2.174764461619    -0.170892485310     0.086512437955    12.000000000000
         C           -0.256773538381    -0.786354485310    -0.254781562045    12.000000000000
         C           -1.669375538381    -0.341477485310    -0.052190562045    12.000000000000
         C            0.556574461619     1.549383514690    -0.556093562045    12.000000000000
         C            3.158670461619     0.839643514690     0.124782437955    12.000000000000
         C            1.549936461619     2.520939514690    -0.554659562045    12.000000000000
         C            2.852558461619     2.155039514690    -0.205478562045    12.000000000000
         C           -2.011435538381     0.643856514690     0.886254437955    12.000000000000
         C           -2.679156538381    -1.012700485310    -0.756200562045    12.000000000000
         C           -3.353350538381     0.959047514690     1.104305437955    12.000000000000
         C           -4.015508538381    -0.676731485310    -0.550979562045    12.000000000000
         C            3.849797461619    -1.920695485310     0.538597437955    12.000000000000
         C           -4.355693538381     0.309192514690     0.380361437955    12.000000000000
         H           -0.457217538381     1.817102514690    -0.840252562045     1.007825032230
         H            4.183928461619     0.582627514690     0.370932437955     1.007825032230
         H            1.802324461619    -2.142614485310     0.063636437955     1.007825032230
         H            1.318095461619     3.544130514690    -0.836969562045     1.007825032230
         H            3.642646461619     2.903012514690    -0.185802562045     1.007825032230
         H           -1.231950538381     1.140816514690     1.457989437955     1.007825032230
         H           -2.398346538381    -1.794828485310    -1.456852562045     1.007825032230
         H           -3.617229538381     1.712862514690     1.842324437955     1.007825032230
         H           -4.794934538381    -1.188055485310    -1.110930562045     1.007825032230
         H            4.455409461619    -1.714766485310    -0.355590562045     1.007825032230
         H            3.835912461619    -2.998431485310     0.709270437955     1.007825032230
         H            4.335398461619    -1.450657485310     1.399495437955     1.007825032230
         H           -5.399575538381     0.565026514690     0.546025437955     1.007825032230

  Basis Set: AUG-CC-PVTZ
    Blend: AUG-CC-PVTZ
  Basis Set: (AUG-CC-PVTZ AUX)
    Blend: AUG-CC-PVTZ-JKFIT
	 Reference Energy          =    -667.2589139804363185 [Eh]
	 Singles Energy            =      -0.0000000000000000 [Eh]
	 Same-Spin Energy          =      -0.7351463896093281 [Eh]
	 Opposite-Spin Energy      =      -2.2658255443579578 [Eh]
	 Correlation Energy        =      -3.0009719339672860 [Eh]
	 Total Energy              =    -670.2598859144036396 [Eh]

	 ================> DF-SCS-MP2 Energies <==================
	-----------------------------------------------------------
	 SCS Same-Spin Scale       =       0.3333333333333333 [-]
	 SCS Opposite-Spin Scale   =       1.2000000000000000 [-]
	 SCS Same-Spin Energy      =      -0.2450487965364427 [Eh]
	 SCS Opposite-Spin Energy  =      -2.7189906532295494 [Eh]
	 SCS Correlation Energy    =      -2.9640394497659921 [Eh]
	 SCS Total Energy          =    -670.2229534302023239 [Eh]
	-----------------------------------------------------------

  Dipole Moment: [D]
     X:     0.2052      Y:     1.1886      Z:     0.3535     Total:     1.2569

*** Psi4 exiting successfully. Buy a developer a beer!
