                               Psi4 1.4a3.dev225

  ==> Input File <==

--------------------------------------------------------------------------
#psi4
#
memory 32 gb

molecule  {
0 1
  O       -0.0649480    -2.0007500    -0.4572220
  N        2.4573690    -1.4749290     0.4038410
  C        0.8099710     0.2105070    -0.2160820
  C        2.1525410    -0.1743900     0.0797160
  C       -0.3158013    -0.8236615    -0.2631156
  C       -1.6915990    -0.3449750    -0.0589870
  C        0.5343510     1.5458860    -0.5628900
  C        3.1364470     0.8361460     0.1179860
  C        1.5277130     2.5174420    -0.5614560
  C        2.8303350     2.1515420    -0.2122750
  C       -2.0336590     0.6403590     0.8794580
  C       -2.7013800    -1.0161980    -0.7629970
  C       -3.3755740     0.9555500     1.0975090
  C       -4.0377320    -0.6802290    -0.5577760
  C        3.8275740    -1.9241930     0.5318010
  C       -4.3779170     0.3056950     0.3735650
  H       -0.4794410     1.8136050    -0.8470490
  H        4.1617050     0.5791300     0.3641360
  H        1.7801010    -2.1461120     0.0568400
  H        1.2958720     3.5406330    -0.8437660
  H        3.6204230     2.8995150    -0.1925990
  H       -1.2541740     1.1373190     1.4511930
  H       -2.4205700    -1.7983260    -1.4636490
  H       -3.6394530     1.7093650     1.8355280
  H       -4.8171580    -1.1915530    -1.1177270
  H        4.4331860    -1.7182640    -0.3623870
  H        3.8136890    -3.0019290     0.7024740
  H        4.3131750    -1.4541550     1.3926990
  H       -5.4217990     0.5615290     0.5392290
units angstrom
no_reorient  #important for SAPT in psi4, default
symmetry c1  #important for SAPT in psi4, default
}

set PROPERTIES_ORIGIN ["COM"]
properties('MP2/aug-cc-pvtz', properties = ['dipole'])
--------------------------------------------------------------------------

    Molecular point group: c1
  Charge       = 0
  Multiplicity = 1
  Basis Set: AUG-CC-PVTZ
    Blend: AUG-CC-PVTZ
  Basis Set: (AUG-CC-PVTZ AUX)
    Blend: AUG-CC-PVTZ-JKFIT

    Orbital Energies [Eh]
    ---------------------

    Doubly Occupied:

       1A    -20.544476     2A    -15.559302     3A    -11.340452
       4A    -11.292986     5A    -11.255511     6A    -11.254385
       7A    -11.252828     8A    -11.249917     9A    -11.248586
      10A    -11.248313    11A    -11.248246    12A    -11.246984
      13A    -11.245303    14A    -11.238349    15A    -11.226171
      16A    -11.223168    17A     -1.391491    18A     -1.241921
      19A     -1.166312    20A     -1.138013    21A     -1.055332
      22A     -1.027713    23A     -1.018571    24A     -1.006807
      25A     -0.926429    26A     -0.887734    27A     -0.845866
      28A     -0.834359    29A     -0.804607    30A     -0.771351
      31A     -0.717869    32A     -0.699991    33A     -0.683843
      34A     -0.655461    35A     -0.650179    36A     -0.634178
      37A     -0.617947    38A     -0.613364    39A     -0.611772
      40A     -0.601236    41A     -0.597801    42A     -0.576177
      43A     -0.549712    44A     -0.540157    45A     -0.531140
      46A     -0.521449    47A     -0.513300    48A     -0.503897
      49A     -0.501744    50A     -0.490799    51A     -0.426990
      52A     -0.416598    53A     -0.349692    54A     -0.347755
      55A     -0.343090    56A     -0.288928

  @DF-RHF Final Energy:  -667.26293283253062

   => Energetics <=

    Nuclear Repulsion Energy =           1002.4084185744032993
    One-Electron Energy =               -2895.7896011540556174
    Two-Electron Energy =                1226.1182497471218085
    Total Energy =                       -667.2629328325306233
  Basis Set: (AUG-CC-PVTZ AUX)
    Blend: AUG-CC-PVTZ-RI
    Molecular point group: c1

    Geometry (in Angstrom), charge = 0, multiplicity = 1:

       Center              X                  Y                   Z               Mass
    ------------   -----------------  -----------------  -----------------  -----------------
         O           -0.037580917915    -1.994480170759    -0.450031282871    15.994914619570
         N            2.484736082085    -1.468659170759     0.411031717129    14.003074004430
         C            0.837338082085     0.216776829241    -0.208891282871    12.000000000000
         C            2.179908082085    -0.168120170759     0.086906717129    12.000000000000
         C           -0.288434217915    -0.817391670759    -0.255924882871    12.000000000000
         C           -1.664231917915    -0.338705170759    -0.051796282871    12.000000000000
         C            0.561718082085     1.552155829241    -0.555699282871    12.000000000000
         C            3.163814082085     0.842415829241     0.125176717129    12.000000000000
         C            1.555080082085     2.523711829241    -0.554265282871    12.000000000000
         C            2.857702082085     2.157811829241    -0.205084282871    12.000000000000
         C           -2.006291917915     0.646628829241     0.886648717129    12.000000000000
         C           -2.674012917915    -1.009928170759    -0.755806282871    12.000000000000
         C           -3.348206917915     0.961819829241     1.104699717129    12.000000000000
         C           -4.010364917915    -0.673959170759    -0.550585282871    12.000000000000
         C            3.854941082085    -1.917923170759     0.538991717129    12.000000000000
         C           -4.350549917915     0.311964829241     0.380755717129    12.000000000000
         H           -0.452073917915     1.819874829241    -0.839858282871     1.007825032230
         H            4.189072082085     0.585399829241     0.371326717129     1.007825032230
         H            1.807468082085    -2.139842170759     0.064030717129     1.007825032230
         H            1.323239082085     3.546902829241    -0.836575282871     1.007825032230
         H            3.647790082085     2.905784829241    -0.185408282871     1.007825032230
         H           -1.226806917915     1.143588829241     1.458383717129     1.007825032230
         H           -2.393202917915    -1.792056170759    -1.456458282871     1.007825032230
         H           -3.612085917915     1.715634829241     1.842718717129     1.007825032230
         H           -4.789790917915    -1.185283170759    -1.110536282871     1.007825032230
         H            4.460553082085    -1.711994170759    -0.355196282871     1.007825032230
         H            3.841056082085    -2.995659170759     0.709664717129     1.007825032230
         H            4.340542082085    -1.447885170759     1.399889717129     1.007825032230
         H           -5.394431917915     0.567798829241     0.546419717129     1.007825032230

  Basis Set: AUG-CC-PVTZ
    Blend: AUG-CC-PVTZ
  Basis Set: (AUG-CC-PVTZ AUX)
    Blend: AUG-CC-PVTZ-JKFIT
	 Reference Energy          =    -667.2629328325306233 [Eh]
	 Singles Energy            =      -0.0000000000000000 [Eh]
	 Same-Spin Energy          =      -0.7338882430557956 [Eh]
	 Opposite-Spin Energy      =      -2.2638825584298261 [Eh]
	 Correlation Energy        =      -2.9977708014856219 [Eh]
	 Total Energy              =    -670.2607036340162949 [Eh]

	 ================> DF-SCS-MP2 Energies <==================
	-----------------------------------------------------------
	 SCS Same-Spin Scale       =       0.3333333333333333 [-]
	 SCS Opposite-Spin Scale   =       1.2000000000000000 [-]
	 SCS Same-Spin Energy      =      -0.2446294143519319 [Eh]
	 SCS Opposite-Spin Energy  =      -2.7166590701157913 [Eh]
	 SCS Correlation Energy    =      -2.9612884844677230 [Eh]
	 SCS Total Energy          =    -670.2242213169982961 [Eh]
	-----------------------------------------------------------

  Dipole Moment: [D]
     X:    -0.1372      Y:     1.0010      Z:     0.3538     Total:     1.0705

*** Psi4 exiting successfully. Buy a developer a beer!
