                               Psi4 1.3.2 release

  ==> Input File <==

--------------------------------------------------------------------------
#psi4
#
memory 32 gb

molecule  {
0 1
  O       -0.0649480    -2.0007500    -0.4572220
  N        2.4573690    -1.4749290     0.4038410
  C        0.7925001     0.2289896    -0.2116276
  C        2.1525410    -0.1743900     0.0797160
  C       -0.2789970    -0.7898520    -0.2615780
  C       -1.6915990    -0.3449750    -0.0589870
  C        0.5343510     1.5458860    -0.5628900
  C        3.1364470     0.8361460     0.1179860
  C        1.5277130     2.5174420    -0.5614560
  C        2.8303350     2.1515420    -0.2122750
  C       -2.0336590     0.6403590     0.8794580
  C       -2.7013800    -1.0161980    -0.7629970
  C       -3.3755740     0.9555500     1.0975090
  C       -4.0377320    -0.6802290    -0.5577760
  C        3.8275740    -1.9241930     0.5318010
  C       -4.3779170     0.3056950     0.3735650
  H       -0.4794410     1.8136050    -0.8470490
  H        4.1617050     0.5791300     0.3641360
  H        1.7801010    -2.1461120     0.0568400
  H        1.2958720     3.5406330    -0.8437660
  H        3.6204230     2.8995150    -0.1925990
  H       -1.2541740     1.1373190     1.4511930
  H       -2.4205700    -1.7983260    -1.4636490
  H       -3.6394530     1.7093650     1.8355280
  H       -4.8171580    -1.1915530    -1.1177270
  H        4.4331860    -1.7182640    -0.3623870
  H        3.8136890    -3.0019290     0.7024740
  H        4.3131750    -1.4541550     1.3926990
  H       -5.4217990     0.5615290     0.5392290
units angstrom
no_reorient  #important for SAPT in psi4, default
symmetry c1  #important for SAPT in psi4, default
}

set PROPERTIES_ORIGIN ["COM"]
properties('MP2/aug-cc-pvtz', properties = ['dipole'])
--------------------------------------------------------------------------

    Molecular point group: c1
  Charge       = 0
  Multiplicity = 1
  Basis Set: AUG-CC-PVTZ
    Blend: AUG-CC-PVTZ
  Basis Set: (AUG-CC-PVTZ AUX)
    Blend: AUG-CC-PVTZ-JKFIT

    Orbital Energies [Eh]
    ---------------------

    Doubly Occupied:

       1A    -20.540656     2A    -15.563305     3A    -11.340593
       4A    -11.299373     5A    -11.257646     6A    -11.252648
       7A    -11.251157     8A    -11.251081     9A    -11.250057
      10A    -11.248717    11A    -11.246717    12A    -11.244804
      13A    -11.243367    14A    -11.239188    15A    -11.227942
      16A    -11.225165    17A     -1.372856    18A     -1.244344
      19A     -1.163553    20A     -1.143030    21A     -1.057041
      22A     -1.025450    23A     -1.020617    24A     -1.009164
      25A     -0.930128    26A     -0.889199    27A     -0.844577
      28A     -0.833828    29A     -0.807689    30A     -0.771363
      31A     -0.717556    32A     -0.702780    33A     -0.683775
      34A     -0.655214    35A     -0.644771    36A     -0.633303
      37A     -0.618754    38A     -0.615301    39A     -0.608106
      40A     -0.602227    41A     -0.596075    42A     -0.578695
      43A     -0.545120    44A     -0.542206    45A     -0.531617
      46A     -0.520367    47A     -0.512698    48A     -0.502587
      49A     -0.501197    50A     -0.486687    51A     -0.429965
      52A     -0.418898    53A     -0.352419    54A     -0.345290
      55A     -0.343321    56A     -0.290530

  @DF-RHF Final Energy:  -667.26210576451729

   => Energetics <=

    Nuclear Repulsion Energy =           1002.4920052526521204
    One-Electron Energy =               -2895.9587885627634023
    Two-Electron Energy =                1226.2046775455937677
    Total Energy =                       -667.2621057645174005
  Basis Set: (AUG-CC-PVTZ AUX)
    Blend: AUG-CC-PVTZ-RI
    Molecular point group: c1

    Geometry (in Angstrom), charge = 0, multiplicity = 1:

       Center              X                  Y                   Z               Mass
    ------------   -----------------  -----------------  -----------------  -----------------
         O           -0.038679928405    -1.997452724288    -0.450371899154    15.994914619570
         N            2.483637071595    -1.471631724288     0.410691100846    14.003074004430
         C            0.818768171595     0.232286875712    -0.204777499154    12.000000000000
         C            2.178809071595    -0.171092724288     0.086566100846    12.000000000000
         C           -0.252728928405    -0.786554724288    -0.254727899154    12.000000000000
         C           -1.665330928405    -0.341677724288    -0.052136899154    12.000000000000
         C            0.560619071595     1.549183275712    -0.556039899154    12.000000000000
         C            3.162715071595     0.839443275712     0.124836100846    12.000000000000
         C            1.553981071595     2.520739275712    -0.554605899154    12.000000000000
         C            2.856603071595     2.154839275712    -0.205424899154    12.000000000000
         C           -2.007390928405     0.643656275712     0.886308100846    12.000000000000
         C           -2.675111928405    -1.012900724288    -0.756146899154    12.000000000000
         C           -3.349305928405     0.958847275712     1.104359100846    12.000000000000
         C           -4.011463928405    -0.676931724288    -0.550925899154    12.000000000000
         C            3.853842071595    -1.920895724288     0.538651100846    12.000000000000
         C           -4.351648928405     0.308992275712     0.380415100846    12.000000000000
         H           -0.453172928405     1.816902275712    -0.840198899154     1.007825032230
         H            4.187973071595     0.582427275712     0.370986100846     1.007825032230
         H            1.806369071595    -2.142814724288     0.063690100846     1.007825032230
         H            1.322140071595     3.543930275712    -0.836915899154     1.007825032230
         H            3.646691071595     2.902812275712    -0.185748899154     1.007825032230
         H           -1.227905928405     1.140616275712     1.458043100846     1.007825032230
         H           -2.394301928405    -1.795028724288    -1.456798899154     1.007825032230
         H           -3.613184928405     1.712662275712     1.842378100846     1.007825032230
         H           -4.790889928405    -1.188255724288    -1.110876899154     1.007825032230
         H            4.459454071595    -1.714966724288    -0.355536899154     1.007825032230
         H            3.839957071595    -2.998631724288     0.709324100846     1.007825032230
         H            4.339443071595    -1.450857724288     1.399549100846     1.007825032230
         H           -5.395530928405     0.564826275712     0.546079100846     1.007825032230

  Basis Set: AUG-CC-PVTZ
    Blend: AUG-CC-PVTZ
  Basis Set: (AUG-CC-PVTZ AUX)
    Blend: AUG-CC-PVTZ-JKFIT
	 Reference Energy          =    -667.2621057645172868 [Eh]
	 Singles Energy            =      -0.0000000000000000 [Eh]
	 Same-Spin Energy          =      -0.7346387000072137 [Eh]
	 Opposite-Spin Energy      =      -2.2652559214261627 [Eh]
	 Correlation Energy        =      -2.9998946214333762 [Eh]
	 Total Energy              =    -670.2620003859506141 [Eh]

	 ================> DF-SCS-MP2 Energies <==================
	-----------------------------------------------------------
	 SCS Same-Spin Scale       =       0.3333333333333333 [-]
	 SCS Opposite-Spin Scale   =       1.2000000000000000 [-]
	 SCS Same-Spin Energy      =      -0.2448795666690712 [Eh]
	 SCS Opposite-Spin Energy  =      -2.7183071057113950 [Eh]
	 SCS Correlation Energy    =      -2.9631866723804663 [Eh]
	 SCS Total Energy          =    -670.2252924368978029 [Eh]
	-----------------------------------------------------------

  Dipole Moment: [D]
     X:     0.3390      Y:     1.1631      Z:     0.3481     Total:     1.2605

*** Psi4 exiting successfully. Buy a developer a beer!
