                               Psi4 1.3.2 release

  ==> Input File <==

--------------------------------------------------------------------------
#psi4
#
memory 32 gb

molecule  {
0 1
  O       -0.0649480    -2.0007500    -0.4572220
  N        2.4573690    -1.4749290     0.4038410
  C        0.9495399     0.2527693    -0.1955393
  C        2.1525410    -0.1743900     0.0797160
  C       -0.2789970    -0.7898520    -0.2615780
  C       -1.6915990    -0.3449750    -0.0589870
  C        0.5343510     1.5458860    -0.5628900
  C        3.1364470     0.8361460     0.1179860
  C        1.5277130     2.5174420    -0.5614560
  C        2.8303350     2.1515420    -0.2122750
  C       -2.0336590     0.6403590     0.8794580
  C       -2.7013800    -1.0161980    -0.7629970
  C       -3.3755740     0.9555500     1.0975090
  C       -4.0377320    -0.6802290    -0.5577760
  C        3.8275740    -1.9241930     0.5318010
  C       -4.3779170     0.3056950     0.3735650
  H       -0.4794410     1.8136050    -0.8470490
  H        4.1617050     0.5791300     0.3641360
  H        1.7801010    -2.1461120     0.0568400
  H        1.2958720     3.5406330    -0.8437660
  H        3.6204230     2.8995150    -0.1925990
  H       -1.2541740     1.1373190     1.4511930
  H       -2.4205700    -1.7983260    -1.4636490
  H       -3.6394530     1.7093650     1.8355280
  H       -4.8171580    -1.1915530    -1.1177270
  H        4.4331860    -1.7182640    -0.3623870
  H        3.8136890    -3.0019290     0.7024740
  H        4.3131750    -1.4541550     1.3926990
  H       -5.4217990     0.5615290     0.5392290
units angstrom
no_reorient  #important for SAPT in psi4, default
symmetry c1  #important for SAPT in psi4, default
}

set PROPERTIES_ORIGIN ["COM"]
properties('MP2/aug-cc-pvtz', properties = ['dipole'])
--------------------------------------------------------------------------

    Molecular point group: c1
  Charge       = 0
  Multiplicity = 1
  Basis Set: AUG-CC-PVTZ
    Blend: AUG-CC-PVTZ
  Basis Set: (AUG-CC-PVTZ AUX)
    Blend: AUG-CC-PVTZ-JKFIT

    Orbital Energies [Eh]
    ---------------------

    Doubly Occupied:

       1A    -20.545753     2A    -15.554286     3A    -11.347692
       4A    -11.276124     5A    -11.254266     6A    -11.254215
       7A    -11.253010     8A    -11.252527     9A    -11.249979
      10A    -11.247515    11A    -11.247042    12A    -11.245706
      13A    -11.244351    14A    -11.237017    15A    -11.230163
      16A    -11.226772    17A     -1.374213    18A     -1.244649
      19A     -1.165396    20A     -1.147529    21A     -1.049513
      22A     -1.027966    23A     -1.025400    24A     -1.012694
      25A     -0.923325    26A     -0.881805    27A     -0.843119
      28A     -0.839027    29A     -0.812747    30A     -0.770487
      31A     -0.717076    32A     -0.696425    33A     -0.685174
      34A     -0.653940    35A     -0.646909    36A     -0.632798
      37A     -0.622874    38A     -0.614097    39A     -0.608747
      40A     -0.599770    41A     -0.595076    42A     -0.576223
      43A     -0.544191    44A     -0.539478    45A     -0.527665
      46A     -0.521847    47A     -0.516764    48A     -0.512471
      49A     -0.502742    50A     -0.490418    51A     -0.426970
      52A     -0.406405    53A     -0.349548    54A     -0.346555
      55A     -0.342557    56A     -0.298081

  @DF-RHF Final Energy:  -667.23900263980727

   => Energetics <=

    Nuclear Repulsion Energy =           1002.6243683627920973
    One-Electron Energy =               -2896.2085616929398384
    Two-Electron Energy =                1226.3451906903403597
    Total Energy =                       -667.2390026398072678
  Basis Set: (AUG-CC-PVTZ AUX)
    Blend: AUG-CC-PVTZ-RI
    Molecular point group: c1

    Geometry (in Angstrom), charge = 0, multiplicity = 1:

       Center              X                  Y                   Z               Mass
    ------------   -----------------  -----------------  -----------------  -----------------
         O           -0.047606883178    -1.998804485475    -0.451286441369    15.994914619570
         N            2.474710116822    -1.472983485475     0.409776558631    14.003074004430
         C            0.966881016822     0.254714814525    -0.189603741369    12.000000000000
         C            2.169882116822    -0.172444485475     0.085651558631    12.000000000000
         C           -0.261655883178    -0.787906485475    -0.255642441369    12.000000000000
         C           -1.674257883178    -0.343029485475    -0.053051441369    12.000000000000
         C            0.551692116822     1.547831514525    -0.556954441369    12.000000000000
         C            3.153788116822     0.838091514525     0.123921558631    12.000000000000
         C            1.545054116822     2.519387514525    -0.555520441369    12.000000000000
         C            2.847676116822     2.153487514525    -0.206339441369    12.000000000000
         C           -2.016317883178     0.642304514525     0.885393558631    12.000000000000
         C           -2.684038883178    -1.014252485475    -0.757061441369    12.000000000000
         C           -3.358232883178     0.957495514525     1.103444558631    12.000000000000
         C           -4.020390883178    -0.678283485475    -0.551840441369    12.000000000000
         C            3.844915116822    -1.922247485475     0.537736558631    12.000000000000
         C           -4.360575883178     0.307640514525     0.379500558631    12.000000000000
         H           -0.462099883178     1.815550514525    -0.841113441369     1.007825032230
         H            4.179046116822     0.581075514525     0.370071558631     1.007825032230
         H            1.797442116822    -2.144166485475     0.062775558631     1.007825032230
         H            1.313213116822     3.542578514525    -0.837830441369     1.007825032230
         H            3.637764116822     2.901460514525    -0.186663441369     1.007825032230
         H           -1.236832883178     1.139264514525     1.457128558631     1.007825032230
         H           -2.403228883178    -1.796380485475    -1.457713441369     1.007825032230
         H           -3.622111883178     1.711310514525     1.841463558631     1.007825032230
         H           -4.799816883178    -1.189607485475    -1.111791441369     1.007825032230
         H            4.450527116822    -1.716318485475    -0.356451441369     1.007825032230
         H            3.831030116822    -2.999983485475     0.708409558631     1.007825032230
         H            4.330516116822    -1.452209485475     1.398634558631     1.007825032230
         H           -5.404457883178     0.563474514525     0.545164558631     1.007825032230

  Basis Set: AUG-CC-PVTZ
    Blend: AUG-CC-PVTZ
  Basis Set: (AUG-CC-PVTZ AUX)
    Blend: AUG-CC-PVTZ-JKFIT
	 Reference Energy          =    -667.2390026398072678 [Eh]
	 Singles Energy            =      -0.0000000000000000 [Eh]
	 Same-Spin Energy          =      -0.7344372538305246 [Eh]
	 Opposite-Spin Energy      =      -2.2659036323802879 [Eh]
	 Correlation Energy        =      -3.0003408862108127 [Eh]
	 Total Energy              =    -670.2393435260180468 [Eh]

	 ================> DF-SCS-MP2 Energies <==================
	-----------------------------------------------------------
	 SCS Same-Spin Scale       =       0.3333333333333333 [-]
	 SCS Opposite-Spin Scale   =       1.2000000000000000 [-]
	 SCS Same-Spin Energy      =      -0.2448124179435082 [Eh]
	 SCS Opposite-Spin Energy  =      -2.7190843588563456 [Eh]
	 SCS Correlation Energy    =      -2.9638967767998539 [Eh]
	 SCS Total Energy          =    -670.2028994166071243 [Eh]
	-----------------------------------------------------------

  Dipole Moment: [D]
     X:    -0.2197      Y:     1.1388      Z:     0.2802     Total:     1.1931

*** Psi4 exiting successfully. Buy a developer a beer!
