                               Psi4 1.3.2 release

  ==> Input File <==

--------------------------------------------------------------------------
#psi4
#
memory 32 gb

molecule  {
0 1
  O       -0.0649480    -2.0007500    -0.4572220
  N        2.4573690    -1.4749290     0.4038410
  C        0.8099710     0.2105070    -0.2160820
  C        2.1525410    -0.1743900     0.0797160
  C       -0.2789970    -0.7898520    -0.2615780
  C       -1.6915990    -0.3449750    -0.0589870
  C        0.5343510     1.5458860    -0.5628900
  C        3.1364470     0.8361460     0.1179860
  C        1.5277130     2.5174420    -0.5614560
  C        2.8303350     2.1515420    -0.2122750
  C       -2.0573371     0.6365396     0.8745181
  C       -2.7013800    -1.0161980    -0.7629970
  C       -3.3755740     0.9555500     1.0975090
  C       -4.0377320    -0.6802290    -0.5577760
  C        3.8275740    -1.9241930     0.5318010
  C       -4.3779170     0.3056950     0.3735650
  H       -0.4794410     1.8136050    -0.8470490
  H        4.1617050     0.5791300     0.3641360
  H        1.7801010    -2.1461120     0.0568400
  H        1.2958720     3.5406330    -0.8437660
  H        3.6204230     2.8995150    -0.1925990
  H       -1.2541740     1.1373190     1.4511930
  H       -2.4205700    -1.7983260    -1.4636490
  H       -3.6394530     1.7093650     1.8355280
  H       -4.8171580    -1.1915530    -1.1177270
  H        4.4331860    -1.7182640    -0.3623870
  H        3.8136890    -3.0019290     0.7024740
  H        4.3131750    -1.4541550     1.3926990
  H       -5.4217990     0.5615290     0.5392290
units angstrom
no_reorient  #important for SAPT in psi4, default
symmetry c1  #important for SAPT in psi4, default
}

set PROPERTIES_ORIGIN ["COM"]
properties('MP2/aug-cc-pvtz', properties = ['dipole'])
--------------------------------------------------------------------------

    Molecular point group: c1
  Charge       = 0
  Multiplicity = 1
  Basis Set: AUG-CC-PVTZ
    Blend: AUG-CC-PVTZ
  Basis Set: (AUG-CC-PVTZ AUX)
    Blend: AUG-CC-PVTZ-JKFIT

    Orbital Energies [Eh]
    ---------------------

    Doubly Occupied:

       1A    -20.540050     2A    -15.561957     3A    -11.340758
       4A    -11.297263     5A    -11.257118     6A    -11.252680
       7A    -11.252662     8A    -11.250578     9A    -11.250369
      10A    -11.248852    11A    -11.247076    12A    -11.243109
      13A    -11.242436    14A    -11.238630    15A    -11.228891
      16A    -11.225889    17A     -1.372757    18A     -1.244443
      19A     -1.165333    20A     -1.142217    21A     -1.055771
      22A     -1.027572    23A     -1.020603    24A     -1.010002
      25A     -0.929557    26A     -0.889176    27A     -0.845044
      28A     -0.833409    29A     -0.807588    30A     -0.772392
      31A     -0.717785    32A     -0.701379    33A     -0.683443
      34A     -0.656136    35A     -0.643488    36A     -0.634342
      37A     -0.618880    38A     -0.615222    39A     -0.607950
      40A     -0.601567    41A     -0.595358    42A     -0.577683
      43A     -0.545341    44A     -0.542251    45A     -0.530987
      46A     -0.520935    47A     -0.514019    48A     -0.503915
      49A     -0.498322    50A     -0.486551    51A     -0.429367
      52A     -0.419739    53A     -0.350945    54A     -0.345291
      55A     -0.344121    56A     -0.292098

  @DF-RHF Final Energy:  -667.26237777469998

   => Energetics <=

    Nuclear Repulsion Energy =           1002.6145666120503392
    One-Electron Energy =               -2896.2112913996415955
    Two-Electron Energy =                1226.3343470128911576
    Total Energy =                       -667.2623777747000986
  Basis Set: (AUG-CC-PVTZ AUX)
    Blend: AUG-CC-PVTZ-RI
    Molecular point group: c1

    Geometry (in Angstrom), charge = 0, multiplicity = 1:

       Center              X                  Y                   Z               Mass
    ------------   -----------------  -----------------  -----------------  -----------------
         O           -0.038327079040    -1.996184963215    -0.449837878535    15.994914619570
         N            2.483989920960    -1.470363963215     0.411225121465    14.003074004430
         C            0.836591920960     0.215072036785    -0.208697878535    12.000000000000
         C            2.179161920960    -0.169824963215     0.087100121465    12.000000000000
         C           -0.252376079040    -0.785286963215    -0.254193878535    12.000000000000
         C           -1.664978079040    -0.340409963215    -0.051602878535    12.000000000000
         C            0.560971920960     1.550451036785    -0.555505878535    12.000000000000
         C            3.163067920960     0.840711036785     0.125370121465    12.000000000000
         C            1.554333920960     2.522007036785    -0.554071878535    12.000000000000
         C            2.856955920960     2.156107036785    -0.204890878535    12.000000000000
         C           -2.030716179040     0.641104636785     0.881902221465    12.000000000000
         C           -2.674759079040    -1.011632963215    -0.755612878535    12.000000000000
         C           -3.348953079040     0.960115036785     1.104893121465    12.000000000000
         C           -4.011111079040    -0.675663963215    -0.550391878535    12.000000000000
         C            3.854194920960    -1.919627963215     0.539185121465    12.000000000000
         C           -4.351296079040     0.310260036785     0.380949121465    12.000000000000
         H           -0.452820079040     1.818170036785    -0.839664878535     1.007825032230
         H            4.188325920960     0.583695036785     0.371520121465     1.007825032230
         H            1.806721920960    -2.141546963215     0.064224121465     1.007825032230
         H            1.322492920960     3.545198036785    -0.836381878535     1.007825032230
         H            3.647043920960     2.904080036785    -0.185214878535     1.007825032230
         H           -1.227553079040     1.141884036785     1.458577121465     1.007825032230
         H           -2.393949079040    -1.793760963215    -1.456264878535     1.007825032230
         H           -3.612832079040     1.713930036785     1.842912121465     1.007825032230
         H           -4.790537079040    -1.186987963215    -1.110342878535     1.007825032230
         H            4.459806920960    -1.713698963215    -0.355002878535     1.007825032230
         H            3.840309920960    -2.997363963215     0.709858121465     1.007825032230
         H            4.339795920960    -1.449589963215     1.400083121465     1.007825032230
         H           -5.395178079040     0.566094036785     0.546613121465     1.007825032230

  Basis Set: AUG-CC-PVTZ
    Blend: AUG-CC-PVTZ
  Basis Set: (AUG-CC-PVTZ AUX)
    Blend: AUG-CC-PVTZ-JKFIT
	 Reference Energy          =    -667.2623777746999849 [Eh]
	 Singles Energy            =      -0.0000000000000000 [Eh]
	 Same-Spin Energy          =      -0.7346054695148649 [Eh]
	 Opposite-Spin Energy      =      -2.2651819010742988 [Eh]
	 Correlation Energy        =      -2.9997873705891638 [Eh]
	 Total Energy              =    -670.2621651452891456 [Eh]

	 ================> DF-SCS-MP2 Energies <==================
	-----------------------------------------------------------
	 SCS Same-Spin Scale       =       0.3333333333333333 [-]
	 SCS Opposite-Spin Scale   =       1.2000000000000000 [-]
	 SCS Same-Spin Energy      =      -0.2448684898382883 [Eh]
	 SCS Opposite-Spin Energy  =      -2.7182182812891584 [Eh]
	 SCS Correlation Energy    =      -2.9630867711274469 [Eh]
	 SCS Total Energy          =    -670.2254645458274354 [Eh]
	-----------------------------------------------------------

  Dipole Moment: [D]
     X:     0.3271      Y:     1.2001      Z:     0.3409     Total:     1.2897

*** Psi4 exiting successfully. Buy a developer a beer!
