                               Psi4 1.3.2 release

  ==> Input File <==

--------------------------------------------------------------------------
#psi4
#
memory 32 gb

molecule  {
0 1
  O       -0.1506716    -2.0137498    -0.4512468
  N        2.4573690    -1.4749290     0.4038410
  C        0.8099710     0.2105070    -0.2160820
  C        2.1525410    -0.1743900     0.0797160
  C       -0.2789970    -0.7898520    -0.2615780
  C       -1.6915990    -0.3449750    -0.0589870
  C        0.5343510     1.5458860    -0.5628900
  C        3.1364470     0.8361460     0.1179860
  C        1.5277130     2.5174420    -0.5614560
  C        2.8303350     2.1515420    -0.2122750
  C       -2.0336590     0.6403590     0.8794580
  C       -2.7013800    -1.0161980    -0.7629970
  C       -3.3755740     0.9555500     1.0975090
  C       -4.0377320    -0.6802290    -0.5577760
  C        3.8275740    -1.9241930     0.5318010
  C       -4.3779170     0.3056950     0.3735650
  H       -0.4794410     1.8136050    -0.8470490
  H        4.1617050     0.5791300     0.3641360
  H        1.7801010    -2.1461120     0.0568400
  H        1.2958720     3.5406330    -0.8437660
  H        3.6204230     2.8995150    -0.1925990
  H       -1.2541740     1.1373190     1.4511930
  H       -2.4205700    -1.7983260    -1.4636490
  H       -3.6394530     1.7093650     1.8355280
  H       -4.8171580    -1.1915530    -1.1177270
  H        4.4331860    -1.7182640    -0.3623870
  H        3.8136890    -3.0019290     0.7024740
  H        4.3131750    -1.4541550     1.3926990
  H       -5.4217990     0.5615290     0.5392290
units angstrom
no_reorient  #important for SAPT in psi4, default
symmetry c1  #important for SAPT in psi4, default
}

set PROPERTIES_ORIGIN ["COM"]
properties('MP2/aug-cc-pvtz', properties = ['dipole'])
--------------------------------------------------------------------------

    Molecular point group: c1
  Charge       = 0
  Multiplicity = 1
  Basis Set: AUG-CC-PVTZ
    Blend: AUG-CC-PVTZ
  Basis Set: (AUG-CC-PVTZ AUX)
    Blend: AUG-CC-PVTZ-JKFIT

    Orbital Energies [Eh]
    ---------------------

    Doubly Occupied:

       1A    -20.539461     2A    -15.565808     3A    -11.339546
       4A    -11.299732     5A    -11.259390     6A    -11.255036
       7A    -11.254803     8A    -11.248191     9A    -11.247416
      10A    -11.245879    11A    -11.243753    12A    -11.242568
      13A    -11.241770    14A    -11.241101    15A    -11.230803
      16A    -11.227800    17A     -1.371887    18A     -1.247730
      19A     -1.160792    20A     -1.143933    21A     -1.055955
      22A     -1.023365    23A     -1.019648    24A     -1.012085
      25A     -0.931129    26A     -0.889523    27A     -0.844277
      28A     -0.832826    29A     -0.809111    30A     -0.770362
      31A     -0.717625    32A     -0.703874    33A     -0.682645
      34A     -0.657655    35A     -0.641598    36A     -0.633026
      37A     -0.620047    38A     -0.617417    39A     -0.606578
      40A     -0.602297    41A     -0.593964    42A     -0.580762
      43A     -0.545190    44A     -0.544178    45A     -0.530840
      46A     -0.519324    47A     -0.511773    48A     -0.505742
      49A     -0.498621    50A     -0.486173    51A     -0.431811
      52A     -0.419381    53A     -0.352017    54A     -0.342776
      55A     -0.340153    56A     -0.294618

  @DF-RHF Final Energy:  -667.26132445725386

   => Energetics <=

    Nuclear Repulsion Energy =           1002.1398870659693330
    One-Electron Energy =               -2895.2508958613302639
    Two-Electron Energy =                1225.8496843381071812
    Total Energy =                       -667.2613244572537496
  Basis Set: (AUG-CC-PVTZ AUX)
    Blend: AUG-CC-PVTZ-RI
    Molecular point group: c1

    Geometry (in Angstrom), charge = 0, multiplicity = 1:

       Center              X                  Y                   Z               Mass
    ------------   -----------------  -----------------  -----------------  -----------------
         O           -0.118901432544    -2.008416889645    -0.444596225781    15.994914619570
         N            2.489139167456    -1.469596089645     0.410491574219    14.003074004430
         C            0.841741167456     0.215839910355    -0.209431425781    12.000000000000
         C            2.184311167456    -0.169057089645     0.086366574219    12.000000000000
         C           -0.247226832544    -0.784519089645    -0.254927425781    12.000000000000
         C           -1.659828832544    -0.339642089645    -0.052336425781    12.000000000000
         C            0.566121167456     1.551218910355    -0.556239425781    12.000000000000
         C            3.168217167456     0.841478910355     0.124636574219    12.000000000000
         C            1.559483167456     2.522774910355    -0.554805425781    12.000000000000
         C            2.862105167456     2.156874910355    -0.205624425781    12.000000000000
         C           -2.001888832544     0.645691910355     0.886108574219    12.000000000000
         C           -2.669609832544    -1.010865089645    -0.756346425781    12.000000000000
         C           -3.343803832544     0.960882910355     1.104159574219    12.000000000000
         C           -4.005961832544    -0.674896089645    -0.551125425781    12.000000000000
         C            3.859344167456    -1.918860089645     0.538451574219    12.000000000000
         C           -4.346146832544     0.311027910355     0.380215574219    12.000000000000
         H           -0.447670832544     1.818937910355    -0.840398425781     1.007825032230
         H            4.193475167456     0.584462910355     0.370786574219     1.007825032230
         H            1.811871167456    -2.140779089645     0.063490574219     1.007825032230
         H            1.327642167456     3.545965910355    -0.837115425781     1.007825032230
         H            3.652193167456     2.904847910355    -0.185948425781     1.007825032230
         H           -1.222403832544     1.142651910355     1.457843574219     1.007825032230
         H           -2.388799832544    -1.792993089645    -1.456998425781     1.007825032230
         H           -3.607682832544     1.714697910355     1.842178574219     1.007825032230
         H           -4.785387832544    -1.186220089645    -1.111076425781     1.007825032230
         H            4.464956167456    -1.712931089645    -0.355736425781     1.007825032230
         H            3.845459167456    -2.996596089645     0.709124574219     1.007825032230
         H            4.344945167456    -1.448822089645     1.399349574219     1.007825032230
         H           -5.390028832544     0.566861910355     0.545879574219     1.007825032230

  Basis Set: AUG-CC-PVTZ
    Blend: AUG-CC-PVTZ
  Basis Set: (AUG-CC-PVTZ AUX)
    Blend: AUG-CC-PVTZ-JKFIT
	 Reference Energy          =    -667.2613244572538633 [Eh]
	 Singles Energy            =      -0.0000000000000000 [Eh]
	 Same-Spin Energy          =      -0.7344597801946585 [Eh]
	 Opposite-Spin Energy      =      -2.2652626458520957 [Eh]
	 Correlation Energy        =      -2.9997224260467541 [Eh]
	 Total Energy              =    -670.2610468833006507 [Eh]

	 ================> DF-SCS-MP2 Energies <==================
	-----------------------------------------------------------
	 SCS Same-Spin Scale       =       0.3333333333333333 [-]
	 SCS Opposite-Spin Scale   =       1.2000000000000000 [-]
	 SCS Same-Spin Energy      =      -0.2448199267315528 [Eh]
	 SCS Opposite-Spin Energy  =      -2.7183151750225147 [Eh]
	 SCS Correlation Energy    =      -2.9631351017540677 [Eh]
	 SCS Total Energy          =    -670.2244595590079825 [Eh]
	-----------------------------------------------------------

  Dipole Moment: [D]
     X:     0.7080      Y:     1.2460      Z:     0.3196     Total:     1.4683

*** Psi4 exiting successfully. Buy a developer a beer!
