                               Psi4 1.4a2.dev612

  ==> Input File <==

--------------------------------------------------------------------------
#psi4
#
memory 32 gb

molecule  {
0 1
  O       -0.0649480    -2.0007500    -0.4572220
  N        2.4573690    -1.4749290     0.4038410
  C        0.8099710     0.2105070    -0.2160820
  C        2.1759774    -0.1693534     0.0787720
  C       -0.2789970    -0.7898520    -0.2615780
  C       -1.6915990    -0.3449750    -0.0589870
  C        0.5343510     1.5458860    -0.5628900
  C        3.1364470     0.8361460     0.1179860
  C        1.5277130     2.5174420    -0.5614560
  C        2.8303350     2.1515420    -0.2122750
  C       -2.0336590     0.6403590     0.8794580
  C       -2.7013800    -1.0161980    -0.7629970
  C       -3.3755740     0.9555500     1.0975090
  C       -4.0377320    -0.6802290    -0.5577760
  C        3.8275740    -1.9241930     0.5318010
  C       -4.3779170     0.3056950     0.3735650
  H       -0.4794410     1.8136050    -0.8470490
  H        4.1617050     0.5791300     0.3641360
  H        1.7801010    -2.1461120     0.0568400
  H        1.2958720     3.5406330    -0.8437660
  H        3.6204230     2.8995150    -0.1925990
  H       -1.2541740     1.1373190     1.4511930
  H       -2.4205700    -1.7983260    -1.4636490
  H       -3.6394530     1.7093650     1.8355280
  H       -4.8171580    -1.1915530    -1.1177270
  H        4.4331860    -1.7182640    -0.3623870
  H        3.8136890    -3.0019290     0.7024740
  H        4.3131750    -1.4541550     1.3926990
  H       -5.4217990     0.5615290     0.5392290
units angstrom
no_reorient  #important for SAPT in psi4, default
symmetry c1  #important for SAPT in psi4, default
}

set PROPERTIES_ORIGIN ["COM"]
properties('MP2/aug-cc-pvtz', properties = ['dipole'])
--------------------------------------------------------------------------

    Molecular point group: c1
  Charge       = 0
  Multiplicity = 1
  Basis Set: AUG-CC-PVTZ
    Blend: AUG-CC-PVTZ
  Basis Set: (AUG-CC-PVTZ AUX)
    Blend: AUG-CC-PVTZ-JKFIT

    Orbital Energies [Eh]
    ---------------------

    Doubly Occupied:

       1A    -20.539487     2A    -15.561695     3A    -11.340232
       4A    -11.296744     5A    -11.256247     6A    -11.253675
       7A    -11.253076     8A    -11.251347     9A    -11.250201
      10A    -11.249367    11A    -11.247001    12A    -11.244920
      13A    -11.243522    14A    -11.240460    15A    -11.226689
      16A    -11.226108    17A     -1.372210    18A     -1.244445
      19A     -1.163461    20A     -1.142110    21A     -1.056101
      22A     -1.025391    23A     -1.019898    24A     -1.011334
      25A     -0.929007    26A     -0.889630    27A     -0.845499
      28A     -0.834164    29A     -0.806282    30A     -0.771302
      31A     -0.718033    32A     -0.702840    33A     -0.682952
      34A     -0.656138    35A     -0.644892    36A     -0.633566
      37A     -0.620313    38A     -0.614552    39A     -0.608104
      40A     -0.600937    41A     -0.596030    42A     -0.577198
      43A     -0.544847    44A     -0.542063    45A     -0.531983
      46A     -0.520556    47A     -0.512765    48A     -0.502005
      49A     -0.500981    50A     -0.486500    51A     -0.429444
      52A     -0.419338    53A     -0.350672    54A     -0.345048
      55A     -0.343243    56A     -0.292400

  @DF-RHF Final Energy:  -667.26214147917551

   => Energetics <=

    Nuclear Repulsion Energy =           1002.3301998338750991
    One-Electron Energy =               -2895.6466737611499411
    Two-Electron Energy =                1226.0543324480993306
    Total Energy =                       -667.2621414791753978
  Basis Set: (AUG-CC-PVTZ AUX)
    Blend: AUG-CC-PVTZ-RI
    Molecular point group: c1

    Geometry (in Angstrom), charge = 0, multiplicity = 1:

       Center              X                  Y                   Z               Mass
    ------------   -----------------  -----------------  -----------------  -----------------
         O           -0.041005310996    -1.996688384077    -0.450065026166    15.994914619570
         N            2.481311689004    -1.470867384077     0.410997973834    14.003074004430
         C            0.833913689004     0.214568615923    -0.208925026166    12.000000000000
         C            2.199920089004    -0.165291784077     0.085928973834    12.000000000000
         C           -0.255054310996    -0.785790384077    -0.254421026166    12.000000000000
         C           -1.667656310996    -0.340913384077    -0.051830026166    12.000000000000
         C            0.558293689004     1.549947615923    -0.555733026166    12.000000000000
         C            3.160389689004     0.840207615923     0.125142973834    12.000000000000
         C            1.551655689004     2.521503615923    -0.554299026166    12.000000000000
         C            2.854277689004     2.155603615923    -0.205118026166    12.000000000000
         C           -2.009716310996     0.644420615923     0.886614973834    12.000000000000
         C           -2.677437310996    -1.012136384077    -0.755840026166    12.000000000000
         C           -3.351631310996     0.959611615923     1.104665973834    12.000000000000
         C           -4.013789310996    -0.676167384077    -0.550619026166    12.000000000000
         C            3.851516689004    -1.920131384077     0.538957973834    12.000000000000
         C           -4.353974310996     0.309756615923     0.380721973834    12.000000000000
         H           -0.455498310996     1.817666615923    -0.839892026166     1.007825032230
         H            4.185647689004     0.583191615923     0.371292973834     1.007825032230
         H            1.804043689004    -2.142050384077     0.063996973834     1.007825032230
         H            1.319814689004     3.544694615923    -0.836609026166     1.007825032230
         H            3.644365689004     2.903576615923    -0.185442026166     1.007825032230
         H           -1.230231310996     1.141380615923     1.458349973834     1.007825032230
         H           -2.396627310996    -1.794264384077    -1.456492026166     1.007825032230
         H           -3.615510310996     1.713426615923     1.842684973834     1.007825032230
         H           -4.793215310996    -1.187491384077    -1.110570026166     1.007825032230
         H            4.457128689004    -1.714202384077    -0.355230026166     1.007825032230
         H            3.837631689004    -2.997867384077     0.709630973834     1.007825032230
         H            4.337117689004    -1.450093384077     1.399855973834     1.007825032230
         H           -5.397856310996     0.565590615923     0.546385973834     1.007825032230

  Basis Set: AUG-CC-PVTZ
    Blend: AUG-CC-PVTZ
  Basis Set: (AUG-CC-PVTZ AUX)
    Blend: AUG-CC-PVTZ-JKFIT
	 Reference Energy          =    -667.2621414791755114 [Eh]
	 Singles Energy            =      -0.0000000000000000 [Eh]
	 Same-Spin Energy          =      -0.7346366905899168 [Eh]
	 Opposite-Spin Energy      =      -2.2652781012397525 [Eh]
	 Correlation Energy        =      -2.9999147918296694 [Eh]
	 Total Energy              =    -670.2620562710052354 [Eh]

	 ================> DF-SCS-MP2 Energies <==================
	-----------------------------------------------------------
	 SCS Same-Spin Scale       =       0.3333333333333333 [-]
	 SCS Opposite-Spin Scale   =       1.2000000000000000 [-]
	 SCS Same-Spin Energy      =      -0.2448788968633056 [Eh]
	 SCS Opposite-Spin Energy  =      -2.7183337214877028 [Eh]
	 SCS Correlation Energy    =      -2.9632126183510086 [Eh]
	 SCS Total Energy          =    -670.2253540975265196 [Eh]
	-----------------------------------------------------------

  Dipole Moment: [D]
     X:     0.3054      Y:     1.2276      Z:     0.3386     Total:     1.3095

*** Psi4 exiting successfully. Buy a developer a beer!
