                               Psi4 1.3.2 release

  ==> Input File <==

--------------------------------------------------------------------------
#psi4
#
memory 32 gb

molecule  {
0 1
  O       -0.0649480    -2.0007500    -0.4572220
  N        2.4573690    -1.4749290     0.4038410
  C        0.8252771     0.2577799    -0.2198440
  C        2.1525410    -0.1743900     0.0797160
  C       -0.2789970    -0.7898520    -0.2615780
  C       -1.6915990    -0.3449750    -0.0589870
  C        0.5343510     1.5458860    -0.5628900
  C        3.1364470     0.8361460     0.1179860
  C        1.5277130     2.5174420    -0.5614560
  C        2.8303350     2.1515420    -0.2122750
  C       -2.0336590     0.6403590     0.8794580
  C       -2.7013800    -1.0161980    -0.7629970
  C       -3.3755740     0.9555500     1.0975090
  C       -4.0377320    -0.6802290    -0.5577760
  C        3.8275740    -1.9241930     0.5318010
  C       -4.3779170     0.3056950     0.3735650
  H       -0.4794410     1.8136050    -0.8470490
  H        4.1617050     0.5791300     0.3641360
  H        1.7801010    -2.1461120     0.0568400
  H        1.2958720     3.5406330    -0.8437660
  H        3.6204230     2.8995150    -0.1925990
  H       -1.2541740     1.1373190     1.4511930
  H       -2.4205700    -1.7983260    -1.4636490
  H       -3.6394530     1.7093650     1.8355280
  H       -4.8171580    -1.1915530    -1.1177270
  H        4.4331860    -1.7182640    -0.3623870
  H        3.8136890    -3.0019290     0.7024740
  H        4.3131750    -1.4541550     1.3926990
  H       -5.4217990     0.5615290     0.5392290
units angstrom
no_reorient  #important for SAPT in psi4, default
symmetry c1  #important for SAPT in psi4, default
}

set PROPERTIES_ORIGIN ["COM"]
properties('MP2/aug-cc-pvtz', properties = ['dipole'])
--------------------------------------------------------------------------

    Molecular point group: c1
  Charge       = 0
  Multiplicity = 1
  Basis Set: AUG-CC-PVTZ
    Blend: AUG-CC-PVTZ
  Basis Set: (AUG-CC-PVTZ AUX)
    Blend: AUG-CC-PVTZ-JKFIT

    Orbital Energies [Eh]
    ---------------------

    Doubly Occupied:

       1A    -20.544033     2A    -15.562068     3A    -11.344449
       4A    -11.295199     5A    -11.257204     6A    -11.252160
       7A    -11.250935     8A    -11.249928     9A    -11.249311
      10A    -11.247827    11A    -11.246597    12A    -11.245602
      13A    -11.244200    14A    -11.239303    15A    -11.226915
      16A    -11.224196    17A     -1.374354    18A     -1.243870
      19A     -1.164421    20A     -1.145502    21A     -1.054933
      22A     -1.026299    23A     -1.021371    24A     -1.009738
      25A     -0.928485    26A     -0.886563    27A     -0.843580
      28A     -0.834198    29A     -0.809787    30A     -0.771555
      31A     -0.717197    32A     -0.701400    33A     -0.685005
      34A     -0.653843    35A     -0.645439    36A     -0.633359
      37A     -0.618969    38A     -0.614845    39A     -0.608564
      40A     -0.601593    41A     -0.596840    42A     -0.579979
      43A     -0.544860    44A     -0.541060    45A     -0.531003
      46A     -0.520923    47A     -0.514170    48A     -0.504951
      49A     -0.501948    50A     -0.488430    51A     -0.429553
      52A     -0.416309    53A     -0.353280    54A     -0.346095
      55A     -0.344278    56A     -0.290073

  @DF-RHF Final Energy:  -667.26049639527980

   => Energetics <=

    Nuclear Repulsion Energy =           1002.4450543201652408
    One-Electron Energy =               -2895.8540052386665593
    Two-Electron Energy =                1226.1484545232217442
    Total Energy =                       -667.2604963952796879
  Basis Set: (AUG-CC-PVTZ AUX)
    Blend: AUG-CC-PVTZ-RI
    Molecular point group: c1

    Geometry (in Angstrom), charge = 0, multiplicity = 1:

       Center              X                  Y                   Z               Mass
    ------------   -----------------  -----------------  -----------------  -----------------
         O           -0.040543142677    -1.999089313905    -0.449904836466    15.994914619570
         N            2.481773857323    -1.473268313905     0.411158163534    14.003074004430
         C            0.849681957323     0.259440586095    -0.212526836466    12.000000000000
         C            2.176945857323    -0.172729313905     0.087033163534    12.000000000000
         C           -0.254592142677    -0.788191313905    -0.254260836466    12.000000000000
         C           -1.667194142677    -0.343314313905    -0.051669836466    12.000000000000
         C            0.558755857323     1.547546686095    -0.555572836466    12.000000000000
         C            3.160851857323     0.837806686095     0.125303163534    12.000000000000
         C            1.552117857323     2.519102686095    -0.554138836466    12.000000000000
         C            2.854739857323     2.153202686095    -0.204957836466    12.000000000000
         C           -2.009254142677     0.642019686095     0.886775163534    12.000000000000
         C           -2.676975142677    -1.014537313905    -0.755679836466    12.000000000000
         C           -3.351169142677     0.957210686095     1.104826163534    12.000000000000
         C           -4.013327142677    -0.678568313905    -0.550458836466    12.000000000000
         C            3.851978857323    -1.922532313905     0.539118163534    12.000000000000
         C           -4.353512142677     0.307355686095     0.380882163534    12.000000000000
         H           -0.455036142677     1.815265686095    -0.839731836466     1.007825032230
         H            4.186109857323     0.580790686095     0.371453163534     1.007825032230
         H            1.804505857323    -2.144451313905     0.064157163534     1.007825032230
         H            1.320276857323     3.542293686095    -0.836448836466     1.007825032230
         H            3.644827857323     2.901175686095    -0.185281836466     1.007825032230
         H           -1.229769142677     1.138979686095     1.458510163534     1.007825032230
         H           -2.396165142677    -1.796665313905    -1.456331836466     1.007825032230
         H           -3.615048142677     1.711025686095     1.842845163534     1.007825032230
         H           -4.792753142677    -1.189892313905    -1.110409836466     1.007825032230
         H            4.457590857323    -1.716603313905    -0.355069836466     1.007825032230
         H            3.838093857323    -3.000268313905     0.709791163534     1.007825032230
         H            4.337579857323    -1.452494313905     1.400016163534     1.007825032230
         H           -5.397394142677     0.563189686095     0.546546163534     1.007825032230

  Basis Set: AUG-CC-PVTZ
    Blend: AUG-CC-PVTZ
  Basis Set: (AUG-CC-PVTZ AUX)
    Blend: AUG-CC-PVTZ-JKFIT
	 Reference Energy          =    -667.2604963952798016 [Eh]
	 Singles Energy            =      -0.0000000000000000 [Eh]
	 Same-Spin Energy          =      -0.7344607244288476 [Eh]
	 Opposite-Spin Energy      =      -2.2650273799279814 [Eh]
	 Correlation Energy        =      -2.9994881043568289 [Eh]
	 Total Energy              =    -670.2599844996366301 [Eh]

	 ================> DF-SCS-MP2 Energies <==================
	-----------------------------------------------------------
	 SCS Same-Spin Scale       =       0.3333333333333333 [-]
	 SCS Opposite-Spin Scale   =       1.2000000000000000 [-]
	 SCS Same-Spin Energy      =      -0.2448202414762825 [Eh]
	 SCS Opposite-Spin Energy  =      -2.7180328559135778 [Eh]
	 SCS Correlation Energy    =      -2.9628530973898601 [Eh]
	 SCS Total Energy          =    -670.2233494926696267 [Eh]
	-----------------------------------------------------------

  Dipole Moment: [D]
     X:     0.1422      Y:     1.0854      Z:     0.3334     Total:     1.1443

*** Psi4 exiting successfully. Buy a developer a beer!
