                               Psi4 1.3.2 release

  ==> Input File <==

--------------------------------------------------------------------------
#psi4
#
memory 32 gb

molecule  {
0 1
  O       -0.0649480    -2.0007500    -0.4572220
  N        2.4164374    -1.6192685     0.4250857
  C        0.8099710     0.2105070    -0.2160820
  C        2.1525410    -0.1743900     0.0797160
  C       -0.2789970    -0.7898520    -0.2615780
  C       -1.6915990    -0.3449750    -0.0589870
  C        0.5343510     1.5458860    -0.5628900
  C        3.1364470     0.8361460     0.1179860
  C        1.5277130     2.5174420    -0.5614560
  C        2.8303350     2.1515420    -0.2122750
  C       -2.0336590     0.6403590     0.8794580
  C       -2.7013800    -1.0161980    -0.7629970
  C       -3.3755740     0.9555500     1.0975090
  C       -4.0377320    -0.6802290    -0.5577760
  C        3.8275740    -1.9241930     0.5318010
  C       -4.3779170     0.3056950     0.3735650
  H       -0.4794410     1.8136050    -0.8470490
  H        4.1617050     0.5791300     0.3641360
  H        1.7801010    -2.1461120     0.0568400
  H        1.2958720     3.5406330    -0.8437660
  H        3.6204230     2.8995150    -0.1925990
  H       -1.2541740     1.1373190     1.4511930
  H       -2.4205700    -1.7983260    -1.4636490
  H       -3.6394530     1.7093650     1.8355280
  H       -4.8171580    -1.1915530    -1.1177270
  H        4.4331860    -1.7182640    -0.3623870
  H        3.8136890    -3.0019290     0.7024740
  H        4.3131750    -1.4541550     1.3926990
  H       -5.4217990     0.5615290     0.5392290
units angstrom
no_reorient  #important for SAPT in psi4, default
symmetry c1  #important for SAPT in psi4, default
}

set PROPERTIES_ORIGIN ["COM"]
properties('MP2/aug-cc-pvtz', properties = ['dipole'])
--------------------------------------------------------------------------

    Molecular point group: c1
  Charge       = 0
  Multiplicity = 1
  Basis Set: AUG-CC-PVTZ
    Blend: AUG-CC-PVTZ
  Basis Set: (AUG-CC-PVTZ AUX)
    Blend: AUG-CC-PVTZ-JKFIT

    Orbital Energies [Eh]
    ---------------------

    Doubly Occupied:

       1A    -20.541769     2A    -15.550064     3A    -11.341973
       4A    -11.301306     5A    -11.256395     6A    -11.255260
       7A    -11.252776     8A    -11.251337     9A    -11.250991
      10A    -11.250740    11A    -11.248220    12A    -11.246114
      13A    -11.245980    14A    -11.244591    15A    -11.238665
      16A    -11.235145    17A     -1.373641    18A     -1.219420
      19A     -1.165074    20A     -1.147647    21A     -1.058999
      22A     -1.026954    23A     -1.022330    24A     -1.012700
      25A     -0.924796    26A     -0.893835    27A     -0.844419
      28A     -0.835475    29A     -0.816594    30A     -0.770159
      31A     -0.719725    32A     -0.698133    33A     -0.684689
      34A     -0.652828    35A     -0.646895    36A     -0.633721
      37A     -0.620187    38A     -0.611964    39A     -0.609145
      40A     -0.600053    41A     -0.597587    42A     -0.585958
      43A     -0.545246    44A     -0.540612    45A     -0.523417
      46A     -0.519607    47A     -0.512601    48A     -0.502812
      49A     -0.498534    50A     -0.484724    51A     -0.424425
      52A     -0.415294    53A     -0.352827    54A     -0.346232
      55A     -0.344498    56A     -0.307616

  @DF-RHF Final Energy:  -667.23442173134742

   => Energetics <=

    Nuclear Repulsion Energy =           1000.2240633439953399
    One-Electron Energy =               -2891.3115677882210548
    Two-Electron Energy =                1223.8530827128784040
    Total Energy =                       -667.2344217313473109
  Basis Set: (AUG-CC-PVTZ AUX)
    Blend: AUG-CC-PVTZ-RI
    Molecular point group: c1

    Geometry (in Angstrom), charge = 0, multiplicity = 1:

       Center              X                  Y                   Z               Mass
    ------------   -----------------  -----------------  -----------------  -----------------
         O           -0.036957910800    -1.986827471145    -0.451527932489    15.994914619570
         N            2.444427489200    -1.605345971145     0.430779767511    14.003074004430
         C            0.837961089200     0.224429528855    -0.210387932489    12.000000000000
         C            2.180531089200    -0.160467471145     0.085410067511    12.000000000000
         C           -0.251006910800    -0.775929471145    -0.255883932489    12.000000000000
         C           -1.663608910800    -0.331052471145    -0.053292932489    12.000000000000
         C            0.562341089200     1.559808528855    -0.557195932489    12.000000000000
         C            3.164437089200     0.850068528855     0.123680067511    12.000000000000
         C            1.555703089200     2.531364528855    -0.555761932489    12.000000000000
         C            2.858325089200     2.165464528855    -0.206580932489    12.000000000000
         C           -2.005668910800     0.654281528855     0.885152067511    12.000000000000
         C           -2.673389910800    -1.002275471145    -0.757302932489    12.000000000000
         C           -3.347583910800     0.969472528855     1.103203067511    12.000000000000
         C           -4.009741910800    -0.666306471145    -0.552081932489    12.000000000000
         C            3.855564089200    -1.910270471145     0.537495067511    12.000000000000
         C           -4.349926910800     0.319617528855     0.379259067511    12.000000000000
         H           -0.451450910800     1.827527528855    -0.841354932489     1.007825032230
         H            4.189695089200     0.593052528855     0.369830067511     1.007825032230
         H            1.808091089200    -2.132189471145     0.062534067511     1.007825032230
         H            1.323862089200     3.554555528855    -0.838071932489     1.007825032230
         H            3.648413089200     2.913437528855    -0.186904932489     1.007825032230
         H           -1.226183910800     1.151241528855     1.456887067511     1.007825032230
         H           -2.392579910800    -1.784403471145    -1.457954932489     1.007825032230
         H           -3.611462910800     1.723287528855     1.841222067511     1.007825032230
         H           -4.789167910800    -1.177630471145    -1.112032932489     1.007825032230
         H            4.461176089200    -1.704341471145    -0.356692932489     1.007825032230
         H            3.841679089200    -2.988006471145     0.708168067511     1.007825032230
         H            4.341165089200    -1.440232471145     1.398393067511     1.007825032230
         H           -5.393808910800     0.575451528855     0.544923067511     1.007825032230

  Basis Set: AUG-CC-PVTZ
    Blend: AUG-CC-PVTZ
  Basis Set: (AUG-CC-PVTZ AUX)
    Blend: AUG-CC-PVTZ-JKFIT
	 Reference Energy          =    -667.2344217313474246 [Eh]
	 Singles Energy            =      -0.0000000000000000 [Eh]
	 Same-Spin Energy          =      -0.7339826742533907 [Eh]
	 Opposite-Spin Energy      =      -2.2661503006344206 [Eh]
	 Correlation Energy        =      -3.0001329748878112 [Eh]
	 Total Energy              =    -670.2345547062352580 [Eh]

	 ================> DF-SCS-MP2 Energies <==================
	-----------------------------------------------------------
	 SCS Same-Spin Scale       =       0.3333333333333333 [-]
	 SCS Opposite-Spin Scale   =       1.2000000000000000 [-]
	 SCS Same-Spin Energy      =      -0.2446608914177969 [Eh]
	 SCS Opposite-Spin Energy  =      -2.7193803607613045 [Eh]
	 SCS Correlation Energy    =      -2.9640412521791015 [Eh]
	 SCS Total Energy          =    -670.1984629835264968 [Eh]
	-----------------------------------------------------------

  Dipole Moment: [D]
     X:     0.0319      Y:     2.0096      Z:     0.0991     Total:     2.0123

*** Psi4 exiting successfully. Buy a developer a beer!
