                               Psi4 1.3.2 release

  ==> Input File <==

--------------------------------------------------------------------------
#psi4
#
memory 32 gb

molecule  {
0 1
  O       -0.0649480    -2.0007500    -0.4572220
  N        2.4573690    -1.4749290     0.4038410
  C        0.7628126     0.1995422    -0.2243006
  C        2.1525410    -0.1743900     0.0797160
  C       -0.2789970    -0.7898520    -0.2615780
  C       -1.6915990    -0.3449750    -0.0589870
  C        0.5343510     1.5458860    -0.5628900
  C        3.1364470     0.8361460     0.1179860
  C        1.5277130     2.5174420    -0.5614560
  C        2.8303350     2.1515420    -0.2122750
  C       -2.0336590     0.6403590     0.8794580
  C       -2.7013800    -1.0161980    -0.7629970
  C       -3.3755740     0.9555500     1.0975090
  C       -4.0377320    -0.6802290    -0.5577760
  C        3.8275740    -1.9241930     0.5318010
  C       -4.3779170     0.3056950     0.3735650
  H       -0.4794410     1.8136050    -0.8470490
  H        4.1617050     0.5791300     0.3641360
  H        1.7801010    -2.1461120     0.0568400
  H        1.2958720     3.5406330    -0.8437660
  H        3.6204230     2.8995150    -0.1925990
  H       -1.2541740     1.1373190     1.4511930
  H       -2.4205700    -1.7983260    -1.4636490
  H       -3.6394530     1.7093650     1.8355280
  H       -4.8171580    -1.1915530    -1.1177270
  H        4.4331860    -1.7182640    -0.3623870
  H        3.8136890    -3.0019290     0.7024740
  H        4.3131750    -1.4541550     1.3926990
  H       -5.4217990     0.5615290     0.5392290
units angstrom
no_reorient  #important for SAPT in psi4, default
symmetry c1  #important for SAPT in psi4, default
}

set PROPERTIES_ORIGIN ["COM"]
properties('MP2/aug-cc-pvtz', properties = ['dipole'])
--------------------------------------------------------------------------

    Molecular point group: c1
  Charge       = 0
  Multiplicity = 1
  Basis Set: AUG-CC-PVTZ
    Blend: AUG-CC-PVTZ
  Basis Set: (AUG-CC-PVTZ AUX)
    Blend: AUG-CC-PVTZ-JKFIT

    Orbital Energies [Eh]
    ---------------------

    Doubly Occupied:

       1A    -20.536585     2A    -15.564897     3A    -11.335751
       4A    -11.303954     5A    -11.258277     6A    -11.256108
       7A    -11.255255     8A    -11.250113     9A    -11.249086
      10A    -11.247487    11A    -11.245542    12A    -11.243963
      13A    -11.242480    14A    -11.238956    15A    -11.229098
      16A    -11.226264    17A     -1.370990    18A     -1.244995
      19A     -1.162658    20A     -1.141276    21A     -1.059489
      22A     -1.024548    23A     -1.019905    24A     -1.008937
      25A     -0.932220    26A     -0.892064    27A     -0.845278
      28A     -0.833174    29A     -0.806088    30A     -0.771094
      31A     -0.718073    32A     -0.704621    33A     -0.682783
      34A     -0.656206    35A     -0.644169    36A     -0.633405
      37A     -0.618899    38A     -0.615585    39A     -0.607615
      40A     -0.602731    41A     -0.595191    42A     -0.577537
      43A     -0.545344    44A     -0.543629    45A     -0.532263
      46A     -0.519819    47A     -0.511341    48A     -0.500549
      49A     -0.499427    50A     -0.484615    51A     -0.430664
      52A     -0.420154    53A     -0.351907    54A     -0.344408
      55A     -0.342361    56A     -0.290959

  @DF-RHF Final Energy:  -667.25957995177384

   => Energetics <=

    Nuclear Repulsion Energy =           1002.5468663995802672
    One-Electron Energy =               -2896.0713175441819658
    Two-Electron Energy =                1226.2648711928279681
    Total Energy =                       -667.2595799517737305
  Basis Set: (AUG-CC-PVTZ AUX)
    Blend: AUG-CC-PVTZ-RI
    Molecular point group: c1

    Geometry (in Angstrom), charge = 0, multiplicity = 1:

       Center              X                  Y                   Z               Mass
    ------------   -----------------  -----------------  -----------------  -----------------
         O           -0.036992337298    -1.995778781708    -0.449651500263    15.994914619570
         N            2.485324662702    -1.469957781708     0.411411499737    14.003074004430
         C            0.790768262702     0.204513418292    -0.216730100263    12.000000000000
         C            2.180496662702    -0.169418781708     0.087286499737    12.000000000000
         C           -0.251041337298    -0.784880781708    -0.254007500263    12.000000000000
         C           -1.663643337298    -0.340003781708    -0.051416500263    12.000000000000
         C            0.562306662702     1.550857218292    -0.555319500263    12.000000000000
         C            3.164402662702     0.841117218292     0.125556499737    12.000000000000
         C            1.555668662702     2.522413218292    -0.553885500263    12.000000000000
         C            2.858290662702     2.156513218292    -0.204704500263    12.000000000000
         C           -2.005703337298     0.645330218292     0.887028499737    12.000000000000
         C           -2.673424337298    -1.011226781708    -0.755426500263    12.000000000000
         C           -3.347618337298     0.960521218292     1.105079499737    12.000000000000
         C           -4.009776337298    -0.675257781708    -0.550205500263    12.000000000000
         C            3.855529662702    -1.919221781708     0.539371499737    12.000000000000
         C           -4.349961337298     0.310666218292     0.381135499737    12.000000000000
         H           -0.451485337298     1.818576218292    -0.839478500263     1.007825032230
         H            4.189660662702     0.584101218292     0.371706499737     1.007825032230
         H            1.808056662702    -2.141140781708     0.064410499737     1.007825032230
         H            1.323827662702     3.545604218292    -0.836195500263     1.007825032230
         H            3.648378662702     2.904486218292    -0.185028500263     1.007825032230
         H           -1.226218337298     1.142290218292     1.458763499737     1.007825032230
         H           -2.392614337298    -1.793354781708    -1.456078500263     1.007825032230
         H           -3.611497337298     1.714336218292     1.843098499737     1.007825032230
         H           -4.789202337298    -1.186581781708    -1.110156500263     1.007825032230
         H            4.461141662702    -1.713292781708    -0.354816500263     1.007825032230
         H            3.841644662702    -2.996957781708     0.710044499737     1.007825032230
         H            4.341130662702    -1.449183781708     1.400269499737     1.007825032230
         H           -5.393843337298     0.566500218292     0.546799499737     1.007825032230

  Basis Set: AUG-CC-PVTZ
    Blend: AUG-CC-PVTZ
  Basis Set: (AUG-CC-PVTZ AUX)
    Blend: AUG-CC-PVTZ-JKFIT
	 Reference Energy          =    -667.2595799517738442 [Eh]
	 Singles Energy            =      -0.0000000000000000 [Eh]
	 Same-Spin Energy          =      -0.7349239653207927 [Eh]
	 Opposite-Spin Energy      =      -2.2657239195784591 [Eh]
	 Correlation Energy        =      -3.0006478848992519 [Eh]
	 Total Energy              =    -670.2602278366731525 [Eh]

	 ================> DF-SCS-MP2 Energies <==================
	-----------------------------------------------------------
	 SCS Same-Spin Scale       =       0.3333333333333333 [-]
	 SCS Opposite-Spin Scale   =       1.2000000000000000 [-]
	 SCS Same-Spin Energy      =      -0.2449746551069309 [Eh]
	 SCS Opposite-Spin Energy  =      -2.7188687034941510 [Eh]
	 SCS Correlation Energy    =      -2.9638433586010819 [Eh]
	 SCS Total Energy          =    -670.2234233103749830 [Eh]
	-----------------------------------------------------------

  Dipole Moment: [D]
     X:     0.5414      Y:     1.2391      Z:     0.3681     Total:     1.4014

*** Psi4 exiting successfully. Buy a developer a beer!
