                               Psi4 1.3.2 release

  ==> Input File <==

--------------------------------------------------------------------------
#psi4
#
memory 32 gb

molecule  {
0 1
  O       -0.0649480    -2.0007500    -0.4572220
  N        2.4573690    -1.4749290     0.4038410
  C        0.8099710     0.2105070    -0.2160820
  C        2.1525410    -0.1743900     0.0797160
  C       -0.4262140    -0.9250900    -0.2677286
  C       -1.6915990    -0.3449750    -0.0589870
  C        0.5343510     1.5458860    -0.5628900
  C        3.1364470     0.8361460     0.1179860
  C        1.5277130     2.5174420    -0.5614560
  C        2.8303350     2.1515420    -0.2122750
  C       -2.0336590     0.6403590     0.8794580
  C       -2.7013800    -1.0161980    -0.7629970
  C       -3.3755740     0.9555500     1.0975090
  C       -4.0377320    -0.6802290    -0.5577760
  C        3.8275740    -1.9241930     0.5318010
  C       -4.3779170     0.3056950     0.3735650
  H       -0.4794410     1.8136050    -0.8470490
  H        4.1617050     0.5791300     0.3641360
  H        1.7801010    -2.1461120     0.0568400
  H        1.2958720     3.5406330    -0.8437660
  H        3.6204230     2.8995150    -0.1925990
  H       -1.2541740     1.1373190     1.4511930
  H       -2.4205700    -1.7983260    -1.4636490
  H       -3.6394530     1.7093650     1.8355280
  H       -4.8171580    -1.1915530    -1.1177270
  H        4.4331860    -1.7182640    -0.3623870
  H        3.8136890    -3.0019290     0.7024740
  H        4.3131750    -1.4541550     1.3926990
  H       -5.4217990     0.5615290     0.5392290
units angstrom
no_reorient  #important for SAPT in psi4, default
symmetry c1  #important for SAPT in psi4, default
}

set PROPERTIES_ORIGIN ["COM"]
properties('MP2/aug-cc-pvtz', properties = ['dipole'])
--------------------------------------------------------------------------

    Molecular point group: c1
  Charge       = 0
  Multiplicity = 1
  Basis Set: AUG-CC-PVTZ
    Blend: AUG-CC-PVTZ
  Basis Set: (AUG-CC-PVTZ AUX)
    Blend: AUG-CC-PVTZ-JKFIT

    Orbital Energies [Eh]
    ---------------------

    Doubly Occupied:

       1A    -20.557603     2A    -15.552321     3A    -11.342726
       4A    -11.280628     5A    -11.263856     6A    -11.260741
       7A    -11.257284     8A    -11.253284     9A    -11.251004
      10A    -11.250818    11A    -11.250406    12A    -11.235903
      13A    -11.235328    14A    -11.230682    15A    -11.217922
      16A    -11.214855    17A     -1.446374    18A     -1.234511
      19A     -1.176253    20A     -1.126218    21A     -1.064555
      22A     -1.034488    23A     -1.006084    24A     -0.997126
      25A     -0.919034    26A     -0.894071    27A     -0.850091
      28A     -0.824773    29A     -0.795447    30A     -0.773658
      31A     -0.719301    32A     -0.697923    33A     -0.683614
      34A     -0.674853    35A     -0.651379    36A     -0.635573
      37A     -0.623522    38A     -0.612014    39A     -0.607651
      40A     -0.605623    41A     -0.598880    42A     -0.573334
      43A     -0.566321    44A     -0.535284    45A     -0.534372
      46A     -0.521917    47A     -0.514857    48A     -0.510959
      49A     -0.498062    50A     -0.491138    51A     -0.419939
      52A     -0.394748    53A     -0.356522    54A     -0.353867
      55A     -0.333157    56A     -0.279325

  @DF-RHF Final Energy:  -667.23169044544329

   => Energetics <=

    Nuclear Repulsion Energy =           1002.2070696548909154
    One-Electron Energy =               -2895.2931575995194180
    Two-Electron Energy =                1225.8543974991853247
    Total Energy =                       -667.2316904454432915
  Basis Set: (AUG-CC-PVTZ AUX)
    Blend: AUG-CC-PVTZ-RI
    Molecular point group: c1

    Geometry (in Angstrom), charge = 0, multiplicity = 1:

       Center              X                  Y                   Z               Mass
    ------------   -----------------  -----------------  -----------------  -----------------
         O           -0.031304488760    -1.988714450017    -0.449769056083    15.994914619570
         N            2.491012511240    -1.462893450017     0.411293943917    14.003074004430
         C            0.843614511240     0.222542549983    -0.208629056083    12.000000000000
         C            2.186184511240    -0.162354450017     0.087168943917    12.000000000000
         C           -0.392570488760    -0.913054450017    -0.260275656083    12.000000000000
         C           -1.657955488760    -0.332939450017    -0.051534056083    12.000000000000
         C            0.567994511240     1.557921549983    -0.555437056083    12.000000000000
         C            3.170090511240     0.848181549983     0.125438943917    12.000000000000
         C            1.561356511240     2.529477549983    -0.554003056083    12.000000000000
         C            2.863978511240     2.163577549983    -0.204822056083    12.000000000000
         C           -2.000015488760     0.652394549983     0.886910943917    12.000000000000
         C           -2.667736488760    -1.004162450017    -0.755544056083    12.000000000000
         C           -3.341930488760     0.967585549983     1.104961943917    12.000000000000
         C           -4.004088488760    -0.668193450017    -0.550323056083    12.000000000000
         C            3.861217511240    -1.912157450017     0.539253943917    12.000000000000
         C           -4.344273488760     0.317730549983     0.381017943917    12.000000000000
         H           -0.445797488760     1.825640549983    -0.839596056083     1.007825032230
         H            4.195348511240     0.591165549983     0.371588943917     1.007825032230
         H            1.813744511240    -2.134076450017     0.064292943917     1.007825032230
         H            1.329515511240     3.552668549983    -0.836313056083     1.007825032230
         H            3.654066511240     2.911550549983    -0.185146056083     1.007825032230
         H           -1.220530488760     1.149354549983     1.458645943917     1.007825032230
         H           -2.386926488760    -1.786290450017    -1.456196056083     1.007825032230
         H           -3.605809488760     1.721400549983     1.842980943917     1.007825032230
         H           -4.783514488760    -1.179517450017    -1.110274056083     1.007825032230
         H            4.466829511240    -1.706228450017    -0.354934056083     1.007825032230
         H            3.847332511240    -2.989893450017     0.709926943917     1.007825032230
         H            4.346818511240    -1.442119450017     1.400151943917     1.007825032230
         H           -5.388155488760     0.573564549983     0.546681943917     1.007825032230

  Basis Set: AUG-CC-PVTZ
    Blend: AUG-CC-PVTZ
  Basis Set: (AUG-CC-PVTZ AUX)
    Blend: AUG-CC-PVTZ-JKFIT
	 Reference Energy          =    -667.2316904454432915 [Eh]
	 Singles Energy            =      -0.0000000000000000 [Eh]
	 Same-Spin Energy          =      -0.7334197211030509 [Eh]
	 Opposite-Spin Energy      =      -2.2626587145463537 [Eh]
	 Correlation Energy        =      -2.9960784356494043 [Eh]
	 Total Energy              =    -670.2277688810927430 [Eh]

	 ================> DF-SCS-MP2 Energies <==================
	-----------------------------------------------------------
	 SCS Same-Spin Scale       =       0.3333333333333333 [-]
	 SCS Opposite-Spin Scale   =       1.2000000000000000 [-]
	 SCS Same-Spin Energy      =      -0.2444732403676836 [Eh]
	 SCS Opposite-Spin Energy  =      -2.7151904574556243 [Eh]
	 SCS Correlation Energy    =      -2.9596636978233080 [Eh]
	 SCS Total Energy          =    -670.1913541432666079 [Eh]
	-----------------------------------------------------------

  Dipole Moment: [D]
     X:    -1.5095      Y:     0.3525      Z:     0.3889     Total:     1.5981

*** Psi4 exiting successfully. Buy a developer a beer!
