                               Psi4 1.4a3.dev225

  ==> Input File <==

--------------------------------------------------------------------------
#psi4
#
memory 32 gb

molecule  {
0 1
  O       -0.0649480    -2.0007500    -0.4572220
  N        2.4573690    -1.4749290     0.4038410
  C        0.8099710     0.2105070    -0.2160820
  C        2.1525410    -0.1743900     0.0797160
  C       -0.2789970    -0.7898520    -0.2615780
  C       -1.6915990    -0.3449750    -0.0589870
  C        0.5343510     1.5458860    -0.5628900
  C        3.1364470     0.8361460     0.1179860
  C        1.5277130     2.5174420    -0.5614560
  C        2.8303350     2.1515420    -0.2122750
  C       -2.0336590     0.6403590     0.8794580
  C       -2.7013800    -1.0161980    -0.7629970
  C       -3.3755740     0.9555500     1.0975090
  C       -4.0377320    -0.6802290    -0.5577760
  C        3.7802487    -1.9086759     0.5273814
  C       -4.3779170     0.3056950     0.3735650
  H       -0.4794410     1.8136050    -0.8470490
  H        4.1617050     0.5791300     0.3641360
  H        1.7801010    -2.1461120     0.0568400
  H        1.2958720     3.5406330    -0.8437660
  H        3.6204230     2.8995150    -0.1925990
  H       -1.2541740     1.1373190     1.4511930
  H       -2.4205700    -1.7983260    -1.4636490
  H       -3.6394530     1.7093650     1.8355280
  H       -4.8171580    -1.1915530    -1.1177270
  H        4.4331860    -1.7182640    -0.3623870
  H        3.8136890    -3.0019290     0.7024740
  H        4.3131750    -1.4541550     1.3926990
  H       -5.4217990     0.5615290     0.5392290
units angstrom
no_reorient  #important for SAPT in psi4, default
symmetry c1  #important for SAPT in psi4, default
}

set PROPERTIES_ORIGIN ["COM"]
properties('MP2/aug-cc-pvtz', properties = ['dipole'])
--------------------------------------------------------------------------

    Molecular point group: c1
  Charge       = 0
  Multiplicity = 1
  Basis Set: AUG-CC-PVTZ
    Blend: AUG-CC-PVTZ
  Basis Set: (AUG-CC-PVTZ AUX)
    Blend: AUG-CC-PVTZ-JKFIT

    Orbital Energies [Eh]
    ---------------------

    Doubly Occupied:

       1A    -20.540867     2A    -15.562392     3A    -11.341235
       4A    -11.298189     5A    -11.257345     6A    -11.253479
       7A    -11.253400     8A    -11.252050     9A    -11.250797
      10A    -11.250000    11A    -11.247647    12A    -11.245514
      13A    -11.244088    14A    -11.240109    15A    -11.229956
      16A    -11.227219    17A     -1.373656    18A     -1.255130
      19A     -1.164271    20A     -1.144950    21A     -1.056974
      22A     -1.026249    23A     -1.021700    24A     -1.012722
      25A     -0.926178    26A     -0.889223    27A     -0.846051
      28A     -0.835082    29A     -0.808125    30A     -0.772924
      31A     -0.719324    32A     -0.703888    33A     -0.686924
      34A     -0.659629    35A     -0.646943    36A     -0.634597
      37A     -0.619953    38A     -0.616218    39A     -0.610344
      40A     -0.602111    41A     -0.596579    42A     -0.583217
      43A     -0.544859    44A     -0.535724    45A     -0.529053
      46A     -0.518188    47A     -0.512291    48A     -0.505229
      49A     -0.501885    50A     -0.486538    51A     -0.426172
      52A     -0.419866    53A     -0.351199    54A     -0.345808
      55A     -0.343814    56A     -0.293539

  @DF-RHF Final Energy:  -667.26021148154018

   => Energetics <=

    Nuclear Repulsion Energy =           1003.5738059387675776
    One-Electron Energy =               -2898.0252043501823209
    Two-Electron Energy =                1227.1911869298744477
    Total Energy =                       -667.2602114815401819
  Basis Set: (AUG-CC-PVTZ AUX)
    Blend: AUG-CC-PVTZ-RI
    Molecular point group: c1

    Geometry (in Angstrom), charge = 0, multiplicity = 1:

       Center              X                  Y                   Z               Mass
    ------------   -----------------  -----------------  -----------------  -----------------
         O           -0.036982849839    -1.997284149924    -0.449867455079    15.994914619570
         N            2.485334150161    -1.471463149924     0.411195544921    14.003074004430
         C            0.837936150161     0.213972850076    -0.208727455079    12.000000000000
         C            2.180506150161    -0.170924149924     0.087070544921    12.000000000000
         C           -0.251031849839    -0.786386149924    -0.254223455079    12.000000000000
         C           -1.663633849839    -0.341509149924    -0.051632455079    12.000000000000
         C            0.562316150161     1.549351850076    -0.555535455079    12.000000000000
         C            3.164412150161     0.839611850076     0.125340544921    12.000000000000
         C            1.555678150161     2.520907850076    -0.554101455079    12.000000000000
         C            2.858300150161     2.155007850076    -0.204920455079    12.000000000000
         C           -2.005693849839     0.643824850076     0.886812544921    12.000000000000
         C           -2.673414849839    -1.012732149924    -0.755642455079    12.000000000000
         C           -3.347608849839     0.959015850076     1.104863544921    12.000000000000
         C           -4.009766849839    -0.676763149924    -0.550421455079    12.000000000000
         C            3.808213850161    -1.905210049924     0.534735944921    12.000000000000
         C           -4.349951849839     0.309160850076     0.380919544921    12.000000000000
         H           -0.451475849839     1.817070850076    -0.839694455079     1.007825032230
         H            4.189670150161     0.582595850076     0.371490544921     1.007825032230
         H            1.808066150161    -2.142646149924     0.064194544921     1.007825032230
         H            1.323837150161     3.544098850076    -0.836411455079     1.007825032230
         H            3.648388150161     2.902980850076    -0.185244455079     1.007825032230
         H           -1.226208849839     1.140784850076     1.458547544921     1.007825032230
         H           -2.392604849839    -1.794860149924    -1.456294455079     1.007825032230
         H           -3.611487849839     1.712830850076     1.842882544921     1.007825032230
         H           -4.789192849839    -1.188087149924    -1.110372455079     1.007825032230
         H            4.461151150161    -1.714798149924    -0.355032455079     1.007825032230
         H            3.841654150161    -2.998463149924     0.709828544921     1.007825032230
         H            4.341140150161    -1.450689149924     1.400053544921     1.007825032230
         H           -5.393833849839     0.564994850076     0.546583544921     1.007825032230

  Basis Set: AUG-CC-PVTZ
    Blend: AUG-CC-PVTZ
  Basis Set: (AUG-CC-PVTZ AUX)
    Blend: AUG-CC-PVTZ-JKFIT
	 Reference Energy          =    -667.2602114815401819 [Eh]
	 Singles Energy            =      -0.0000000000000000 [Eh]
	 Same-Spin Energy          =      -0.7349958115867858 [Eh]
	 Opposite-Spin Energy      =      -2.2653428243612703 [Eh]
	 Correlation Energy        =      -3.0003386359480562 [Eh]
	 Total Energy              =    -670.2605501174882647 [Eh]

	 ================> DF-SCS-MP2 Energies <==================
	-----------------------------------------------------------
	 SCS Same-Spin Scale       =       0.3333333333333333 [-]
	 SCS Opposite-Spin Scale   =       1.2000000000000000 [-]
	 SCS Same-Spin Energy      =      -0.2449986038622619 [Eh]
	 SCS Opposite-Spin Energy  =      -2.7184113892335242 [Eh]
	 SCS Correlation Energy    =      -2.9634099930957860 [Eh]
	 SCS Total Energy          =    -670.2236214746359337 [Eh]
	-----------------------------------------------------------

  Dipole Moment: [D]
     X:     0.1273      Y:     1.3043      Z:     0.3274     Total:     1.3508

*** Psi4 exiting successfully. Buy a developer a beer!
