                               Psi4 1.4a3.dev225

  ==> Input File <==

--------------------------------------------------------------------------
#psi4
#
memory 32 gb

molecule  {
0 1
  O       -0.0649480    -2.0007500    -0.4572220
  N        2.4573690    -1.4749290     0.4038410
  C        0.8099710     0.2105070    -0.2160820
  C        2.1525410    -0.1743900     0.0797160
  C       -0.2755588    -0.8093020    -0.2647205
  C       -1.6915990    -0.3449750    -0.0589870
  C        0.5343510     1.5458860    -0.5628900
  C        3.1364470     0.8361460     0.1179860
  C        1.5277130     2.5174420    -0.5614560
  C        2.8303350     2.1515420    -0.2122750
  C       -2.0336590     0.6403590     0.8794580
  C       -2.7013800    -1.0161980    -0.7629970
  C       -3.3755740     0.9555500     1.0975090
  C       -4.0377320    -0.6802290    -0.5577760
  C        3.8275740    -1.9241930     0.5318010
  C       -4.3779170     0.3056950     0.3735650
  H       -0.4794410     1.8136050    -0.8470490
  H        4.1617050     0.5791300     0.3641360
  H        1.7801010    -2.1461120     0.0568400
  H        1.2958720     3.5406330    -0.8437660
  H        3.6204230     2.8995150    -0.1925990
  H       -1.2541740     1.1373190     1.4511930
  H       -2.4205700    -1.7983260    -1.4636490
  H       -3.6394530     1.7093650     1.8355280
  H       -4.8171580    -1.1915530    -1.1177270
  H        4.4331860    -1.7182640    -0.3623870
  H        3.8136890    -3.0019290     0.7024740
  H        4.3131750    -1.4541550     1.3926990
  H       -5.4217990     0.5615290     0.5392290
units angstrom
no_reorient  #important for SAPT in psi4, default
symmetry c1  #important for SAPT in psi4, default
}

set PROPERTIES_ORIGIN ["COM"]
properties('MP2/aug-cc-pvtz', properties = ['dipole'])
--------------------------------------------------------------------------

    Molecular point group: c1
  Charge       = 0
  Multiplicity = 1
  Basis Set: AUG-CC-PVTZ
    Blend: AUG-CC-PVTZ
  Basis Set: (AUG-CC-PVTZ AUX)
    Blend: AUG-CC-PVTZ-JKFIT

    Orbital Energies [Eh]
    ---------------------

    Doubly Occupied:

       1A    -20.542900     2A    -15.561828     3A    -11.339958
       4A    -11.296115     5A    -11.257123     6A    -11.251884
       7A    -11.251703     8A    -11.250893     9A    -11.249630
      10A    -11.248867    11A    -11.246385    12A    -11.244680
      13A    -11.243197    14A    -11.238294    15A    -11.228323
      16A    -11.225456    17A     -1.386678    18A     -1.244466
      19A     -1.162836    20A     -1.141180    21A     -1.054244
      22A     -1.024987    23A     -1.019652    24A     -1.009447
      25A     -0.928798    26A     -0.887095    27A     -0.844372
      28A     -0.833846    29A     -0.806898    30A     -0.771108
      31A     -0.717450    32A     -0.701691    33A     -0.684068
      34A     -0.656240    35A     -0.646408    36A     -0.633256
      37A     -0.619347    38A     -0.615181    39A     -0.609414
      40A     -0.602163    41A     -0.595822    42A     -0.578571
      43A     -0.548821    44A     -0.542214    45A     -0.531572
      46A     -0.520177    47A     -0.512359    48A     -0.504002
      49A     -0.501132    50A     -0.489877    51A     -0.429151
      52A     -0.417463    53A     -0.350000    54A     -0.345024
      55A     -0.342900    56A     -0.291692

  @DF-RHF Final Energy:  -667.26453885888259

   => Energetics <=

    Nuclear Repulsion Energy =           1002.5147762683469637
    One-Electron Energy =               -2896.0009530448869555
    Two-Electron Energy =                1226.2216379176575174
    Total Energy =                       -667.2645388588825881
  Basis Set: (AUG-CC-PVTZ AUX)
    Blend: AUG-CC-PVTZ-RI
    Molecular point group: c1

    Geometry (in Angstrom), charge = 0, multiplicity = 1:

       Center              X                  Y                   Z               Mass
    ------------   -----------------  -----------------  -----------------  -----------------
         O           -0.039868509835    -1.995296439037    -0.449940052051    15.994914619570
         N            2.482448490165    -1.469475439037     0.411122947949    14.003074004430
         C            0.835050490165     0.215960560963    -0.208800052051    12.000000000000
         C            2.177620490165    -0.168936439037     0.086997947949    12.000000000000
         C           -0.250479309835    -0.803848439037    -0.257438552051    12.000000000000
         C           -1.666519509835    -0.339521439037    -0.051705052051    12.000000000000
         C            0.559430490165     1.551339560963    -0.555608052051    12.000000000000
         C            3.161526490165     0.841599560963     0.125267947949    12.000000000000
         C            1.552792490165     2.522895560963    -0.554174052051    12.000000000000
         C            2.855414490165     2.156995560963    -0.204993052051    12.000000000000
         C           -2.008579509835     0.645812560963     0.886739947949    12.000000000000
         C           -2.676300509835    -1.010744439037    -0.755715052051    12.000000000000
         C           -3.350494509835     0.961003560963     1.104790947949    12.000000000000
         C           -4.012652509835    -0.674775439037    -0.550494052051    12.000000000000
         C            3.852653490165    -1.918739439037     0.539082947949    12.000000000000
         C           -4.352837509835     0.311148560963     0.380846947949    12.000000000000
         H           -0.454361509835     1.819058560963    -0.839767052051     1.007825032230
         H            4.186784490165     0.584583560963     0.371417947949     1.007825032230
         H            1.805180490165    -2.140658439037     0.064121947949     1.007825032230
         H            1.320951490165     3.546086560963    -0.836484052051     1.007825032230
         H            3.645502490165     2.904968560963    -0.185317052051     1.007825032230
         H           -1.229094509835     1.142772560963     1.458474947949     1.007825032230
         H           -2.395490509835    -1.792872439037    -1.456367052051     1.007825032230
         H           -3.614373509835     1.714818560963     1.842809947949     1.007825032230
         H           -4.792078509835    -1.186099439037    -1.110445052051     1.007825032230
         H            4.458265490165    -1.712810439037    -0.355105052051     1.007825032230
         H            3.838768490165    -2.996475439037     0.709755947949     1.007825032230
         H            4.338254490165    -1.448701439037     1.399980947949     1.007825032230
         H           -5.396719509835     0.566982560963     0.546510947949     1.007825032230

  Basis Set: AUG-CC-PVTZ
    Blend: AUG-CC-PVTZ
  Basis Set: (AUG-CC-PVTZ AUX)
    Blend: AUG-CC-PVTZ-JKFIT
	 Reference Energy          =    -667.2645388588825881 [Eh]
	 Singles Energy            =      -0.0000000000000000 [Eh]
	 Same-Spin Energy          =      -0.7339722218446612 [Eh]
	 Opposite-Spin Energy      =      -2.2640542235928036 [Eh]
	 Correlation Energy        =      -2.9980264454374650 [Eh]
	 Total Energy              =    -670.2625653043201055 [Eh]

	 ================> DF-SCS-MP2 Energies <==================
	-----------------------------------------------------------
	 SCS Same-Spin Scale       =       0.3333333333333333 [-]
	 SCS Opposite-Spin Scale   =       1.2000000000000000 [-]
	 SCS Same-Spin Energy      =      -0.2446574072815537 [Eh]
	 SCS Opposite-Spin Energy  =      -2.7168650683113644 [Eh]
	 SCS Correlation Energy    =      -2.9615224755929179 [Eh]
	 SCS Total Energy          =    -670.2260613344755029 [Eh]
	-----------------------------------------------------------

  Dipole Moment: [D]
     X:     0.3092      Y:     1.1083      Z:     0.3275     Total:     1.1963

*** Psi4 exiting successfully. Buy a developer a beer!
