                               Psi4 1.3.2 release

  ==> Input File <==

--------------------------------------------------------------------------
#psi4
#
memory 32 gb

molecule  {
0 1
  O       -0.0649480    -2.0007500    -0.4572220
  N        2.4283821    -1.5707051     0.4178625
  C        0.8099710     0.2105070    -0.2160820
  C        2.1525410    -0.1743900     0.0797160
  C       -0.2789970    -0.7898520    -0.2615780
  C       -1.6915990    -0.3449750    -0.0589870
  C        0.5343510     1.5458860    -0.5628900
  C        3.1364470     0.8361460     0.1179860
  C        1.5277130     2.5174420    -0.5614560
  C        2.8303350     2.1515420    -0.2122750
  C       -2.0336590     0.6403590     0.8794580
  C       -2.7013800    -1.0161980    -0.7629970
  C       -3.3755740     0.9555500     1.0975090
  C       -4.0377320    -0.6802290    -0.5577760
  C        3.8275740    -1.9241930     0.5318010
  C       -4.3779170     0.3056950     0.3735650
  H       -0.4794410     1.8136050    -0.8470490
  H        4.1617050     0.5791300     0.3641360
  H        1.7801010    -2.1461120     0.0568400
  H        1.2958720     3.5406330    -0.8437660
  H        3.6204230     2.8995150    -0.1925990
  H       -1.2541740     1.1373190     1.4511930
  H       -2.4205700    -1.7983260    -1.4636490
  H       -3.6394530     1.7093650     1.8355280
  H       -4.8171580    -1.1915530    -1.1177270
  H        4.4331860    -1.7182640    -0.3623870
  H        3.8136890    -3.0019290     0.7024740
  H        4.3131750    -1.4541550     1.3926990
  H       -5.4217990     0.5615290     0.5392290
units angstrom
no_reorient  #important for SAPT in psi4, default
symmetry c1  #important for SAPT in psi4, default
}

set PROPERTIES_ORIGIN ["COM"]
properties('MP2/aug-cc-pvtz', properties = ['dipole'])
--------------------------------------------------------------------------

    Molecular point group: c1
  Charge       = 0
  Multiplicity = 1
  Basis Set: AUG-CC-PVTZ
    Blend: AUG-CC-PVTZ
  Basis Set: (AUG-CC-PVTZ AUX)
    Blend: AUG-CC-PVTZ-JKFIT

    Orbital Energies [Eh]
    ---------------------

    Doubly Occupied:

       1A    -20.541217     2A    -15.553403     3A    -11.341496
       4A    -11.300423     5A    -11.255337     6A    -11.254533
       7A    -11.252403     8A    -11.252257     9A    -11.251039
      10A    -11.250359    11A    -11.247899    12A    -11.245803
      13A    -11.244311    14A    -11.243801    15A    -11.235711
      16A    -11.232392    17A     -1.373363    18A     -1.225973
      19A     -1.164616    20A     -1.145841    21A     -1.058168
      22A     -1.026549    23A     -1.021826    24A     -1.011642
      25A     -0.924944    26A     -0.892284    27A     -0.844661
      28A     -0.835111    29A     -0.814075    30A     -0.770693
      31A     -0.719184    32A     -0.699638    33A     -0.684379
      34A     -0.653396    35A     -0.646178    36A     -0.633624
      37A     -0.619996    38A     -0.611610    39A     -0.608742
      40A     -0.600458    41A     -0.597120    42A     -0.583957
      43A     -0.545160    44A     -0.540065    45A     -0.524429
      46A     -0.521723    47A     -0.512611    48A     -0.503678
      49A     -0.501809    50A     -0.485801    51A     -0.423662
      52A     -0.419053    53A     -0.352149    54A     -0.345939
      55A     -0.344161    56A     -0.302491

  @DF-RHF Final Energy:  -667.25016309367402

   => Energetics <=

    Nuclear Repulsion Energy =           1000.9892683939243625
    One-Electron Energy =               -2892.8925766617408044
    Two-Electron Energy =                1224.6531451741425371
    Total Energy =                       -667.2501630936740185
  Basis Set: (AUG-CC-PVTZ AUX)
    Blend: AUG-CC-PVTZ-RI
    Molecular point group: c1

    Geometry (in Angstrom), charge = 0, multiplicity = 1:

       Center              X                  Y                   Z               Mass
    ------------   -----------------  -----------------  -----------------  -----------------
         O           -0.037750249713    -1.990048872401    -0.451048789233    15.994914619570
         N            2.455579850287    -1.560003972401     0.424035710767    14.003074004430
         C            0.837168750287     0.221208127599    -0.209908789233    12.000000000000
         C            2.179738750287    -0.163688872401     0.085889210767    12.000000000000
         C           -0.251799249713    -0.779150872401    -0.255404789233    12.000000000000
         C           -1.664401249713    -0.334273872401    -0.052813789233    12.000000000000
         C            0.561548750287     1.556587127599    -0.556716789233    12.000000000000
         C            3.163644750287     0.846847127599     0.124159210767    12.000000000000
         C            1.554910750287     2.528143127599    -0.555282789233    12.000000000000
         C            2.857532750287     2.162243127599    -0.206101789233    12.000000000000
         C           -2.006461249713     0.651060127599     0.885631210767    12.000000000000
         C           -2.674182249713    -1.005496872401    -0.756823789233    12.000000000000
         C           -3.348376249713     0.966251127599     1.103682210767    12.000000000000
         C           -4.010534249713    -0.669527872401    -0.551602789233    12.000000000000
         C            3.854771750287    -1.913491872401     0.537974210767    12.000000000000
         C           -4.350719249713     0.316396127599     0.379738210767    12.000000000000
         H           -0.452243249713     1.824306127599    -0.840875789233     1.007825032230
         H            4.188902750287     0.589831127599     0.370309210767     1.007825032230
         H            1.807298750287    -2.135410872401     0.063013210767     1.007825032230
         H            1.323069750287     3.551334127599    -0.837592789233     1.007825032230
         H            3.647620750287     2.910216127599    -0.186425789233     1.007825032230
         H           -1.226976249713     1.148020127599     1.457366210767     1.007825032230
         H           -2.393372249713    -1.787624872401    -1.457475789233     1.007825032230
         H           -3.612255249713     1.720066127599     1.841701210767     1.007825032230
         H           -4.789960249713    -1.180851872401    -1.111553789233     1.007825032230
         H            4.460383750287    -1.707562872401    -0.356213789233     1.007825032230
         H            3.840886750287    -2.991227872401     0.708647210767     1.007825032230
         H            4.340372750287    -1.443453872401     1.398872210767     1.007825032230
         H           -5.394601249713     0.572230127599     0.545402210767     1.007825032230

  Basis Set: AUG-CC-PVTZ
    Blend: AUG-CC-PVTZ
  Basis Set: (AUG-CC-PVTZ AUX)
    Blend: AUG-CC-PVTZ-JKFIT
	 Reference Energy          =    -667.2501630936740185 [Eh]
	 Singles Energy            =      -0.0000000000000000 [Eh]
	 Same-Spin Energy          =      -0.7340828217091986 [Eh]
	 Opposite-Spin Energy      =      -2.2655205728759800 [Eh]
	 Correlation Energy        =      -2.9996033945851783 [Eh]
	 Total Energy              =    -670.2497664882591835 [Eh]

	 ================> DF-SCS-MP2 Energies <==================
	-----------------------------------------------------------
	 SCS Same-Spin Scale       =       0.3333333333333333 [-]
	 SCS Opposite-Spin Scale   =       1.2000000000000000 [-]
	 SCS Same-Spin Energy      =      -0.2446942739030662 [Eh]
	 SCS Opposite-Spin Energy  =      -2.7186246874511757 [Eh]
	 SCS Correlation Energy    =      -2.9633189613542417 [Eh]
	 SCS Total Energy          =    -670.2134820550282939 [Eh]
	-----------------------------------------------------------

  Dipole Moment: [D]
     X:     0.1107      Y:     1.7557      Z:     0.1773     Total:     1.7681

*** Psi4 exiting successfully. Buy a developer a beer!
