                               Psi4 1.3.2 release

  ==> Input File <==

--------------------------------------------------------------------------
#psi4
#
memory 32 gb

molecule  {
0 1
  O       -0.0649480    -2.0007500    -0.4572220
  N        2.4573690    -1.4749290     0.4038410
  C        0.8099710     0.2105070    -0.2160820
  C        2.1525410    -0.1743900     0.0797160
  C       -0.2789970    -0.7898520    -0.2615780
  C       -1.6915990    -0.3449750    -0.0589870
  C        0.5343510     1.5458860    -0.5628900
  C        3.1364470     0.8361460     0.1179860
  C        1.5277130     2.5174420    -0.5614560
  C        2.8303350     2.1515420    -0.2122750
  C       -2.0336590     0.6403590     0.8794580
  C       -2.7013800    -1.0161980    -0.7629970
  C       -3.3755740     0.9555500     1.0975090
  C       -4.0377320    -0.6802290    -0.5577760
  C        3.7329233    -1.8931589     0.5229618
  C       -4.3779170     0.3056950     0.3735650
  H       -0.4794410     1.8136050    -0.8470490
  H        4.1617050     0.5791300     0.3641360
  H        1.7801010    -2.1461120     0.0568400
  H        1.2958720     3.5406330    -0.8437660
  H        3.6204230     2.8995150    -0.1925990
  H       -1.2541740     1.1373190     1.4511930
  H       -2.4205700    -1.7983260    -1.4636490
  H       -3.6394530     1.7093650     1.8355280
  H       -4.8171580    -1.1915530    -1.1177270
  H        4.4331860    -1.7182640    -0.3623870
  H        3.8136890    -3.0019290     0.7024740
  H        4.3131750    -1.4541550     1.3926990
  H       -5.4217990     0.5615290     0.5392290
units angstrom
no_reorient  #important for SAPT in psi4, default
symmetry c1  #important for SAPT in psi4, default
}

set PROPERTIES_ORIGIN ["COM"]
properties('MP2/aug-cc-pvtz', properties = ['dipole'])
--------------------------------------------------------------------------

    Molecular point group: c1
  Charge       = 0
  Multiplicity = 1
  Basis Set: AUG-CC-PVTZ
    Blend: AUG-CC-PVTZ
  Basis Set: (AUG-CC-PVTZ AUX)
    Blend: AUG-CC-PVTZ-JKFIT

    Orbital Energies [Eh]
    ---------------------

    Doubly Occupied:

       1A    -20.542132     2A    -15.562697     3A    -11.342446
       4A    -11.299165     5A    -11.258356     6A    -11.254399
       7A    -11.254185     8A    -11.252768     9A    -11.251423
      10A    -11.250749    11A    -11.248338    12A    -11.246125
      13A    -11.244688    14A    -11.241780    15A    -11.231127
      16A    -11.228682    17A     -1.374954    18A     -1.267980
      19A     -1.165125    20A     -1.147897    21A     -1.057933
      22A     -1.027106    23A     -1.023013    24A     -1.015583
      25A     -0.923437    26A     -0.889622    27A     -0.847037
      28A     -0.835634    29A     -0.808512    30A     -0.774486
      31A     -0.720950    32A     -0.706557    33A     -0.691589
      34A     -0.663979    35A     -0.648714    36A     -0.635996
      37A     -0.621667    38A     -0.618597    39A     -0.612203
      40A     -0.602868    41A     -0.597197    42A     -0.587305
      43A     -0.544906    44A     -0.535080    45A     -0.525988
      46A     -0.513231    47A     -0.510380    48A     -0.505602
      49A     -0.502556    50A     -0.486272    51A     -0.422917
      52A     -0.419092    53A     -0.351946    54A     -0.346529
      55A     -0.344450    56A     -0.294905

  @DF-RHF Final Energy:  -667.25163794780224

   => Energetics <=

    Nuclear Repulsion Energy =           1004.6780032921586781
    One-Electron Energy =               -2900.1015753310930450
    Two-Electron Energy =                1228.1719340911320160
    Total Energy =                       -667.2516379478022372
  Basis Set: (AUG-CC-PVTZ AUX)
    Blend: AUG-CC-PVTZ-RI
    Molecular point group: c1

    Geometry (in Angstrom), charge = 0, multiplicity = 1:

       Center              X                  Y                   Z               Mass
    ------------   -----------------  -----------------  -----------------  -----------------
         O           -0.034292629236    -1.998166216491    -0.449616222148    15.994914619570
         N            2.488024370764    -1.472345216491     0.411446777852    14.003074004430
         C            0.840626370764     0.213090783509    -0.208476222148    12.000000000000
         C            2.183196370764    -0.171806216491     0.087321777852    12.000000000000
         C           -0.248341629236    -0.787268216491    -0.253972222148    12.000000000000
         C           -1.660943629236    -0.342391216491    -0.051381222148    12.000000000000
         C            0.565006370764     1.548469783509    -0.555284222148    12.000000000000
         C            3.167102370764     0.838729783509     0.125591777852    12.000000000000
         C            1.558368370764     2.520025783509    -0.553850222148    12.000000000000
         C            2.860990370764     2.154125783509    -0.204669222148    12.000000000000
         C           -2.003003629236     0.642942783509     0.887063777852    12.000000000000
         C           -2.670724629236    -1.013614216491    -0.755391222148    12.000000000000
         C           -3.344918629236     0.958133783509     1.105114777852    12.000000000000
         C           -4.007076629236    -0.677645216491    -0.550170222148    12.000000000000
         C            3.763578670764    -1.890575116491     0.530567577852    12.000000000000
         C           -4.347261629236     0.308278783509     0.381170777852    12.000000000000
         H           -0.448785629236     1.816188783509    -0.839443222148     1.007825032230
         H            4.192360370764     0.581713783509     0.371741777852     1.007825032230
         H            1.810756370764    -2.143528216491     0.064445777852     1.007825032230
         H            1.326527370764     3.543216783509    -0.836160222148     1.007825032230
         H            3.651078370764     2.902098783509    -0.184993222148     1.007825032230
         H           -1.223518629236     1.139902783509     1.458798777852     1.007825032230
         H           -2.389914629236    -1.795742216491    -1.456043222148     1.007825032230
         H           -3.608797629236     1.711948783509     1.843133777852     1.007825032230
         H           -4.786502629236    -1.188969216491    -1.110121222148     1.007825032230
         H            4.463841370764    -1.715680216491    -0.354781222148     1.007825032230
         H            3.844344370764    -2.999345216491     0.710079777852     1.007825032230
         H            4.343830370764    -1.451571216491     1.400304777852     1.007825032230
         H           -5.391143629236     0.564112783509     0.546834777852     1.007825032230

  Basis Set: AUG-CC-PVTZ
    Blend: AUG-CC-PVTZ
  Basis Set: (AUG-CC-PVTZ AUX)
    Blend: AUG-CC-PVTZ-JKFIT
	 Reference Energy          =    -667.2516379478022372 [Eh]
	 Singles Energy            =      -0.0000000000000000 [Eh]
	 Same-Spin Energy          =      -0.7355824222361710 [Eh]
	 Opposite-Spin Energy      =      -2.2657315722237756 [Eh]
	 Correlation Energy        =      -3.0013139944599465 [Eh]
	 Total Energy              =    -670.2529519422621433 [Eh]

	 ================> DF-SCS-MP2 Energies <==================
	-----------------------------------------------------------
	 SCS Same-Spin Scale       =       0.3333333333333333 [-]
	 SCS Opposite-Spin Scale   =       1.2000000000000000 [-]
	 SCS Same-Spin Energy      =      -0.2451941407453903 [Eh]
	 SCS Opposite-Spin Energy  =      -2.7188778866685306 [Eh]
	 SCS Correlation Energy    =      -2.9640720274139207 [Eh]
	 SCS Total Energy          =    -670.2157099752162139 [Eh]
	-----------------------------------------------------------

  Dipole Moment: [D]
     X:    -0.0926      Y:     1.4171      Z:     0.3076     Total:     1.4530

*** Psi4 exiting successfully. Buy a developer a beer!
