                               Psi4 1.4a3.dev225

  ==> Input File <==

--------------------------------------------------------------------------
#psi4
#
memory 32 gb

molecule  {
0 1
  O       -0.0649480    -2.0007500    -0.4572220
  N        2.4573690    -1.4749290     0.4038410
  C        0.8099710     0.2105070    -0.2160820
  C        2.1525410    -0.1743900     0.0797160
  C       -0.2789970    -0.7898520    -0.2615780
  C       -1.6915990    -0.3449750    -0.0589870
  C        0.5343510     1.5458860    -0.5628900
  C        3.1364470     0.8361460     0.1179860
  C        1.5277130     2.5174420    -0.5614560
  C        2.8303350     2.1515420    -0.2122750
  C       -2.0336590     0.6403590     0.8794580
  C       -2.7013800    -1.0161980    -0.7629970
  C       -3.3755740     0.9555500     1.0975090
  C       -4.0377320    -0.6802290    -0.5577760
  C        3.8086439    -1.9179862     0.5300332
  C       -4.3779170     0.3056950     0.3735650
  H       -0.4794410     1.8136050    -0.8470490
  H        4.1617050     0.5791300     0.3641360
  H        1.7801010    -2.1461120     0.0568400
  H        1.2958720     3.5406330    -0.8437660
  H        3.6204230     2.8995150    -0.1925990
  H       -1.2541740     1.1373190     1.4511930
  H       -2.4205700    -1.7983260    -1.4636490
  H       -3.6394530     1.7093650     1.8355280
  H       -4.8171580    -1.1915530    -1.1177270
  H        4.4331860    -1.7182640    -0.3623870
  H        3.8136890    -3.0019290     0.7024740
  H        4.3131750    -1.4541550     1.3926990
  H       -5.4217990     0.5615290     0.5392290
units angstrom
no_reorient  #important for SAPT in psi4, default
symmetry c1  #important for SAPT in psi4, default
}

set PROPERTIES_ORIGIN ["COM"]
properties('MP2/aug-cc-pvtz', properties = ['dipole'])
--------------------------------------------------------------------------

    Molecular point group: c1
  Charge       = 0
  Multiplicity = 1
  Basis Set: AUG-CC-PVTZ
    Blend: AUG-CC-PVTZ
  Basis Set: (AUG-CC-PVTZ AUX)
    Blend: AUG-CC-PVTZ-JKFIT

    Orbital Energies [Eh]
    ---------------------

    Doubly Occupied:

       1A    -20.540172     2A    -15.562136     3A    -11.340567
       4A    -11.297625     5A    -11.257102     6A    -11.252970
       7A    -11.252951     8A    -11.251653     9A    -11.250451
      10A    -11.249587    11A    -11.247265    12A    -11.245177
      13A    -11.243756    14A    -11.239188    15A    -11.229313
      16A    -11.226416    17A     -1.372947    18A     -1.248468
      19A     -1.163808    20A     -1.143214    21A     -1.056445
      22A     -1.025807    23A     -1.021043    24A     -1.011065
      25A     -0.928096    26A     -0.888950    27A     -0.845517
      28A     -0.834773    29A     -0.807797    30A     -0.772076
      31A     -0.718489    32A     -0.702446    33A     -0.684743
      34A     -0.657249    35A     -0.645799    36A     -0.633832
      37A     -0.619450    38A     -0.615325    39A     -0.609034
      40A     -0.601773    41A     -0.596261    42A     -0.580104
      43A     -0.544992    44A     -0.538874    45A     -0.530626
      46A     -0.519758    47A     -0.512655    48A     -0.504499
      49A     -0.501507    50A     -0.486549    51A     -0.428225
      52A     -0.419427    53A     -0.350781    54A     -0.345408
      55A     -0.343460    56A     -0.292684

  @DF-RHF Final Energy:  -667.26247315931346

   => Energetics <=

    Nuclear Repulsion Energy =           1002.9324328737430960
    One-Electron Energy =               -2896.8092343481475837
    Two-Electron Energy =                1226.6143283150911429
    Total Energy =                       -667.2624731593134584
  Basis Set: (AUG-CC-PVTZ AUX)
    Blend: AUG-CC-PVTZ-RI
    Molecular point group: c1

    Geometry (in Angstrom), charge = 0, multiplicity = 1:

       Center              X                  Y                   Z               Mass
    ------------   -----------------  -----------------  -----------------  -----------------
         O           -0.038596979927    -1.996754904300    -0.450018197112    15.994914619570
         N            2.483720020073    -1.470933904300     0.411044802888    14.003074004430
         C            0.836322020073     0.214502095700    -0.208878197112    12.000000000000
         C            2.178892020073    -0.170394904300     0.086919802888    12.000000000000
         C           -0.252645979927    -0.785856904300    -0.254374197112    12.000000000000
         C           -1.665247979927    -0.340979904300    -0.051783197112    12.000000000000
         C            0.560702020073     1.549881095700    -0.555686197112    12.000000000000
         C            3.162798020073     0.840141095700     0.125189802888    12.000000000000
         C            1.554064020073     2.521437095700    -0.554252197112    12.000000000000
         C            2.856686020073     2.155537095700    -0.205071197112    12.000000000000
         C           -2.007307979927     0.644354095700     0.886661802888    12.000000000000
         C           -2.675028979927    -1.012202904300    -0.755793197112    12.000000000000
         C           -3.349222979927     0.959545095700     1.104712802888    12.000000000000
         C           -4.011380979927    -0.676233904300    -0.550572197112    12.000000000000
         C            3.834994920073    -1.913991104300     0.537237002888    12.000000000000
         C           -4.351565979927     0.309690095700     0.380768802888    12.000000000000
         H           -0.453089979927     1.817600095700    -0.839845197112     1.007825032230
         H            4.188056020073     0.583125095700     0.371339802888     1.007825032230
         H            1.806452020073    -2.142116904300     0.064043802888     1.007825032230
         H            1.322223020073     3.544628095700    -0.836562197112     1.007825032230
         H            3.646774020073     2.903510095700    -0.185395197112     1.007825032230
         H           -1.227822979927     1.141314095700     1.458396802888     1.007825032230
         H           -2.394218979927    -1.794330904300    -1.456445197112     1.007825032230
         H           -3.613101979927     1.713360095700     1.842731802888     1.007825032230
         H           -4.790806979927    -1.187557904300    -1.110523197112     1.007825032230
         H            4.459537020073    -1.714268904300    -0.355183197112     1.007825032230
         H            3.840040020073    -2.997933904300     0.709677802888     1.007825032230
         H            4.339526020073    -1.450159904300     1.399902802888     1.007825032230
         H           -5.395447979927     0.565524095700     0.546432802888     1.007825032230

  Basis Set: AUG-CC-PVTZ
    Blend: AUG-CC-PVTZ
  Basis Set: (AUG-CC-PVTZ AUX)
    Blend: AUG-CC-PVTZ-JKFIT
	 Reference Energy          =    -667.2624731593134584 [Eh]
	 Singles Energy            =      -0.0000000000000000 [Eh]
	 Same-Spin Energy          =      -0.7347364801813527 [Eh]
	 Opposite-Spin Energy      =      -2.2652636488431916 [Eh]
	 Correlation Energy        =      -3.0000001290245444 [Eh]
	 Total Energy              =    -670.2624732883380148 [Eh]

	 ================> DF-SCS-MP2 Energies <==================
	-----------------------------------------------------------
	 SCS Same-Spin Scale       =       0.3333333333333333 [-]
	 SCS Opposite-Spin Scale   =       1.2000000000000000 [-]
	 SCS Same-Spin Energy      =      -0.2449121600604509 [Eh]
	 SCS Opposite-Spin Energy  =      -2.7183163786118301 [Eh]
	 SCS Correlation Energy    =      -2.9632285386722810 [Eh]
	 SCS Total Energy          =    -670.2257016979857553 [Eh]
	-----------------------------------------------------------

  Dipole Moment: [D]
     X:     0.2465      Y:     1.2424      Z:     0.3385     Total:     1.3111

*** Psi4 exiting successfully. Buy a developer a beer!
