                               Psi4 1.3.2 release

  ==> Input File <==

--------------------------------------------------------------------------
#psi4
#
memory 32 gb

molecule  {
0 1
  O       -0.0649480    -2.0007500    -0.4572220
  N        2.4573690    -1.4749290     0.4038410
  C        0.8099710     0.2105070    -0.2160820
  C        2.0597949    -0.1984809     0.0844760
  C       -0.2789970    -0.7898520    -0.2615780
  C       -1.6915990    -0.3449750    -0.0589870
  C        0.5343510     1.5458860    -0.5628900
  C        3.1364470     0.8361460     0.1179860
  C        1.5277130     2.5174420    -0.5614560
  C        2.8303350     2.1515420    -0.2122750
  C       -2.0336590     0.6403590     0.8794580
  C       -2.7013800    -1.0161980    -0.7629970
  C       -3.3755740     0.9555500     1.0975090
  C       -4.0377320    -0.6802290    -0.5577760
  C        3.8275740    -1.9241930     0.5318010
  C       -4.3779170     0.3056950     0.3735650
  H       -0.4794410     1.8136050    -0.8470490
  H        4.1617050     0.5791300     0.3641360
  H        1.7801010    -2.1461120     0.0568400
  H        1.2958720     3.5406330    -0.8437660
  H        3.6204230     2.8995150    -0.1925990
  H       -1.2541740     1.1373190     1.4511930
  H       -2.4205700    -1.7983260    -1.4636490
  H       -3.6394530     1.7093650     1.8355280
  H       -4.8171580    -1.1915530    -1.1177270
  H        4.4331860    -1.7182640    -0.3623870
  H        3.8136890    -3.0019290     0.7024740
  H        4.3131750    -1.4541550     1.3926990
  H       -5.4217990     0.5615290     0.5392290
units angstrom
no_reorient  #important for SAPT in psi4, default
symmetry c1  #important for SAPT in psi4, default
}

set PROPERTIES_ORIGIN ["COM"]
properties('MP2/aug-cc-pvtz', properties = ['dipole'])
--------------------------------------------------------------------------

    Molecular point group: c1
  Charge       = 0
  Multiplicity = 1
  Basis Set: AUG-CC-PVTZ
    Blend: AUG-CC-PVTZ
  Basis Set: (AUG-CC-PVTZ AUX)
    Blend: AUG-CC-PVTZ-JKFIT

    Orbital Energies [Eh]
    ---------------------

    Doubly Occupied:

       1A    -20.540818     2A    -15.562237     3A    -11.339766
       4A    -11.297797     5A    -11.260314     6A    -11.251653
       7A    -11.250841     8A    -11.250370     9A    -11.249143
      10A    -11.248575    11A    -11.247119    12A    -11.245161
      13A    -11.243658    14A    -11.236968    15A    -11.230653
      16A    -11.226015    17A     -1.373826    18A     -1.244063
      19A     -1.163815    20A     -1.142906    21A     -1.057290
      22A     -1.028701    23A     -1.023768    24A     -1.002791
      25A     -0.931140    26A     -0.886142    27A     -0.844332
      28A     -0.836984    29A     -0.811102    30A     -0.771248
      31A     -0.718048    32A     -0.697048    33A     -0.686106
      34A     -0.654526    35A     -0.645370    36A     -0.633894
      37A     -0.621144    38A     -0.613655    39A     -0.608732
      40A     -0.600213    41A     -0.596146    42A     -0.579280
      43A     -0.546743    44A     -0.542676    45A     -0.527434
      46A     -0.517207    47A     -0.514181    48A     -0.507981
      49A     -0.501244    50A     -0.485987    51A     -0.429284
      52A     -0.416642    53A     -0.350849    54A     -0.345735
      55A     -0.343434    56A     -0.291134

  @DF-RHF Final Energy:  -667.25234917150874

   => Energetics <=

    Nuclear Repulsion Energy =           1003.2907101225617907
    One-Electron Energy =               -2897.5383379055615478
    Two-Electron Energy =                1226.9952786114909031
    Total Energy =                       -667.2523491715087403
  Basis Set: (AUG-CC-PVTZ AUX)
    Blend: AUG-CC-PVTZ-RI
    Molecular point group: c1

    Geometry (in Angstrom), charge = 0, multiplicity = 1:

       Center              X                  Y                   Z               Mass
    ------------   -----------------  -----------------  -----------------  -----------------
         O           -0.034400896554    -1.995032626268    -0.450389271040    15.994914619570
         N            2.487916103446    -1.469211626268     0.410673728960    14.003074004430
         C            0.840518103446     0.216224373732    -0.209249271040    12.000000000000
         C            2.090342003446    -0.192763526268     0.091308728960    12.000000000000
         C           -0.248449896554    -0.784134626268    -0.254745271040    12.000000000000
         C           -1.661051896554    -0.339257626268    -0.052154271040    12.000000000000
         C            0.564898103446     1.551603373732    -0.556057271040    12.000000000000
         C            3.166994103446     0.841863373732     0.124818728960    12.000000000000
         C            1.558260103446     2.523159373732    -0.554623271040    12.000000000000
         C            2.860882103446     2.157259373732    -0.205442271040    12.000000000000
         C           -2.003111896554     0.646076373732     0.886290728960    12.000000000000
         C           -2.670832896554    -1.010480626268    -0.756164271040    12.000000000000
         C           -3.345026896554     0.961267373732     1.104341728960    12.000000000000
         C           -4.007184896554    -0.674511626268    -0.550943271040    12.000000000000
         C            3.858121103446    -1.918475626268     0.538633728960    12.000000000000
         C           -4.347369896554     0.311412373732     0.380397728960    12.000000000000
         H           -0.448893896554     1.819322373732    -0.840216271040     1.007825032230
         H            4.192252103446     0.584847373732     0.370968728960     1.007825032230
         H            1.810648103446    -2.140394626268     0.063672728960     1.007825032230
         H            1.326419103446     3.546350373732    -0.836933271040     1.007825032230
         H            3.650970103446     2.905232373732    -0.185766271040     1.007825032230
         H           -1.223626896554     1.143036373732     1.458025728960     1.007825032230
         H           -2.390022896554    -1.792608626268    -1.456816271040     1.007825032230
         H           -3.608905896554     1.715082373732     1.842360728960     1.007825032230
         H           -4.786610896554    -1.185835626268    -1.110894271040     1.007825032230
         H            4.463733103446    -1.712546626268    -0.355554271040     1.007825032230
         H            3.844236103446    -2.996211626268     0.709306728960     1.007825032230
         H            4.343722103446    -1.448437626268     1.399531728960     1.007825032230
         H           -5.391251896554     0.567246373732     0.546061728960     1.007825032230

  Basis Set: AUG-CC-PVTZ
    Blend: AUG-CC-PVTZ
  Basis Set: (AUG-CC-PVTZ AUX)
    Blend: AUG-CC-PVTZ-JKFIT
	 Reference Energy          =    -667.2523491715087403 [Eh]
	 Singles Energy            =      -0.0000000000000000 [Eh]
	 Same-Spin Energy          =      -0.7343482893219739 [Eh]
	 Opposite-Spin Energy      =      -2.2659775344745055 [Eh]
	 Correlation Energy        =      -3.0003258237964792 [Eh]
	 Total Energy              =    -670.2526749953052558 [Eh]

	 ================> DF-SCS-MP2 Energies <==================
	-----------------------------------------------------------
	 SCS Same-Spin Scale       =       0.3333333333333333 [-]
	 SCS Opposite-Spin Scale   =       1.2000000000000000 [-]
	 SCS Same-Spin Energy      =      -0.2447827631073246 [Eh]
	 SCS Opposite-Spin Energy  =      -2.7191730413694066 [Eh]
	 SCS Correlation Energy    =      -2.9639558044767313 [Eh]
	 SCS Total Energy          =    -670.2163049759855085 [Eh]
	-----------------------------------------------------------

  Dipole Moment: [D]
     X:     0.3667      Y:     1.1178      Z:     0.3665     Total:     1.2322

*** Psi4 exiting successfully. Buy a developer a beer!
