                               Psi4 1.4a3.dev225

  ==> Input File <==

--------------------------------------------------------------------------
#psi4
#
memory 32 gb

molecule  {
0 1
  O       -0.0649480    -2.0007500    -0.4572220
  N        2.4573690    -1.4749290     0.4038410
  C        0.8099710     0.2105070    -0.2160820
  C        2.1525410    -0.1743900     0.0797160
  C       -0.2789970    -0.7898520    -0.2615780
  C       -1.7104993    -0.3390226    -0.0562764
  C        0.5343510     1.5458860    -0.5628900
  C        3.1364470     0.8361460     0.1179860
  C        1.5277130     2.5174420    -0.5614560
  C        2.8303350     2.1515420    -0.2122750
  C       -2.0336590     0.6403590     0.8794580
  C       -2.7013800    -1.0161980    -0.7629970
  C       -3.3755740     0.9555500     1.0975090
  C       -4.0377320    -0.6802290    -0.5577760
  C        3.8275740    -1.9241930     0.5318010
  C       -4.3779170     0.3056950     0.3735650
  H       -0.4794410     1.8136050    -0.8470490
  H        4.1617050     0.5791300     0.3641360
  H        1.7801010    -2.1461120     0.0568400
  H        1.2958720     3.5406330    -0.8437660
  H        3.6204230     2.8995150    -0.1925990
  H       -1.2541740     1.1373190     1.4511930
  H       -2.4205700    -1.7983260    -1.4636490
  H       -3.6394530     1.7093650     1.8355280
  H       -4.8171580    -1.1915530    -1.1177270
  H        4.4331860    -1.7182640    -0.3623870
  H        3.8136890    -3.0019290     0.7024740
  H        4.3131750    -1.4541550     1.3926990
  H       -5.4217990     0.5615290     0.5392290
units angstrom
no_reorient  #important for SAPT in psi4, default
symmetry c1  #important for SAPT in psi4, default
}

set PROPERTIES_ORIGIN ["COM"]
properties('MP2/aug-cc-pvtz', properties = ['dipole'])
--------------------------------------------------------------------------

    Molecular point group: c1
  Charge       = 0
  Multiplicity = 1
  Basis Set: AUG-CC-PVTZ
    Blend: AUG-CC-PVTZ
  Basis Set: (AUG-CC-PVTZ AUX)
    Blend: AUG-CC-PVTZ-JKFIT

    Orbital Energies [Eh]
    ---------------------

    Doubly Occupied:

       1A    -20.540432     2A    -15.562069     3A    -11.341269
       4A    -11.297405     5A    -11.257210     6A    -11.252798
       7A    -11.252763     8A    -11.249748     9A    -11.249153
      10A    -11.248440    11A    -11.245385    12A    -11.244683
      13A    -11.243227    14A    -11.238766    15A    -11.229022
      16A    -11.226018    17A     -1.372394    18A     -1.244553
      19A     -1.164916    20A     -1.142236    21A     -1.054981
      22A     -1.025918    23A     -1.021085    24A     -1.010124
      25A     -0.929372    26A     -0.887081    27A     -0.844136
      28A     -0.835252    29A     -0.807727    30A     -0.771667
      31A     -0.717801    32A     -0.701568    33A     -0.682922
      34A     -0.655629    35A     -0.644126    36A     -0.633705
      37A     -0.619361    38A     -0.615315    39A     -0.607409
      40A     -0.602201    41A     -0.596725    42A     -0.577772
      43A     -0.544977    44A     -0.542327    45A     -0.530915
      46A     -0.519220    47A     -0.513112    48A     -0.504225
      49A     -0.503068    50A     -0.487136    51A     -0.429448
      52A     -0.417549    53A     -0.350653    54A     -0.345835
      55A     -0.343332    56A     -0.292260

  @DF-RHF Final Energy:  -667.26291356801698

   => Energetics <=

    Nuclear Repulsion Energy =           1002.4545238038863317
    One-Electron Energy =               -2895.8980268788041030
    Two-Electron Energy =                1226.1805895069007875
    Total Energy =                       -667.2629135680169838
  Basis Set: (AUG-CC-PVTZ AUX)
    Blend: AUG-CC-PVTZ-RI
    Molecular point group: c1

    Geometry (in Angstrom), charge = 0, multiplicity = 1:

       Center              X                  Y                   Z               Mass
    ------------   -----------------  -----------------  -----------------  -----------------
         O           -0.038598673913    -1.996740442888    -0.450272772540    15.994914619570
         N            2.483718326087    -1.470919442888     0.410790227460    14.003074004430
         C            0.836320326087     0.214516557112    -0.209132772540    12.000000000000
         C            2.178890326087    -0.170380442888     0.086665227460    12.000000000000
         C           -0.252647673913    -0.785842442888    -0.254628772540    12.000000000000
         C           -1.684149973913    -0.335013042888    -0.049327172540    12.000000000000
         C            0.560700326087     1.549895557112    -0.555940772540    12.000000000000
         C            3.162796326087     0.840155557112     0.124935227460    12.000000000000
         C            1.554062326087     2.521451557112    -0.554506772540    12.000000000000
         C            2.856684326087     2.155551557112    -0.205325772540    12.000000000000
         C           -2.007309673913     0.644368557112     0.886407227460    12.000000000000
         C           -2.675030673913    -1.012188442888    -0.756047772540    12.000000000000
         C           -3.349224673913     0.959559557112     1.104458227460    12.000000000000
         C           -4.011382673913    -0.676219442888    -0.550826772540    12.000000000000
         C            3.853923326087    -1.920183442888     0.538750227460    12.000000000000
         C           -4.351567673913     0.309704557112     0.380514227460    12.000000000000
         H           -0.453091673913     1.817614557112    -0.840099772540     1.007825032230
         H            4.188054326087     0.583139557112     0.371085227460     1.007825032230
         H            1.806450326087    -2.142102442888     0.063789227460     1.007825032230
         H            1.322221326087     3.544642557112    -0.836816772540     1.007825032230
         H            3.646772326087     2.903524557112    -0.185649772540     1.007825032230
         H           -1.227824673913     1.141328557112     1.458142227460     1.007825032230
         H           -2.394220673913    -1.794316442888    -1.456699772540     1.007825032230
         H           -3.613103673913     1.713374557112     1.842477227460     1.007825032230
         H           -4.790808673913    -1.187543442888    -1.110777772540     1.007825032230
         H            4.459535326087    -1.714254442888    -0.355437772540     1.007825032230
         H            3.840038326087    -2.997919442888     0.709423227460     1.007825032230
         H            4.339524326087    -1.450145442888     1.399648227460     1.007825032230
         H           -5.395449673913     0.565538557112     0.546178227460     1.007825032230

  Basis Set: AUG-CC-PVTZ
    Blend: AUG-CC-PVTZ
  Basis Set: (AUG-CC-PVTZ AUX)
    Blend: AUG-CC-PVTZ-JKFIT
	 Reference Energy          =    -667.2629135680169838 [Eh]
	 Singles Energy            =      -0.0000000000000000 [Eh]
	 Same-Spin Energy          =      -0.7344521699661641 [Eh]
	 Opposite-Spin Energy      =      -2.2650072401782131 [Eh]
	 Correlation Energy        =      -2.9994594101443770 [Eh]
	 Total Energy              =    -670.2623729781613520 [Eh]

	 ================> DF-SCS-MP2 Energies <==================
	-----------------------------------------------------------
	 SCS Same-Spin Scale       =       0.3333333333333333 [-]
	 SCS Opposite-Spin Scale   =       1.2000000000000000 [-]
	 SCS Same-Spin Energy      =      -0.2448173899887214 [Eh]
	 SCS Opposite-Spin Energy  =      -2.7180086882138554 [Eh]
	 SCS Correlation Energy    =      -2.9628260782025766 [Eh]
	 SCS Total Energy          =    -670.2257396462196084 [Eh]
	-----------------------------------------------------------

  Dipole Moment: [D]
     X:     0.3691      Y:     1.1904      Z:     0.3387     Total:     1.2915

*** Psi4 exiting successfully. Buy a developer a beer!
