                               Psi4 1.4a3.dev225

  ==> Input File <==

--------------------------------------------------------------------------
#psi4
#
memory 32 gb

molecule  {
0 1
  O       -0.0649480    -2.0007500    -0.4572220
  N        2.4573690    -1.4749290     0.4038410
  C        0.8099710     0.2105070    -0.2160820
  C        2.1525410    -0.1743900     0.0797160
  C       -0.2789970    -0.7898520    -0.2615780
  C       -1.6915990    -0.3449750    -0.0589870
  C        0.5343510     1.5458860    -0.5628900
  C        3.1364470     0.8361460     0.1179860
  C        1.5277130     2.5174420    -0.5614560
  C        2.8303350     2.1515420    -0.2122750
  C       -2.0336590     0.6403590     0.8794580
  C       -2.7013800    -1.0161980    -0.7629970
  C       -3.3755740     0.9555500     1.0975090
  C       -4.0377320    -0.6802290    -0.5577760
  C        3.8465041    -1.9303998     0.5335688
  C       -4.3779170     0.3056950     0.3735650
  H       -0.4794410     1.8136050    -0.8470490
  H        4.1617050     0.5791300     0.3641360
  H        1.7801010    -2.1461120     0.0568400
  H        1.2958720     3.5406330    -0.8437660
  H        3.6204230     2.8995150    -0.1925990
  H       -1.2541740     1.1373190     1.4511930
  H       -2.4205700    -1.7983260    -1.4636490
  H       -3.6394530     1.7093650     1.8355280
  H       -4.8171580    -1.1915530    -1.1177270
  H        4.4331860    -1.7182640    -0.3623870
  H        3.8136890    -3.0019290     0.7024740
  H        4.3131750    -1.4541550     1.3926990
  H       -5.4217990     0.5615290     0.5392290
units angstrom
no_reorient  #important for SAPT in psi4, default
symmetry c1  #important for SAPT in psi4, default
}

set PROPERTIES_ORIGIN ["COM"]
properties('MP2/aug-cc-pvtz', properties = ['dipole'])
--------------------------------------------------------------------------

    Molecular point group: c1
  Charge       = 0
  Multiplicity = 1
  Basis Set: AUG-CC-PVTZ
    Blend: AUG-CC-PVTZ
  Basis Set: (AUG-CC-PVTZ AUX)
    Blend: AUG-CC-PVTZ-JKFIT

    Orbital Energies [Eh]
    ---------------------

    Doubly Occupied:

       1A    -20.539303     2A    -15.561668     3A    -11.339726
       4A    -11.296882     5A    -11.257241     6A    -11.252395
       7A    -11.252302     8A    -11.251154     9A    -11.250016
      10A    -11.249067    11A    -11.246784    12A    -11.244752
      13A    -11.243339    14A    -11.238035    15A    -11.228509
      16A    -11.225413    17A     -1.372063    18A     -1.240650
      19A     -1.163235    20A     -1.140947    21A     -1.055780
      22A     -1.025271    23A     -1.020268    24A     -1.008983
      25A     -0.930869    26A     -0.888545    27A     -0.844853
      28A     -0.834374    29A     -0.807277    30A     -0.771027
      31A     -0.717501    32A     -0.700667    33A     -0.682412
      34A     -0.654586    35A     -0.644198    36A     -0.632891
      37A     -0.619151    38A     -0.615574    39A     -0.607186
      40A     -0.601135    41A     -0.595878    42A     -0.574880
      43A     -0.546023    44A     -0.545272    45A     -0.530807
      46A     -0.520548    47A     -0.512990    48A     -0.503304
      49A     -0.501008    50A     -0.486456    51A     -0.430302
      52A     -0.418659    53A     -0.350248    54A     -0.344902
      55A     -0.343011    56A     -0.291515

  @DF-RHF Final Energy:  -667.26260308941994

   => Energetics <=

    Nuclear Repulsion Energy =           1002.0990193276642231
    One-Electron Energy =               -2895.2195814292799696
    Two-Electron Energy =                1225.8579590121958063
    Total Energy =                       -667.2626030894198266
  Basis Set: (AUG-CC-PVTZ AUX)
    Blend: AUG-CC-PVTZ-RI
    Molecular point group: c1

    Geometry (in Angstrom), charge = 0, multiplicity = 1:

       Center              X                  Y                   Z               Mass
    ------------   -----------------  -----------------  -----------------  -----------------
         O           -0.040749149588    -1.996049251047    -0.450219178910    15.994914619570
         N            2.481567850412    -1.470228251047     0.410843821090    14.003074004430
         C            0.834169850412     0.215207748953    -0.209079178910    12.000000000000
         C            2.176739850412    -0.169689251047     0.086718821090    12.000000000000
         C           -0.254798149588    -0.785151251047    -0.254575178910    12.000000000000
         C           -1.667400149588    -0.340274251047    -0.051984178910    12.000000000000
         C            0.558549850412     1.550586748953    -0.555887178910    12.000000000000
         C            3.160645850412     0.840846748953     0.124988821090    12.000000000000
         C            1.551911850412     2.522142748953    -0.554453178910    12.000000000000
         C            2.854533850412     2.156242748953    -0.205272178910    12.000000000000
         C           -2.009460149588     0.645059748953     0.886460821090    12.000000000000
         C           -2.677181149588    -1.011497251047    -0.755994178910    12.000000000000
         C           -3.351375149588     0.960250748953     1.104511821090    12.000000000000
         C           -4.013533149588    -0.675528251047    -0.550773178910    12.000000000000
         C            3.870702950412    -1.925699051047     0.540571621090    12.000000000000
         C           -4.353718149588     0.310395748953     0.380567821090    12.000000000000
         H           -0.455242149588     1.818305748953    -0.840046178910     1.007825032230
         H            4.185903850412     0.583830748953     0.371138821090     1.007825032230
         H            1.804299850412    -2.141411251047     0.063842821090     1.007825032230
         H            1.320070850412     3.545333748953    -0.836763178910     1.007825032230
         H            3.644621850412     2.904215748953    -0.185596178910     1.007825032230
         H           -1.229975149588     1.142019748953     1.458195821090     1.007825032230
         H           -2.396371149588    -1.793625251047    -1.456646178910     1.007825032230
         H           -3.615254149588     1.714065748953     1.842530821090     1.007825032230
         H           -4.792959149588    -1.186852251047    -1.110724178910     1.007825032230
         H            4.457384850412    -1.713563251047    -0.355384178910     1.007825032230
         H            3.837887850412    -2.997228251047     0.709476821090     1.007825032230
         H            4.337373850412    -1.449454251047     1.399701821090     1.007825032230
         H           -5.397600149588     0.566229748953     0.546231821090     1.007825032230

  Basis Set: AUG-CC-PVTZ
    Blend: AUG-CC-PVTZ
  Basis Set: (AUG-CC-PVTZ AUX)
    Blend: AUG-CC-PVTZ-JKFIT
	 Reference Energy          =    -667.2626030894199403 [Eh]
	 Singles Energy            =      -0.0000000000000000 [Eh]
	 Same-Spin Energy          =      -0.7344937629295288 [Eh]
	 Opposite-Spin Energy      =      -2.2653266215278474 [Eh]
	 Correlation Energy        =      -2.9998203844573763 [Eh]
	 Total Energy              =    -670.2624234738773339 [Eh]

	 ================> DF-SCS-MP2 Energies <==================
	-----------------------------------------------------------
	 SCS Same-Spin Scale       =       0.3333333333333333 [-]
	 SCS Opposite-Spin Scale   =       1.2000000000000000 [-]
	 SCS Same-Spin Energy      =      -0.2448312543098429 [Eh]
	 SCS Opposite-Spin Energy  =      -2.7183919458334169 [Eh]
	 SCS Correlation Energy    =      -2.9632232001432599 [Eh]
	 SCS Total Energy          =    -670.2258262895632015 [Eh]
	-----------------------------------------------------------

  Dipole Moment: [D]
     X:     0.3928      Y:     1.1655      Z:     0.3525     Total:     1.2794

*** Psi4 exiting successfully. Buy a developer a beer!
