                               Psi4 1.3.2 release

  ==> Input File <==

--------------------------------------------------------------------------
#psi4
#
memory 32 gb

molecule  {
0 1
  O       -0.0649480    -2.0007500    -0.4572220
  N        2.4573690    -1.4749290     0.4038410
  C        0.8099710     0.2105070    -0.2160820
  C        2.1888448    -0.0302018     0.0648143
  C       -0.2789970    -0.7898520    -0.2615780
  C       -1.6915990    -0.3449750    -0.0589870
  C        0.5343510     1.5458860    -0.5628900
  C        3.1364470     0.8361460     0.1179860
  C        1.5277130     2.5174420    -0.5614560
  C        2.8303350     2.1515420    -0.2122750
  C       -2.0336590     0.6403590     0.8794580
  C       -2.7013800    -1.0161980    -0.7629970
  C       -3.3755740     0.9555500     1.0975090
  C       -4.0377320    -0.6802290    -0.5577760
  C        3.8275740    -1.9241930     0.5318010
  C       -4.3779170     0.3056950     0.3735650
  H       -0.4794410     1.8136050    -0.8470490
  H        4.1617050     0.5791300     0.3641360
  H        1.7801010    -2.1461120     0.0568400
  H        1.2958720     3.5406330    -0.8437660
  H        3.6204230     2.8995150    -0.1925990
  H       -1.2541740     1.1373190     1.4511930
  H       -2.4205700    -1.7983260    -1.4636490
  H       -3.6394530     1.7093650     1.8355280
  H       -4.8171580    -1.1915530    -1.1177270
  H        4.4331860    -1.7182640    -0.3623870
  H        3.8136890    -3.0019290     0.7024740
  H        4.3131750    -1.4541550     1.3926990
  H       -5.4217990     0.5615290     0.5392290
units angstrom
no_reorient  #important for SAPT in psi4, default
symmetry c1  #important for SAPT in psi4, default
}

set PROPERTIES_ORIGIN ["COM"]
properties('MP2/aug-cc-pvtz', properties = ['dipole'])
--------------------------------------------------------------------------

    Molecular point group: c1
  Charge       = 0
  Multiplicity = 1
  Basis Set: AUG-CC-PVTZ
    Blend: AUG-CC-PVTZ
  Basis Set: (AUG-CC-PVTZ AUX)
    Blend: AUG-CC-PVTZ-JKFIT

    Orbital Energies [Eh]
    ---------------------

    Doubly Occupied:

       1A    -20.543120     2A    -15.541606     3A    -11.346065
       4A    -11.284909     5A    -11.258780     6A    -11.257144
       7A    -11.254108     8A    -11.252721     9A    -11.252424
      10A    -11.249566    11A    -11.247087    12A    -11.247005
      13A    -11.245639    14A    -11.242558    15A    -11.234448
      16A    -11.221091    17A     -1.374287    18A     -1.211951
      19A     -1.165763    20A     -1.145875    21A     -1.064337
      22A     -1.031499    23A     -1.025850    24A     -1.017792
      25A     -0.909964    26A     -0.893526    27A     -0.849687
      28A     -0.837627    29A     -0.806936    30A     -0.776087
      31A     -0.722716    32A     -0.695978    33A     -0.676077
      34A     -0.660267    35A     -0.644349    36A     -0.632211
      37A     -0.629005    38A     -0.612192    39A     -0.598893
      40A     -0.598722    41A     -0.595581    42A     -0.573073
      43A     -0.547699    44A     -0.541837    45A     -0.525127
      46A     -0.524081    47A     -0.516642    48A     -0.504120
      49A     -0.497625    50A     -0.482475    51A     -0.425964
      52A     -0.407667    53A     -0.355920    54A     -0.347286
      55A     -0.345923    56A     -0.305335

  @DF-RHF Final Energy:  -667.23370198583007

   => Energetics <=

    Nuclear Repulsion Energy =           1002.4957025384569533
    One-Electron Energy =               -2895.9463701300564935
    Two-Electron Energy =                1226.2169656057694738
    Total Energy =                       -667.2337019858300664
  Basis Set: (AUG-CC-PVTZ AUX)
    Blend: AUG-CC-PVTZ-RI
    Molecular point group: c1

    Geometry (in Angstrom), charge = 0, multiplicity = 1:

       Center              X                  Y                   Z               Mass
    ------------   -----------------  -----------------  -----------------  -----------------
         O           -0.041736760589    -2.004598481007    -0.449271598280    15.994914619570
         N            2.480580239411    -1.478777481007     0.411791401720    14.003074004430
         C            0.833182239411     0.206658518993    -0.208131598280    12.000000000000
         C            2.212056039411    -0.034050281007     0.072764701720    12.000000000000
         C           -0.255785760589    -0.793700481007    -0.253627598280    12.000000000000
         C           -1.668387760589    -0.348823481007    -0.051036598280    12.000000000000
         C            0.557562239411     1.542037518993    -0.554939598280    12.000000000000
         C            3.159658239411     0.832297518993     0.125936401720    12.000000000000
         C            1.550924239411     2.513593518993    -0.553505598280    12.000000000000
         C            2.853546239411     2.147693518993    -0.204324598280    12.000000000000
         C           -2.010447760589     0.636510518993     0.887408401720    12.000000000000
         C           -2.678168760589    -1.020046481007    -0.755046598280    12.000000000000
         C           -3.352362760589     0.951701518993     1.105459401720    12.000000000000
         C           -4.014520760589    -0.684077481007    -0.549825598280    12.000000000000
         C            3.850785239411    -1.928041481007     0.539751401720    12.000000000000
         C           -4.354705760589     0.301846518993     0.381515401720    12.000000000000
         H           -0.456229760589     1.809756518993    -0.839098598280     1.007825032230
         H            4.184916239411     0.575281518993     0.372086401720     1.007825032230
         H            1.803312239411    -2.149960481007     0.064790401720     1.007825032230
         H            1.319083239411     3.536784518993    -0.835815598280     1.007825032230
         H            3.643634239411     2.895666518993    -0.184648598280     1.007825032230
         H           -1.230962760589     1.133470518993     1.459143401720     1.007825032230
         H           -2.397358760589    -1.802174481007    -1.455698598280     1.007825032230
         H           -3.616241760589     1.705516518993     1.843478401720     1.007825032230
         H           -4.793946760589    -1.195401481007    -1.109776598280     1.007825032230
         H            4.456397239411    -1.722112481007    -0.354436598280     1.007825032230
         H            3.836900239411    -3.005777481007     0.710424401720     1.007825032230
         H            4.336386239411    -1.458003481007     1.400649401720     1.007825032230
         H           -5.398587760589     0.557680518993     0.547179401720     1.007825032230

  Basis Set: AUG-CC-PVTZ
    Blend: AUG-CC-PVTZ
  Basis Set: (AUG-CC-PVTZ AUX)
    Blend: AUG-CC-PVTZ-JKFIT
	 Reference Energy          =    -667.2337019858300664 [Eh]
	 Singles Energy            =      -0.0000000000000000 [Eh]
	 Same-Spin Energy          =      -0.7344407284126913 [Eh]
	 Opposite-Spin Energy      =      -2.2663553433225463 [Eh]
	 Correlation Energy        =      -3.0007960717352375 [Eh]
	 Total Energy              =    -670.2344980575653608 [Eh]

	 ================> DF-SCS-MP2 Energies <==================
	-----------------------------------------------------------
	 SCS Same-Spin Scale       =       0.3333333333333333 [-]
	 SCS Opposite-Spin Scale   =       1.2000000000000000 [-]
	 SCS Same-Spin Energy      =      -0.2448135761375637 [Eh]
	 SCS Opposite-Spin Energy  =      -2.7196264119870555 [Eh]
	 SCS Correlation Energy    =      -2.9644399881246191 [Eh]
	 SCS Total Energy          =    -670.1981419739546482 [Eh]
	-----------------------------------------------------------

  Dipole Moment: [D]
     X:    -0.2596      Y:     2.0728      Z:     0.0905     Total:     2.0909

*** Psi4 exiting successfully. Buy a developer a beer!
