                               Psi4 1.3.2 release

  ==> Input File <==

--------------------------------------------------------------------------
#psi4
#
memory 32 gb

molecule  {
0 1
  O       -0.0649480    -2.0007500    -0.4572220
  N        2.4573690    -1.4749290     0.4038410
  C        0.8099710     0.2105070    -0.2160820
  C        2.1525410    -0.1743900     0.0797160
  C       -0.2618062    -0.8871021    -0.2772906
  C       -1.6915990    -0.3449750    -0.0589870
  C        0.5343510     1.5458860    -0.5628900
  C        3.1364470     0.8361460     0.1179860
  C        1.5277130     2.5174420    -0.5614560
  C        2.8303350     2.1515420    -0.2122750
  C       -2.0336590     0.6403590     0.8794580
  C       -2.7013800    -1.0161980    -0.7629970
  C       -3.3755740     0.9555500     1.0975090
  C       -4.0377320    -0.6802290    -0.5577760
  C        3.8275740    -1.9241930     0.5318010
  C       -4.3779170     0.3056950     0.3735650
  H       -0.4794410     1.8136050    -0.8470490
  H        4.1617050     0.5791300     0.3641360
  H        1.7801010    -2.1461120     0.0568400
  H        1.2958720     3.5406330    -0.8437660
  H        3.6204230     2.8995150    -0.1925990
  H       -1.2541740     1.1373190     1.4511930
  H       -2.4205700    -1.7983260    -1.4636490
  H       -3.6394530     1.7093650     1.8355280
  H       -4.8171580    -1.1915530    -1.1177270
  H        4.4331860    -1.7182640    -0.3623870
  H        3.8136890    -3.0019290     0.7024740
  H        4.3131750    -1.4541550     1.3926990
  H       -5.4217990     0.5615290     0.5392290
units angstrom
no_reorient  #important for SAPT in psi4, default
symmetry c1  #important for SAPT in psi4, default
}

set PROPERTIES_ORIGIN ["COM"]
properties('MP2/aug-cc-pvtz', properties = ['dipole'])
--------------------------------------------------------------------------

    Molecular point group: c1
  Charge       = 0
  Multiplicity = 1
  Basis Set: AUG-CC-PVTZ
    Blend: AUG-CC-PVTZ
  Basis Set: (AUG-CC-PVTZ AUX)
    Blend: AUG-CC-PVTZ-JKFIT

    Orbital Energies [Eh]
    ---------------------

    Doubly Occupied:

       1A    -20.555122     2A    -15.561820     3A    -11.338632
       4A    -11.291702     5A    -11.257385     6A    -11.248872
       7A    -11.248528     8A    -11.247964     9A    -11.247053
      10A    -11.246374    11A    -11.243640    12A    -11.243310
      13A    -11.241580    14A    -11.236591    15A    -11.226043
      16A    -11.223656    17A     -1.448851    18A     -1.244606
      19A     -1.159759    20A     -1.137695    21A     -1.046613
      22A     -1.022826    23A     -1.015520    24A     -1.007262
      25A     -0.926511    26A     -0.879554    27A     -0.841694
      28A     -0.830659    29A     -0.804518    30A     -0.769646
      31A     -0.717147    32A     -0.703361    33A     -0.689562
      34A     -0.663872    35A     -0.649475    36A     -0.632947
      37A     -0.620953    38A     -0.616231    39A     -0.612593
      40A     -0.604085    41A     -0.595112    42A     -0.580403
      43A     -0.571546    44A     -0.542070    45A     -0.533897
      46A     -0.519733    47A     -0.510534    48A     -0.504594
      49A     -0.499829    50A     -0.497065    51A     -0.428463
      52A     -0.405980    53A     -0.347721    54A     -0.343699
      55A     -0.341164    56A     -0.290044

  @DF-RHF Final Energy:  -667.25653820747641

   => Energetics <=

    Nuclear Repulsion Energy =           1002.6270937866928534
    One-Electron Energy =               -2896.1351313984218905
    Two-Electron Energy =                1226.2514994042526268
    Total Energy =                       -667.2565382074762965
  Basis Set: (AUG-CC-PVTZ AUX)
    Blend: AUG-CC-PVTZ-RI
    Molecular point group: c1

    Geometry (in Angstrom), charge = 0, multiplicity = 1:

       Center              X                  Y                   Z               Mass
    ------------   -----------------  -----------------  -----------------  -----------------
         O           -0.040650278776    -1.990873878806    -0.449225502528    15.994914619570
         N            2.481666721224    -1.465052878806     0.411837497472    14.003074004430
         C            0.834268721224     0.220383121194    -0.208085502528    12.000000000000
         C            2.176838721224    -0.164513878806     0.087712497472    12.000000000000
         C           -0.237508478776    -0.877225978806    -0.269294102528    12.000000000000
         C           -1.667301278776    -0.335098878806    -0.050990502528    12.000000000000
         C            0.558648721224     1.555762121194    -0.554893502528    12.000000000000
         C            3.160744721224     0.846022121194     0.125982497472    12.000000000000
         C            1.552010721224     2.527318121194    -0.553459502528    12.000000000000
         C            2.854632721224     2.161418121194    -0.204278502528    12.000000000000
         C           -2.009361278776     0.650235121194     0.887454497472    12.000000000000
         C           -2.677082278776    -1.006321878806    -0.755000502528    12.000000000000
         C           -3.351276278776     0.965426121194     1.105505497472    12.000000000000
         C           -4.013434278776    -0.670352878806    -0.549779502528    12.000000000000
         C            3.851871721224    -1.914316878806     0.539797497472    12.000000000000
         C           -4.353619278776     0.315571121194     0.381561497472    12.000000000000
         H           -0.455143278776     1.823481121194    -0.839052502528     1.007825032230
         H            4.186002721224     0.589006121194     0.372132497472     1.007825032230
         H            1.804398721224    -2.136235878806     0.064836497472     1.007825032230
         H            1.320169721224     3.550509121194    -0.835769502528     1.007825032230
         H            3.644720721224     2.909391121194    -0.184602502528     1.007825032230
         H           -1.229876278776     1.147195121194     1.459189497472     1.007825032230
         H           -2.396272278776    -1.788449878806    -1.455652502528     1.007825032230
         H           -3.615155278776     1.719241121194     1.843524497472     1.007825032230
         H           -4.792860278776    -1.181676878806    -1.109730502528     1.007825032230
         H            4.457483721224    -1.708387878806    -0.354390502528     1.007825032230
         H            3.837986721224    -2.992052878806     0.710470497472     1.007825032230
         H            4.337472721224    -1.444278878806     1.400695497472     1.007825032230
         H           -5.397501278776     0.571405121194     0.547225497472     1.007825032230

  Basis Set: AUG-CC-PVTZ
    Blend: AUG-CC-PVTZ
  Basis Set: (AUG-CC-PVTZ AUX)
    Blend: AUG-CC-PVTZ-JKFIT
	 Reference Energy          =    -667.2565382074764102 [Eh]
	 Singles Energy            =      -0.0000000000000000 [Eh]
	 Same-Spin Energy          =      -0.7318098339228820 [Eh]
	 Opposite-Spin Energy      =      -2.2597851753199496 [Eh]
	 Correlation Energy        =      -2.9915950092428316 [Eh]
	 Total Energy              =    -670.2481332167192249 [Eh]

	 ================> DF-SCS-MP2 Energies <==================
	-----------------------------------------------------------
	 SCS Same-Spin Scale       =       0.3333333333333333 [-]
	 SCS Opposite-Spin Scale   =       1.2000000000000000 [-]
	 SCS Same-Spin Energy      =      -0.2439366113076273 [Eh]
	 SCS Opposite-Spin Energy  =      -2.7117422103839393 [Eh]
	 SCS Correlation Energy    =      -2.9556788216915666 [Eh]
	 SCS Total Energy          =    -670.2122170291679595 [Eh]
	-----------------------------------------------------------

  Dipole Moment: [D]
     X:     0.2951      Y:     0.6784      Z:     0.2483     Total:     0.7803

*** Psi4 exiting successfully. Buy a developer a beer!
