                               Psi4 1.3.2 release

  ==> Input File <==

--------------------------------------------------------------------------
#psi4
#
memory 32 gb

molecule  {
0 1
  O       -0.0649480    -2.0007500    -0.4572220
  N        2.4573690    -1.4749290     0.4038410
  C        0.8607200     0.3506891    -0.2262689
  C        2.1525410    -0.1743900     0.0797160
  C       -0.2789970    -0.7898520    -0.2615780
  C       -1.6915990    -0.3449750    -0.0589870
  C        0.5343510     1.5458860    -0.5628900
  C        3.1364470     0.8361460     0.1179860
  C        1.5277130     2.5174420    -0.5614560
  C        2.8303350     2.1515420    -0.2122750
  C       -2.0336590     0.6403590     0.8794580
  C       -2.7013800    -1.0161980    -0.7629970
  C       -3.3755740     0.9555500     1.0975090
  C       -4.0377320    -0.6802290    -0.5577760
  C        3.8275740    -1.9241930     0.5318010
  C       -4.3779170     0.3056950     0.3735650
  H       -0.4794410     1.8136050    -0.8470490
  H        4.1617050     0.5791300     0.3641360
  H        1.7801010    -2.1461120     0.0568400
  H        1.2958720     3.5406330    -0.8437660
  H        3.6204230     2.8995150    -0.1925990
  H       -1.2541740     1.1373190     1.4511930
  H       -2.4205700    -1.7983260    -1.4636490
  H       -3.6394530     1.7093650     1.8355280
  H       -4.8171580    -1.1915530    -1.1177270
  H        4.4331860    -1.7182640    -0.3623870
  H        3.8136890    -3.0019290     0.7024740
  H        4.3131750    -1.4541550     1.3926990
  H       -5.4217990     0.5615290     0.5392290
units angstrom
no_reorient  #important for SAPT in psi4, default
symmetry c1  #important for SAPT in psi4, default
}

set PROPERTIES_ORIGIN ["COM"]
properties('MP2/aug-cc-pvtz', properties = ['dipole'])
--------------------------------------------------------------------------

    Molecular point group: c1
  Charge       = 0
  Multiplicity = 1
  Basis Set: AUG-CC-PVTZ
    Blend: AUG-CC-PVTZ
  Basis Set: (AUG-CC-PVTZ AUX)
    Blend: AUG-CC-PVTZ-JKFIT

    Orbital Energies [Eh]
    ---------------------

    Doubly Occupied:

       1A    -20.550410     2A    -15.563027     3A    -11.349798
       4A    -11.292571     5A    -11.257718     6A    -11.253183
       7A    -11.251845     8A    -11.250612     9A    -11.248838
      10A    -11.246493    11A    -11.245073    12A    -11.243483
      13A    -11.240896    14A    -11.234060    15A    -11.223747
      16A    -11.221692    17A     -1.376832    18A     -1.243507
      19A     -1.166455    20A     -1.154446    21A     -1.053230
      22A     -1.028223    23A     -1.023989    24A     -1.008268
      25A     -0.927505    26A     -0.882713    27A     -0.841380
      28A     -0.830789    29A     -0.815162    30A     -0.771443
      31A     -0.716205    32A     -0.702044    33A     -0.688558
      34A     -0.650455    35A     -0.645367    36A     -0.633220
      37A     -0.620916    38A     -0.614544    39A     -0.609162
      40A     -0.599382    41A     -0.597309    42A     -0.583254
      43A     -0.544892    44A     -0.539453    45A     -0.530404
      46A     -0.523219    47A     -0.516837    48A     -0.505803
      49A     -0.502083    50A     -0.491585    51A     -0.431214
      52A     -0.405774    53A     -0.359519    54A     -0.347268
      55A     -0.345562    56A     -0.286667

  @DF-RHF Final Energy:  -667.23671851705433

   => Energetics <=

    Nuclear Repulsion Energy =           1002.4192607716117891
    One-Electron Energy =               -2895.7357857975084698
    Two-Electron Energy =                1226.0798065088422391
    Total Energy =                       -667.2367185170544417
  Basis Set: (AUG-CC-PVTZ AUX)
    Blend: AUG-CC-PVTZ-RI
    Molecular point group: c1

    Geometry (in Angstrom), charge = 0, multiplicity = 1:

       Center              X                  Y                   Z               Mass
    ------------   -----------------  -----------------  -----------------  -----------------
         O           -0.042557900498    -2.004370753555    -0.449539611907    15.994914619570
         N            2.479759099502    -1.478549753555     0.411523388093    14.003074004430
         C            0.883110099502     0.347068346445    -0.218586511907    12.000000000000
         C            2.174931099502    -0.178010753555     0.087398388093    12.000000000000
         C           -0.256606900498    -0.793472753555    -0.253895611907    12.000000000000
         C           -1.669208900498    -0.348595753555    -0.051304611907    12.000000000000
         C            0.556741099502     1.542265246445    -0.555207611907    12.000000000000
         C            3.158837099502     0.832525246445     0.125668388093    12.000000000000
         C            1.550103099502     2.513821246445    -0.553773611907    12.000000000000
         C            2.852725099502     2.147921246445    -0.204592611907    12.000000000000
         C           -2.011268900498     0.636738246445     0.887140388093    12.000000000000
         C           -2.678989900498    -1.019818753555    -0.755314611907    12.000000000000
         C           -3.353183900498     0.951929246445     1.105191388093    12.000000000000
         C           -4.015341900498    -0.683849753555    -0.550093611907    12.000000000000
         C            3.849964099502    -1.927813753555     0.539483388093    12.000000000000
         C           -4.355526900498     0.302074246445     0.381247388093    12.000000000000
         H           -0.457050900498     1.809984246445    -0.839366611907     1.007825032230
         H            4.184095099502     0.575509246445     0.371818388093     1.007825032230
         H            1.802491099502    -2.149732753555     0.064522388093     1.007825032230
         H            1.318262099502     3.537012246445    -0.836083611907     1.007825032230
         H            3.642813099502     2.895894246445    -0.184916611907     1.007825032230
         H           -1.231783900498     1.133698246445     1.458875388093     1.007825032230
         H           -2.398179900498    -1.801946753555    -1.455966611907     1.007825032230
         H           -3.617062900498     1.705744246445     1.843210388093     1.007825032230
         H           -4.794767900498    -1.195173753555    -1.110044611907     1.007825032230
         H            4.455576099502    -1.721884753555    -0.354704611907     1.007825032230
         H            3.836079099502    -3.005549753555     0.710156388093     1.007825032230
         H            4.335565099502    -1.457775753555     1.400381388093     1.007825032230
         H           -5.399408900498     0.557908246445     0.546911388093     1.007825032230

  Basis Set: AUG-CC-PVTZ
    Blend: AUG-CC-PVTZ
  Basis Set: (AUG-CC-PVTZ AUX)
    Blend: AUG-CC-PVTZ-JKFIT
	 Reference Energy          =    -667.2367185170543280 [Eh]
	 Singles Energy            =      -0.0000000000000000 [Eh]
	 Same-Spin Energy          =      -0.7346474669632366 [Eh]
	 Opposite-Spin Energy      =      -2.2657266703968095 [Eh]
	 Correlation Energy        =      -3.0003741373600459 [Eh]
	 Total Energy              =    -670.2370926544143686 [Eh]

	 ================> DF-SCS-MP2 Energies <==================
	-----------------------------------------------------------
	 SCS Same-Spin Scale       =       0.3333333333333333 [-]
	 SCS Opposite-Spin Scale   =       1.2000000000000000 [-]
	 SCS Same-Spin Energy      =      -0.2448824889877455 [Eh]
	 SCS Opposite-Spin Energy  =      -2.7188720044761712 [Eh]
	 SCS Correlation Energy    =      -2.9637544934639166 [Eh]
	 SCS Total Energy          =    -670.2004730105182944 [Eh]
	-----------------------------------------------------------

  Dipole Moment: [D]
     X:    -0.1613      Y:     0.8703      Z:     0.3123     Total:     0.9386

*** Psi4 exiting successfully. Buy a developer a beer!
