                               Psi4 1.3.2 release

  ==> Input File <==

--------------------------------------------------------------------------
#psi4
#
memory 32 gb

molecule  {
0 1
  O       -0.0649480    -2.0007500    -0.4572220
  N        2.4573690    -1.4749290     0.4038410
  C        0.7003597     0.3166382    -0.1896109
  C        2.1525410    -0.1743900     0.0797160
  C       -0.2789970    -0.7898520    -0.2615780
  C       -1.6915990    -0.3449750    -0.0589870
  C        0.5343510     1.5458860    -0.5628900
  C        3.1364470     0.8361460     0.1179860
  C        1.5277130     2.5174420    -0.5614560
  C        2.8303350     2.1515420    -0.2122750
  C       -2.0336590     0.6403590     0.8794580
  C       -2.7013800    -1.0161980    -0.7629970
  C       -3.3755740     0.9555500     1.0975090
  C       -4.0377320    -0.6802290    -0.5577760
  C        3.8275740    -1.9241930     0.5318010
  C       -4.3779170     0.3056950     0.3735650
  H       -0.4794410     1.8136050    -0.8470490
  H        4.1617050     0.5791300     0.3641360
  H        1.7801010    -2.1461120     0.0568400
  H        1.2958720     3.5406330    -0.8437660
  H        3.6204230     2.8995150    -0.1925990
  H       -1.2541740     1.1373190     1.4511930
  H       -2.4205700    -1.7983260    -1.4636490
  H       -3.6394530     1.7093650     1.8355280
  H       -4.8171580    -1.1915530    -1.1177270
  H        4.4331860    -1.7182640    -0.3623870
  H        3.8136890    -3.0019290     0.7024740
  H        4.3131750    -1.4541550     1.3926990
  H       -5.4217990     0.5615290     0.5392290
units angstrom
no_reorient  #important for SAPT in psi4, default
symmetry c1  #important for SAPT in psi4, default
}

set PROPERTIES_ORIGIN ["COM"]
properties('MP2/aug-cc-pvtz', properties = ['dipole'])
--------------------------------------------------------------------------

    Molecular point group: c1
  Charge       = 0
  Multiplicity = 1
  Basis Set: AUG-CC-PVTZ
    Blend: AUG-CC-PVTZ
  Basis Set: (AUG-CC-PVTZ AUX)
    Blend: AUG-CC-PVTZ-JKFIT

    Orbital Energies [Eh]
    ---------------------

    Doubly Occupied:

       1A    -20.546317     2A    -15.568842     3A    -11.344368
       4A    -11.307115     5A    -11.259567     6A    -11.252475
       7A    -11.250507     8A    -11.249613     9A    -11.246509
      10A    -11.245349    11A    -11.244410    12A    -11.243219
      13A    -11.242871    14A    -11.241145    15A    -11.222829
      16A    -11.221486    17A     -1.375704    18A     -1.243893
      19A     -1.165030    20A     -1.148272    21A     -1.062866
      22A     -1.027150    23A     -1.022382    24A     -1.001531
      25A     -0.932663    26A     -0.892437    27A     -0.842828
      28A     -0.830617    29A     -0.809381    30A     -0.768598
      31A     -0.715689    32A     -0.709822    33A     -0.684582
      34A     -0.653760    35A     -0.643897    36A     -0.633029
      37A     -0.617581    38A     -0.613600    39A     -0.608539
      40A     -0.607088    41A     -0.596014    42A     -0.580782
      43A     -0.546403    44A     -0.540492    45A     -0.534294
      46A     -0.521389    47A     -0.512283    48A     -0.501046
      49A     -0.493582    50A     -0.486239    51A     -0.433563
      52A     -0.415497    53A     -0.364000    54A     -0.345430
      55A     -0.343199    56A     -0.283264

  @DF-RHF Final Energy:  -667.23648707208224

   => Energetics <=

    Nuclear Repulsion Energy =           1002.4586025167662910
    One-Electron Energy =               -2895.8000993802324956
    Two-Electron Energy =                1226.1050097913839636
    Total Energy =                       -667.2364870720821273
  Basis Set: (AUG-CC-PVTZ AUX)
    Blend: AUG-CC-PVTZ-RI
    Molecular point group: c1

    Geometry (in Angstrom), charge = 0, multiplicity = 1:

       Center              X                  Y                   Z               Mass
    ------------   -----------------  -----------------  -----------------  -----------------
         O           -0.033442191324    -2.002435124216    -0.451623442299    15.994914619570
         N            2.488874808676    -1.476614124216     0.409439557701    14.003074004430
         C            0.731865508676     0.314953075784    -0.184012342299    12.000000000000
         C            2.184046808676    -0.176075124216     0.085314557701    12.000000000000
         C           -0.247491191324    -0.791537124216    -0.255979442299    12.000000000000
         C           -1.660093191324    -0.346660124216    -0.053388442299    12.000000000000
         C            0.565856808676     1.544200875784    -0.557291442299    12.000000000000
         C            3.167952808676     0.834460875784     0.123584557701    12.000000000000
         C            1.559218808676     2.515756875784    -0.555857442299    12.000000000000
         C            2.861840808676     2.149856875784    -0.206676442299    12.000000000000
         C           -2.002153191324     0.638673875784     0.885056557701    12.000000000000
         C           -2.669874191324    -1.017883124216    -0.757398442299    12.000000000000
         C           -3.344068191324     0.953864875784     1.103107557701    12.000000000000
         C           -4.006226191324    -0.681914124216    -0.552177442299    12.000000000000
         C            3.859079808676    -1.925878124216     0.537399557701    12.000000000000
         C           -4.346411191324     0.304009875784     0.379163557701    12.000000000000
         H           -0.447935191324     1.811919875784    -0.841450442299     1.007825032230
         H            4.193210808676     0.577444875784     0.369734557701     1.007825032230
         H            1.811606808676    -2.147797124216     0.062438557701     1.007825032230
         H            1.327377808676     3.538947875784    -0.838167442299     1.007825032230
         H            3.651928808676     2.897829875784    -0.187000442299     1.007825032230
         H           -1.222668191324     1.135633875784     1.456791557701     1.007825032230
         H           -2.389064191324    -1.800011124216    -1.458050442299     1.007825032230
         H           -3.607947191324     1.707679875784     1.841126557701     1.007825032230
         H           -4.785652191324    -1.193238124216    -1.112128442299     1.007825032230
         H            4.464691808676    -1.719949124216    -0.356788442299     1.007825032230
         H            3.845194808676    -3.003614124216     0.708072557701     1.007825032230
         H            4.344680808676    -1.455840124216     1.398297557701     1.007825032230
         H           -5.390293191324     0.559843875784     0.544827557701     1.007825032230

  Basis Set: AUG-CC-PVTZ
    Blend: AUG-CC-PVTZ
  Basis Set: (AUG-CC-PVTZ AUX)
    Blend: AUG-CC-PVTZ-JKFIT
	 Reference Energy          =    -667.2364870720822410 [Eh]
	 Singles Energy            =      -0.0000000000000000 [Eh]
	 Same-Spin Energy          =      -0.7349078212168746 [Eh]
	 Opposite-Spin Energy      =      -2.2663516524482210 [Eh]
	 Correlation Energy        =      -3.0012594736650957 [Eh]
	 Total Energy              =    -670.2377465457473136 [Eh]

	 ================> DF-SCS-MP2 Energies <==================
	-----------------------------------------------------------
	 SCS Same-Spin Scale       =       0.3333333333333333 [-]
	 SCS Opposite-Spin Scale   =       1.2000000000000000 [-]
	 SCS Same-Spin Energy      =      -0.2449692737389582 [Eh]
	 SCS Opposite-Spin Energy  =      -2.7196219829378649 [Eh]
	 SCS Correlation Energy    =      -2.9645912566768233 [Eh]
	 SCS Total Energy          =    -670.2010783287590812 [Eh]
	-----------------------------------------------------------

  Dipole Moment: [D]
     X:     0.3785      Y:     0.9810      Z:     0.3548     Total:     1.1097

*** Psi4 exiting successfully. Buy a developer a beer!
