                               Psi4 1.4a2.dev612

  ==> Input File <==

--------------------------------------------------------------------------
#psi4
#
memory 32 gb

molecule  {
0 1
  O       -0.0649480    -2.0007500    -0.4572220
  N        2.4573690    -1.4749290     0.4038410
  C        0.8099710     0.2105070    -0.2160820
  C        2.1525410    -0.1743900     0.0797160
  C       -0.2789970    -0.7898520    -0.2615780
  C       -1.6915990    -0.3449750    -0.0589870
  C        0.5343510     1.5458860    -0.5628900
  C        3.1364470     0.8361460     0.1179860
  C        1.5277130     2.5174420    -0.5614560
  C        2.8303350     2.1515420    -0.2122750
  C       -1.9848997     0.4999036     0.7456865
  C       -2.7013800    -1.0161980    -0.7629970
  C       -3.3755740     0.9555500     1.0975090
  C       -4.0377320    -0.6802290    -0.5577760
  C        3.8275740    -1.9241930     0.5318010
  C       -4.3779170     0.3056950     0.3735650
  H       -0.4794410     1.8136050    -0.8470490
  H        4.1617050     0.5791300     0.3641360
  H        1.7801010    -2.1461120     0.0568400
  H        1.2958720     3.5406330    -0.8437660
  H        3.6204230     2.8995150    -0.1925990
  H       -1.2541740     1.1373190     1.4511930
  H       -2.4205700    -1.7983260    -1.4636490
  H       -3.6394530     1.7093650     1.8355280
  H       -4.8171580    -1.1915530    -1.1177270
  H        4.4331860    -1.7182640    -0.3623870
  H        3.8136890    -3.0019290     0.7024740
  H        4.3131750    -1.4541550     1.3926990
  H       -5.4217990     0.5615290     0.5392290
units angstrom
no_reorient  #important for SAPT in psi4, default
symmetry c1  #important for SAPT in psi4, default
}

set PROPERTIES_ORIGIN ["COM"]
properties('MP2/aug-cc-pvtz', properties = ['dipole'])
--------------------------------------------------------------------------

    Molecular point group: c1
  Charge       = 0
  Multiplicity = 1
  Basis Set: AUG-CC-PVTZ
    Blend: AUG-CC-PVTZ
  Basis Set: (AUG-CC-PVTZ AUX)
    Blend: AUG-CC-PVTZ-JKFIT

    Orbital Energies [Eh]
    ---------------------

    Doubly Occupied:

       1A    -20.542815     2A    -15.562399     3A    -11.341769
       4A    -11.297603     5A    -11.257400     6A    -11.253315
       7A    -11.253062     8A    -11.252875     9A    -11.247351
      10A    -11.245616    11A    -11.245246    12A    -11.241192
      13A    -11.238824    14A    -11.228951    15A    -11.225912
      16A    -11.225756    17A     -1.375320    18A     -1.244841
      19A     -1.183692    20A     -1.142383    21A     -1.069941
      22A     -1.031929    23A     -1.010343    24A     -1.006759
      25A     -0.930039    26A     -0.886474    27A     -0.848153
      28A     -0.835650    29A     -0.809343    30A     -0.774144
      31A     -0.717783    32A     -0.700750    33A     -0.680922
      34A     -0.658306    35A     -0.644353    36A     -0.636769
      37A     -0.618371    38A     -0.616979    39A     -0.615293
      40A     -0.603631    41A     -0.579744    42A     -0.577471
      43A     -0.546744    44A     -0.542247    45A     -0.530921
      46A     -0.521793    47A     -0.520022    48A     -0.504443
      49A     -0.490815    50A     -0.479851    51A     -0.429042
      52A     -0.415043    53A     -0.375415    54A     -0.348028
      55A     -0.328671    56A     -0.292576

  @DF-RHF Final Energy:  -667.20319425879666

   => Energetics <=

    Nuclear Repulsion Energy =           1005.9349689084326656
    One-Electron Energy =               -2902.7061702920368589
    Two-Electron Energy =                1229.5680071248075365
    Total Energy =                       -667.2031942587966569
  Basis Set: (AUG-CC-PVTZ AUX)
    Blend: AUG-CC-PVTZ-RI
    Molecular point group: c1

    Geometry (in Angstrom), charge = 0, multiplicity = 1:

       Center              X                  Y                   Z               Mass
    ------------   -----------------  -----------------  -----------------  -----------------
         O           -0.042444795655    -1.988417866005    -0.442514423802    15.994914619570
         N            2.479872204345    -1.462596866005     0.418548576198    14.003074004430
         C            0.832474204345     0.222839133995    -0.201374423802    12.000000000000
         C            2.175044204345    -0.162057866005     0.094423576198    12.000000000000
         C           -0.256493795655    -0.777519866005    -0.246870423802    12.000000000000
         C           -1.669095795655    -0.332642866005    -0.044279423802    12.000000000000
         C            0.556854204345     1.558218133995    -0.548182423802    12.000000000000
         C            3.158950204345     0.848478133995     0.132693576198    12.000000000000
         C            1.550216204345     2.529774133995    -0.546748423802    12.000000000000
         C            2.852838204345     2.163874133995    -0.197567423802    12.000000000000
         C           -1.962396495655     0.512235733995     0.760394076198    12.000000000000
         C           -2.678876795655    -1.003865866005    -0.748289423802    12.000000000000
         C           -3.353070795655     0.967882133995     1.112216576198    12.000000000000
         C           -4.015228795655    -0.667896866005    -0.543068423802    12.000000000000
         C            3.850077204345    -1.911860866005     0.546508576198    12.000000000000
         C           -4.355413795655     0.318027133995     0.388272576198    12.000000000000
         H           -0.456937795655     1.825937133995    -0.832341423802     1.007825032230
         H            4.184208204345     0.591462133995     0.378843576198     1.007825032230
         H            1.802604204345    -2.133779866005     0.071547576198     1.007825032230
         H            1.318375204345     3.552965133995    -0.829058423802     1.007825032230
         H            3.642926204345     2.911847133995    -0.177891423802     1.007825032230
         H           -1.231670795655     1.149651133995     1.465900576198     1.007825032230
         H           -2.398066795655    -1.785993866005    -1.448941423802     1.007825032230
         H           -3.616949795655     1.721697133995     1.850235576198     1.007825032230
         H           -4.794654795655    -1.179220866005    -1.103019423802     1.007825032230
         H            4.455689204345    -1.705931866005    -0.347679423802     1.007825032230
         H            3.836192204345    -2.989596866005     0.717181576198     1.007825032230
         H            4.335678204345    -1.441822866005     1.407406576198     1.007825032230
         H           -5.399295795655     0.573861133995     0.553936576198     1.007825032230

  Basis Set: AUG-CC-PVTZ
    Blend: AUG-CC-PVTZ
  Basis Set: (AUG-CC-PVTZ AUX)
    Blend: AUG-CC-PVTZ-JKFIT
	 Reference Energy          =    -667.2031942587966569 [Eh]
	 Singles Energy            =      -0.0000000000000000 [Eh]
	 Same-Spin Energy          =      -0.7338739411146924 [Eh]
	 Opposite-Spin Energy      =      -2.2667838570557914 [Eh]
	 Correlation Energy        =      -3.0006577981704838 [Eh]
	 Total Energy              =    -670.2038520569670936 [Eh]

	 ================> DF-SCS-MP2 Energies <==================
	-----------------------------------------------------------
	 SCS Same-Spin Scale       =       0.3333333333333333 [-]
	 SCS Opposite-Spin Scale   =       1.2000000000000000 [-]
	 SCS Same-Spin Energy      =      -0.2446246470382308 [Eh]
	 SCS Opposite-Spin Energy  =      -2.7201406284669498 [Eh]
	 SCS Correlation Energy    =      -2.9647652755051808 [Eh]
	 SCS Total Energy          =    -670.1679595343018718 [Eh]
	-----------------------------------------------------------

  Dipole Moment: [D]
     X:     0.3907      Y:     1.2072      Z:     0.3543     Total:     1.3174

*** Psi4 exiting successfully. Buy a developer a beer!
