                               Psi4 1.3.2 release

  ==> Input File <==

--------------------------------------------------------------------------
#psi4
#
memory 32 gb

molecule  {
0 1
  O       -0.0649480    -2.0007500    -0.4572220
  N        2.4573690    -1.4749290     0.4038410
  C        0.8099710     0.2105070    -0.2160820
  C        2.2322221    -0.1477126     0.1260204
  C       -0.2789970    -0.7898520    -0.2615780
  C       -1.6915990    -0.3449750    -0.0589870
  C        0.5343510     1.5458860    -0.5628900
  C        3.1364470     0.8361460     0.1179860
  C        1.5277130     2.5174420    -0.5614560
  C        2.8303350     2.1515420    -0.2122750
  C       -2.0336590     0.6403590     0.8794580
  C       -2.7013800    -1.0161980    -0.7629970
  C       -3.3755740     0.9555500     1.0975090
  C       -4.0377320    -0.6802290    -0.5577760
  C        3.8275740    -1.9241930     0.5318010
  C       -4.3779170     0.3056950     0.3735650
  H       -0.4794410     1.8136050    -0.8470490
  H        4.1617050     0.5791300     0.3641360
  H        1.7801010    -2.1461120     0.0568400
  H        1.2958720     3.5406330    -0.8437660
  H        3.6204230     2.8995150    -0.1925990
  H       -1.2541740     1.1373190     1.4511930
  H       -2.4205700    -1.7983260    -1.4636490
  H       -3.6394530     1.7093650     1.8355280
  H       -4.8171580    -1.1915530    -1.1177270
  H        4.4331860    -1.7182640    -0.3623870
  H        3.8136890    -3.0019290     0.7024740
  H        4.3131750    -1.4541550     1.3926990
  H       -5.4217990     0.5615290     0.5392290
units angstrom
no_reorient  #important for SAPT in psi4, default
symmetry c1  #important for SAPT in psi4, default
}

set PROPERTIES_ORIGIN ["COM"]
properties('MP2/aug-cc-pvtz', properties = ['dipole'])
--------------------------------------------------------------------------

    Molecular point group: c1
  Charge       = 0
  Multiplicity = 1
  Basis Set: AUG-CC-PVTZ
    Blend: AUG-CC-PVTZ
  Basis Set: (AUG-CC-PVTZ AUX)
    Blend: AUG-CC-PVTZ-JKFIT

    Orbital Energies [Eh]
    ---------------------

    Doubly Occupied:

       1A    -20.539302     2A    -15.560477     3A    -11.340676
       4A    -11.294797     5A    -11.256125     6A    -11.254120
       7A    -11.253836     8A    -11.251316     9A    -11.250228
      10A    -11.249549    11A    -11.247036    12A    -11.245092
      13A    -11.244903    14A    -11.243539    15A    -11.227019
      16A    -11.220077    17A     -1.371766    18A     -1.243888
      19A     -1.163422    20A     -1.142591    21A     -1.056753
      22A     -1.025912    23A     -1.021622    24A     -1.011127
      25A     -0.927467    26A     -0.892469    27A     -0.846536
      28A     -0.833486    29A     -0.802675    30A     -0.770119
      31A     -0.718701    32A     -0.707212    33A     -0.681854
      34A     -0.657084    35A     -0.644511    36A     -0.634895
      37A     -0.623246    38A     -0.612310    39A     -0.608201
      40A     -0.599086    41A     -0.596014    42A     -0.576033
      43A     -0.544337    44A     -0.541938    45A     -0.534337
      46A     -0.520803    47A     -0.513209    48A     -0.501416
      49A     -0.495398    50A     -0.484766    51A     -0.429001
      52A     -0.419690    53A     -0.351705    54A     -0.344860
      55A     -0.343503    56A     -0.292859

  @DF-RHF Final Energy:  -667.25291769345210

   => Energetics <=

    Nuclear Repulsion Energy =           1001.8745175189824295
    One-Electron Energy =               -2894.7250849134766213
    Two-Electron Energy =                1225.5976497010422008
    Total Energy =                       -667.2529176934519910
  Basis Set: (AUG-CC-PVTZ AUX)
    Blend: AUG-CC-PVTZ-RI
    Molecular point group: c1

    Geometry (in Angstrom), charge = 0, multiplicity = 1:

       Center              X                  Y                   Z               Mass
    ------------   -----------------  -----------------  -----------------  -----------------
         O           -0.044202550760    -1.997918559121    -0.452750869691    15.994914619570
         N            2.478114449240    -1.472097559121     0.408312130309    14.003074004430
         C            0.830716449240     0.213338440879    -0.211610869691    12.000000000000
         C            2.252967549240    -0.144881159121     0.130491530309    12.000000000000
         C           -0.258251550760    -0.787020559121    -0.257106869691    12.000000000000
         C           -1.670853550760    -0.342143559121    -0.054515869691    12.000000000000
         C            0.555096449240     1.548717440879    -0.558418869691    12.000000000000
         C            3.157192449240     0.838977440879     0.122457130309    12.000000000000
         C            1.548458449240     2.520273440879    -0.556984869691    12.000000000000
         C            2.851080449240     2.154373440879    -0.207803869691    12.000000000000
         C           -2.012913550760     0.643190440879     0.883929130309    12.000000000000
         C           -2.680634550760    -1.013366559121    -0.758525869691    12.000000000000
         C           -3.354828550760     0.958381440879     1.101980130309    12.000000000000
         C           -4.016986550760    -0.677397559121    -0.553304869691    12.000000000000
         C            3.848319449240    -1.921361559121     0.536272130309    12.000000000000
         C           -4.357171550760     0.308526440879     0.378036130309    12.000000000000
         H           -0.458695550760     1.816436440879    -0.842577869691     1.007825032230
         H            4.182450449240     0.581961440879     0.368607130309     1.007825032230
         H            1.800846449240    -2.143280559121     0.061311130309     1.007825032230
         H            1.316617449240     3.543464440879    -0.839294869691     1.007825032230
         H            3.641168449240     2.902346440879    -0.188127869691     1.007825032230
         H           -1.233428550760     1.140150440879     1.455664130309     1.007825032230
         H           -2.399824550760    -1.795494559121    -1.459177869691     1.007825032230
         H           -3.618707550760     1.712196440879     1.839999130309     1.007825032230
         H           -4.796412550760    -1.188721559121    -1.113255869691     1.007825032230
         H            4.453931449240    -1.715432559121    -0.357915869691     1.007825032230
         H            3.834434449240    -2.999097559121     0.706945130309     1.007825032230
         H            4.333920449240    -1.451323559121     1.397170130309     1.007825032230
         H           -5.401053550760     0.564360440879     0.543700130309     1.007825032230

  Basis Set: AUG-CC-PVTZ
    Blend: AUG-CC-PVTZ
  Basis Set: (AUG-CC-PVTZ AUX)
    Blend: AUG-CC-PVTZ-JKFIT
	 Reference Energy          =    -667.2529176934521047 [Eh]
	 Singles Energy            =      -0.0000000000000000 [Eh]
	 Same-Spin Energy          =      -0.7346686068389208 [Eh]
	 Opposite-Spin Energy      =      -2.2657273985985542 [Eh]
	 Correlation Energy        =      -3.0003960054374748 [Eh]
	 Total Energy              =    -670.2533136988895421 [Eh]

	 ================> DF-SCS-MP2 Energies <==================
	-----------------------------------------------------------
	 SCS Same-Spin Scale       =       0.3333333333333333 [-]
	 SCS Opposite-Spin Scale   =       1.2000000000000000 [-]
	 SCS Same-Spin Energy      =      -0.2448895356129736 [Eh]
	 SCS Opposite-Spin Energy  =      -2.7188728783182650 [Eh]
	 SCS Correlation Energy    =      -2.9637624139312386 [Eh]
	 SCS Total Energy          =    -670.2166801073833540 [Eh]
	-----------------------------------------------------------

  Dipole Moment: [D]
     X:     0.2386      Y:     1.2903      Z:     0.3296     Total:     1.3529

*** Psi4 exiting successfully. Buy a developer a beer!
