                               Psi4 1.3.2 release

  ==> Input File <==

--------------------------------------------------------------------------
#psi4
#
memory 32 gb

molecule  {
0 1
  O       -0.0649480    -2.0007500    -0.4572220
  N        2.4573690    -1.4749290     0.4038410
  C        0.8099710     0.2105070    -0.2160820
  C        2.1525410    -0.1743900     0.0797160
  C       -0.2789970    -0.7898520    -0.2615780
  C       -1.6915990    -0.3449750    -0.0589870
  C        0.5343510     1.5458860    -0.5628900
  C        3.1364470     0.8361460     0.1179860
  C        1.5277130     2.5174420    -0.5614560
  C        2.8303350     2.1515420    -0.2122750
  C       -2.0336590     0.6403590     0.8794580
  C       -2.7013800    -1.0161980    -0.7629970
  C       -3.3755740     0.9555500     1.0975090
  C       -4.0377320    -0.6802290    -0.5577760
  C        3.9222247    -1.9552271     0.5406402
  C       -4.3779170     0.3056950     0.3735650
  H       -0.4794410     1.8136050    -0.8470490
  H        4.1617050     0.5791300     0.3641360
  H        1.7801010    -2.1461120     0.0568400
  H        1.2958720     3.5406330    -0.8437660
  H        3.6204230     2.8995150    -0.1925990
  H       -1.2541740     1.1373190     1.4511930
  H       -2.4205700    -1.7983260    -1.4636490
  H       -3.6394530     1.7093650     1.8355280
  H       -4.8171580    -1.1915530    -1.1177270
  H        4.4331860    -1.7182640    -0.3623870
  H        3.8136890    -3.0019290     0.7024740
  H        4.3131750    -1.4541550     1.3926990
  H       -5.4217990     0.5615290     0.5392290
units angstrom
no_reorient  #important for SAPT in psi4, default
symmetry c1  #important for SAPT in psi4, default
}

set PROPERTIES_ORIGIN ["COM"]
properties('MP2/aug-cc-pvtz', properties = ['dipole'])
--------------------------------------------------------------------------

    Molecular point group: c1
  Charge       = 0
  Multiplicity = 1
  Basis Set: AUG-CC-PVTZ
    Blend: AUG-CC-PVTZ
  Basis Set: (AUG-CC-PVTZ AUX)
    Blend: AUG-CC-PVTZ-JKFIT

    Orbital Energies [Eh]
    ---------------------

    Doubly Occupied:

       1A    -20.537698     2A    -15.560188     3A    -11.338159
       4A    -11.295373     5A    -11.259229     6A    -11.251307
       7A    -11.251047     8A    -11.250224     9A    -11.249205
      10A    -11.248099    11A    -11.245889    12A    -11.243960
      13A    -11.242560    14A    -11.235902    15A    -11.227020
      16A    -11.223575    17A     -1.370433    18A     -1.228008
      19A     -1.162194    20A     -1.136599    21A     -1.054540
      22A     -1.024308    23A     -1.018928    24A     -1.005363
      25A     -0.936766    26A     -0.887609    27A     -0.843622
      28A     -0.833583    29A     -0.806049    30A     -0.769142
      31A     -0.715833    32A     -0.697511    33A     -0.679056
      34A     -0.650964    35A     -0.641096    36A     -0.631253
      37A     -0.620658    38A     -0.619618    39A     -0.605200
      40A     -0.598542    41A     -0.595163    42A     -0.561505
      43A     -0.560421    44A     -0.545837    45A     -0.529601
      46A     -0.520780    47A     -0.513125    48A     -0.500666
      49A     -0.499365    50A     -0.485978    51A     -0.432318
      52A     -0.416851    53A     -0.349232    54A     -0.343952
      55A     -0.342164    56A     -0.289103

  @DF-RHF Final Energy:  -667.25479212814776

   => Energetics <=

    Nuclear Repulsion Energy =           1000.4952258912776415
    One-Electron Energy =               -2892.1352940106617098
    Two-Electron Energy =                1224.3852759912363126
    Total Energy =                       -667.2547921281477556
  Basis Set: (AUG-CC-PVTZ AUX)
    Blend: AUG-CC-PVTZ-RI
    Molecular point group: c1

    Geometry (in Angstrom), charge = 0, multiplicity = 1:

       Center              X                  Y                   Z               Mass
    ------------   -----------------  -----------------  -----------------  -----------------
         O           -0.045053500278    -1.994637938855    -0.450621153874    15.994914619570
         N            2.477263499722    -1.468816938855     0.410441846126    14.003074004430
         C            0.829865499722     0.216619061145    -0.209481153874    12.000000000000
         C            2.172435499722    -0.168277938855     0.086316846126    12.000000000000
         C           -0.259102500278    -0.783739938855    -0.254977153874    12.000000000000
         C           -1.671704500278    -0.338862938855    -0.052386153874    12.000000000000
         C            0.554245499722     1.551998061145    -0.556289153874    12.000000000000
         C            3.156341499722     0.842258061145     0.124586846126    12.000000000000
         C            1.547607499722     2.523554061145    -0.554855153874    12.000000000000
         C            2.850229499722     2.157654061145    -0.205674153874    12.000000000000
         C           -2.013764500278     0.646471061145     0.886058846126    12.000000000000
         C           -2.681485500278    -1.010085938855    -0.756396153874    12.000000000000
         C           -3.355679500278     0.961662061145     1.104109846126    12.000000000000
         C           -4.017837500278    -0.674116938855    -0.551175153874    12.000000000000
         C            3.942119199722    -1.949115038855     0.547241046126    12.000000000000
         C           -4.358022500278     0.311807061145     0.380165846126    12.000000000000
         H           -0.459546500278     1.819717061145    -0.840448153874     1.007825032230
         H            4.181599499722     0.585242061145     0.370736846126     1.007825032230
         H            1.799995499722    -2.139999938855     0.063440846126     1.007825032230
         H            1.315766499722     3.546745061145    -0.837165153874     1.007825032230
         H            3.640317499722     2.905627061145    -0.185998153874     1.007825032230
         H           -1.234279500278     1.143431061145     1.457793846126     1.007825032230
         H           -2.400675500278    -1.792213938855    -1.457048153874     1.007825032230
         H           -3.619558500278     1.715477061145     1.842128846126     1.007825032230
         H           -4.797263500278    -1.185440938855    -1.111126153874     1.007825032230
         H            4.453080499722    -1.712151938855    -0.355786153874     1.007825032230
         H            3.833583499722    -2.995816938855     0.709074846126     1.007825032230
         H            4.333069499722    -1.448042938855     1.399299846126     1.007825032230
         H           -5.401904500278     0.567641061145     0.545829846126     1.007825032230

  Basis Set: AUG-CC-PVTZ
    Blend: AUG-CC-PVTZ
  Basis Set: (AUG-CC-PVTZ AUX)
    Blend: AUG-CC-PVTZ-JKFIT
	 Reference Energy          =    -667.2547921281477556 [Eh]
	 Singles Energy            =      -0.0000000000000000 [Eh]
	 Same-Spin Energy          =      -0.7343343324466265 [Eh]
	 Opposite-Spin Energy      =      -2.2659818106130998 [Eh]
	 Correlation Energy        =      -3.0003161430597265 [Eh]
	 Total Energy              =    -670.2551082712075186 [Eh]

	 ================> DF-SCS-MP2 Energies <==================
	-----------------------------------------------------------
	 SCS Same-Spin Scale       =       0.3333333333333333 [-]
	 SCS Opposite-Spin Scale   =       1.2000000000000000 [-]
	 SCS Same-Spin Energy      =      -0.2447781108155422 [Eh]
	 SCS Opposite-Spin Energy  =      -2.7191781727357198 [Eh]
	 SCS Correlation Energy    =      -2.9639562835512621 [Eh]
	 SCS Total Energy          =    -670.2187484116990390 [Eh]
	-----------------------------------------------------------

  Dipole Moment: [D]
     X:     0.6495      Y:     1.0280      Z:     0.3786     Total:     1.2735

*** Psi4 exiting successfully. Buy a developer a beer!
