                               Psi4 1.3.2 release

  ==> Input File <==

--------------------------------------------------------------------------
#psi4
#
memory 32 gb

molecule  {
0 1
  O       -0.0649480    -2.0007500    -0.4572220
  N        2.4573690    -1.4749290     0.4038410
  C        0.8099710     0.2105070    -0.2160820
  C        2.1015277    -0.3143611     0.0913769
  C       -0.2789970    -0.7898520    -0.2615780
  C       -1.6915990    -0.3449750    -0.0589870
  C        0.5343510     1.5458860    -0.5628900
  C        3.1364470     0.8361460     0.1179860
  C        1.5277130     2.5174420    -0.5614560
  C        2.8303350     2.1515420    -0.2122750
  C       -2.0336590     0.6403590     0.8794580
  C       -2.7013800    -1.0161980    -0.7629970
  C       -3.3755740     0.9555500     1.0975090
  C       -4.0377320    -0.6802290    -0.5577760
  C        3.8275740    -1.9241930     0.5318010
  C       -4.3779170     0.3056950     0.3735650
  H       -0.4794410     1.8136050    -0.8470490
  H        4.1617050     0.5791300     0.3641360
  H        1.7801010    -2.1461120     0.0568400
  H        1.2958720     3.5406330    -0.8437660
  H        3.6204230     2.8995150    -0.1925990
  H       -1.2541740     1.1373190     1.4511930
  H       -2.4205700    -1.7983260    -1.4636490
  H       -3.6394530     1.7093650     1.8355280
  H       -4.8171580    -1.1915530    -1.1177270
  H        4.4331860    -1.7182640    -0.3623870
  H        3.8136890    -3.0019290     0.7024740
  H        4.3131750    -1.4541550     1.3926990
  H       -5.4217990     0.5615290     0.5392290
units angstrom
no_reorient  #important for SAPT in psi4, default
symmetry c1  #important for SAPT in psi4, default
}

set PROPERTIES_ORIGIN ["COM"]
properties('MP2/aug-cc-pvtz', properties = ['dipole'])
--------------------------------------------------------------------------

    Molecular point group: c1
  Charge       = 0
  Multiplicity = 1
  Basis Set: AUG-CC-PVTZ
    Blend: AUG-CC-PVTZ
  Basis Set: (AUG-CC-PVTZ AUX)
    Blend: AUG-CC-PVTZ-JKFIT

    Orbital Energies [Eh]
    ---------------------

    Doubly Occupied:

       1A    -20.534799     2A    -15.583537     3A    -11.333000
       4A    -11.307385     5A    -11.274161     6A    -11.248176
       7A    -11.248061     8A    -11.247412     9A    -11.246148
      10A    -11.245157    11A    -11.243707    12A    -11.242252
      13A    -11.240867    14A    -11.233836    15A    -11.230446
      16A    -11.216190    17A     -1.370451    18A     -1.298762
      19A     -1.160144    20A     -1.132108    21A     -1.050595
      22A     -1.023800    23A     -1.020157    24A     -0.999972
      25A     -0.949055    26A     -0.880335    27A     -0.841988
      28A     -0.831710    29A     -0.808771    30A     -0.772274
      31A     -0.717695    32A     -0.707017    33A     -0.689401
      34A     -0.662501    35A     -0.642640    36A     -0.635957
      37A     -0.634416    38A     -0.617023    39A     -0.609025
      40A     -0.593716    41A     -0.591365    42A     -0.575706
      43A     -0.555662    44A     -0.543419    45A     -0.526775
      46A     -0.517047    47A     -0.511977    48A     -0.498512
      49A     -0.491302    50A     -0.486274    51A     -0.449077
      52A     -0.408129    53A     -0.346700    54A     -0.342635
      55A     -0.340177    56A     -0.277431

  @DF-RHF Final Energy:  -667.23454765263273

   => Energetics <=

    Nuclear Repulsion Energy =           1003.0111631405659409
    One-Electron Energy =               -2896.9177550952322235
    Two-Electron Energy =                1226.6720443020335551
    Total Energy =                       -667.2345476526327275
  Basis Set: (AUG-CC-PVTZ AUX)
    Blend: AUG-CC-PVTZ-RI
    Molecular point group: c1

    Geometry (in Angstrom), charge = 0, multiplicity = 1:

       Center              X                  Y                   Z               Mass
    ------------   -----------------  -----------------  -----------------  -----------------
         O           -0.036773204836    -1.988445396123    -0.450781553902    15.994914619570
         N            2.485543795164    -1.462624396123     0.410281446098    14.003074004430
         C            0.838145795164     0.222811603877    -0.209641553902    12.000000000000
         C            2.129702495164    -0.302056496123     0.097817346098    12.000000000000
         C           -0.250822204836    -0.777547396123    -0.255137553902    12.000000000000
         C           -1.663424204836    -0.332670396123    -0.052546553902    12.000000000000
         C            0.562525795164     1.558190603877    -0.556449553902    12.000000000000
         C            3.164621795164     0.848450603877     0.124426446098    12.000000000000
         C            1.555887795164     2.529746603877    -0.555015553902    12.000000000000
         C            2.858509795164     2.163846603877    -0.205834553902    12.000000000000
         C           -2.005484204836     0.652663603877     0.885898446098    12.000000000000
         C           -2.673205204836    -1.003893396123    -0.756556553902    12.000000000000
         C           -3.347399204836     0.967854603877     1.103949446098    12.000000000000
         C           -4.009557204836    -0.667924396123    -0.551335553902    12.000000000000
         C            3.855748795164    -1.911888396123     0.538241446098    12.000000000000
         C           -4.349742204836     0.317999603877     0.380005446098    12.000000000000
         H           -0.451266204836     1.825909603877    -0.840608553902     1.007825032230
         H            4.189879795164     0.591434603877     0.370576446098     1.007825032230
         H            1.808275795164    -2.133807396123     0.063280446098     1.007825032230
         H            1.324046795164     3.552937603877    -0.837325553902     1.007825032230
         H            3.648597795164     2.911819603877    -0.186158553902     1.007825032230
         H           -1.225999204836     1.149623603877     1.457633446098     1.007825032230
         H           -2.392395204836    -1.786021396123    -1.457208553902     1.007825032230
         H           -3.611278204836     1.721669603877     1.841968446098     1.007825032230
         H           -4.788983204836    -1.179248396123    -1.111286553902     1.007825032230
         H            4.461360795164    -1.705959396123    -0.355946553902     1.007825032230
         H            3.841863795164    -2.989624396123     0.708914446098     1.007825032230
         H            4.341349795164    -1.441850396123     1.399139446098     1.007825032230
         H           -5.393624204836     0.573833603877     0.545669446098     1.007825032230

  Basis Set: AUG-CC-PVTZ
    Blend: AUG-CC-PVTZ
  Basis Set: (AUG-CC-PVTZ AUX)
    Blend: AUG-CC-PVTZ-JKFIT
	 Reference Energy          =    -667.2345476526327275 [Eh]
	 Singles Energy            =      -0.0000000000000000 [Eh]
	 Same-Spin Energy          =      -0.7349023048675087 [Eh]
	 Opposite-Spin Energy      =      -2.2661370078229885 [Eh]
	 Correlation Energy        =      -3.0010393126904971 [Eh]
	 Total Energy              =    -670.2355869653232503 [Eh]

	 ================> DF-SCS-MP2 Energies <==================
	-----------------------------------------------------------
	 SCS Same-Spin Scale       =       0.3333333333333333 [-]
	 SCS Opposite-Spin Scale   =       1.2000000000000000 [-]
	 SCS Same-Spin Energy      =      -0.2449674349558362 [Eh]
	 SCS Opposite-Spin Energy  =      -2.7193644093875862 [Eh]
	 SCS Correlation Energy    =      -2.9643318443434223 [Eh]
	 SCS Total Energy          =    -670.1988794969761329 [Eh]
	-----------------------------------------------------------

  Dipole Moment: [D]
     X:     0.9880      Y:     0.3284      Z:     0.6080     Total:     1.2057

*** Psi4 exiting successfully. Buy a developer a beer!
