                               Psi4 1.4a2.dev612

  ==> Input File <==

--------------------------------------------------------------------------
#psi4
#
memory 32 gb

molecule  {
0 1
  O       -0.0649480    -2.0007500    -0.4572220
  N        2.4573690    -1.4749290     0.4038410
  C        0.8099710     0.2105070    -0.2160820
  C        2.1525410    -0.1743900     0.0797160
  C       -0.1742928    -0.8939670    -0.2149272
  C       -1.6915990    -0.3449750    -0.0589870
  C        0.5343510     1.5458860    -0.5628900
  C        3.1364470     0.8361460     0.1179860
  C        1.5277130     2.5174420    -0.5614560
  C        2.8303350     2.1515420    -0.2122750
  C       -2.0336590     0.6403590     0.8794580
  C       -2.7013800    -1.0161980    -0.7629970
  C       -3.3755740     0.9555500     1.0975090
  C       -4.0377320    -0.6802290    -0.5577760
  C        3.8275740    -1.9241930     0.5318010
  C       -4.3779170     0.3056950     0.3735650
  H       -0.4794410     1.8136050    -0.8470490
  H        4.1617050     0.5791300     0.3641360
  H        1.7801010    -2.1461120     0.0568400
  H        1.2958720     3.5406330    -0.8437660
  H        3.6204230     2.8995150    -0.1925990
  H       -1.2541740     1.1373190     1.4511930
  H       -2.4205700    -1.7983260    -1.4636490
  H       -3.6394530     1.7093650     1.8355280
  H       -4.8171580    -1.1915530    -1.1177270
  H        4.4331860    -1.7182640    -0.3623870
  H        3.8136890    -3.0019290     0.7024740
  H        4.3131750    -1.4541550     1.3926990
  H       -5.4217990     0.5615290     0.5392290
units angstrom
no_reorient  #important for SAPT in psi4, default
symmetry c1  #important for SAPT in psi4, default
}

set PROPERTIES_ORIGIN ["COM"]
properties('MP2/aug-cc-pvtz', properties = ['dipole'])
--------------------------------------------------------------------------

    Molecular point group: c1
  Charge       = 0
  Multiplicity = 1
  Basis Set: AUG-CC-PVTZ
    Blend: AUG-CC-PVTZ
  Basis Set: (AUG-CC-PVTZ AUX)
    Blend: AUG-CC-PVTZ-JKFIT

    Orbital Energies [Eh]
    ---------------------

    Doubly Occupied:

       1A    -20.556834     2A    -15.566425     3A    -11.339568
       4A    -11.295779     5A    -11.260574     6A    -11.255134
       7A    -11.253005     8A    -11.242272     9A    -11.241044
      10A    -11.240450    11A    -11.238507    12A    -11.238323
      13A    -11.238141    14A    -11.237073    15A    -11.229365
      16A    -11.227764    17A     -1.455118    18A     -1.249883
      19A     -1.153456    20A     -1.142058    21A     -1.048380
      22A     -1.016157    23A     -1.014514    24A     -1.010271
      25A     -0.930443    26A     -0.883097    27A     -0.834571
      28A     -0.827481    29A     -0.807794    30A     -0.769141
      31A     -0.716094    32A     -0.708016    33A     -0.691206
      34A     -0.666054    35A     -0.644248    36A     -0.630555
      37A     -0.623522    38A     -0.619919    39A     -0.610236
      40A     -0.606777    41A     -0.591749    42A     -0.585181
      43A     -0.574742    44A     -0.545773    45A     -0.534321
      46A     -0.519024    47A     -0.510295    48A     -0.507191
      49A     -0.496932    50A     -0.493568    51A     -0.432536
      52A     -0.398616    53A     -0.351321    54A     -0.338106
      55A     -0.336516    56A     -0.294805

  @DF-RHF Final Energy:  -667.24537068099323

   => Energetics <=

    Nuclear Repulsion Energy =           1002.9068541239464594
    One-Electron Energy =               -2896.6445904453285038
    Two-Electron Energy =                1226.4923656403886980
    Total Energy =                       -667.2453706809933465
  Basis Set: (AUG-CC-PVTZ AUX)
    Blend: AUG-CC-PVTZ-RI
    Molecular point group: c1

    Geometry (in Angstrom), charge = 0, multiplicity = 1:

       Center              X                  Y                   Z               Mass
    ------------   -----------------  -----------------  -----------------  -----------------
         O           -0.045624993236    -1.990483642370    -0.452770560859    15.994914619570
         N            2.476692006764    -1.464662642370     0.408292439141    14.003074004430
         C            0.829294006764     0.220773357630    -0.211630560859    12.000000000000
         C            2.171864006764    -0.164123642370     0.084167439141    12.000000000000
         C           -0.154969793236    -0.883700642370    -0.210475760859    12.000000000000
         C           -1.672275993236    -0.334708642370    -0.054535560859    12.000000000000
         C            0.553674006764     1.556152357630    -0.558438560859    12.000000000000
         C            3.155770006764     0.846412357630     0.122437439141    12.000000000000
         C            1.547036006764     2.527708357630    -0.557004560859    12.000000000000
         C            2.849658006764     2.161808357630    -0.207823560859    12.000000000000
         C           -2.014335993236     0.650625357630     0.883909439141    12.000000000000
         C           -2.682056993236    -1.005931642370    -0.758545560859    12.000000000000
         C           -3.356250993236     0.965816357630     1.101960439141    12.000000000000
         C           -4.018408993236    -0.669962642370    -0.553324560859    12.000000000000
         C            3.846897006764    -1.913926642370     0.536252439141    12.000000000000
         C           -4.358593993236     0.315961357630     0.378016439141    12.000000000000
         H           -0.460117993236     1.823871357630    -0.842597560859     1.007825032230
         H            4.181028006764     0.589396357630     0.368587439141     1.007825032230
         H            1.799424006764    -2.135845642370     0.061291439141     1.007825032230
         H            1.315195006764     3.550899357630    -0.839314560859     1.007825032230
         H            3.639746006764     2.909781357630    -0.188147560859     1.007825032230
         H           -1.234850993236     1.147585357630     1.455644439141     1.007825032230
         H           -2.401246993236    -1.788059642370    -1.459197560859     1.007825032230
         H           -3.620129993236     1.719631357630     1.839979439141     1.007825032230
         H           -4.797834993236    -1.181286642370    -1.113275560859     1.007825032230
         H            4.452509006764    -1.707997642370    -0.357935560859     1.007825032230
         H            3.833012006764    -2.991662642370     0.706925439141     1.007825032230
         H            4.332498006764    -1.443888642370     1.397150439141     1.007825032230
         H           -5.402475993236     0.571795357630     0.543680439141     1.007825032230

  Basis Set: AUG-CC-PVTZ
    Blend: AUG-CC-PVTZ
  Basis Set: (AUG-CC-PVTZ AUX)
    Blend: AUG-CC-PVTZ-JKFIT
	 Reference Energy          =    -667.2453706809932328 [Eh]
	 Singles Energy            =      -0.0000000000000000 [Eh]
	 Same-Spin Energy          =      -0.7321116016875445 [Eh]
	 Opposite-Spin Energy      =      -2.2603357412853518 [Eh]
	 Correlation Energy        =      -2.9924473429728962 [Eh]
	 Total Energy              =    -670.2378180239661560 [Eh]

	 ================> DF-SCS-MP2 Energies <==================
	-----------------------------------------------------------
	 SCS Same-Spin Scale       =       0.3333333333333333 [-]
	 SCS Opposite-Spin Scale   =       1.2000000000000000 [-]
	 SCS Same-Spin Energy      =      -0.2440372005625148 [Eh]
	 SCS Opposite-Spin Energy  =      -2.7124028895424219 [Eh]
	 SCS Correlation Energy    =      -2.9564400901049366 [Eh]
	 SCS Total Energy          =    -670.2018107710981667 [Eh]
	-----------------------------------------------------------

  Dipole Moment: [D]
     X:     1.1080      Y:     0.7492      Z:     0.2333     Total:     1.3577

*** Psi4 exiting successfully. Buy a developer a beer!
