                               Psi4 1.3.2 release

  ==> Input File <==

--------------------------------------------------------------------------
#psi4
#
memory 32 gb

molecule  {
0 1
  O       -0.0649480    -2.0007500    -0.4572220
  N        2.4573690    -1.4749290     0.4038410
  C        0.8099710     0.2105070    -0.2160820
  C        2.1525410    -0.1743900     0.0797160
  C       -0.2789970    -0.7898520    -0.2615780
  C       -1.6915990    -0.3449750    -0.0589870
  C        0.5343510     1.5458860    -0.5628900
  C        3.1364470     0.8361460     0.1179860
  C        1.5277130     2.5174420    -0.5614560
  C        2.8303350     2.1515420    -0.2122750
  C       -1.8896566     0.6569379     0.9030478
  C       -2.7013800    -1.0161980    -0.7629970
  C       -3.3755740     0.9555500     1.0975090
  C       -4.0377320    -0.6802290    -0.5577760
  C        3.8275740    -1.9241930     0.5318010
  C       -4.3779170     0.3056950     0.3735650
  H       -0.4794410     1.8136050    -0.8470490
  H        4.1617050     0.5791300     0.3641360
  H        1.7801010    -2.1461120     0.0568400
  H        1.2958720     3.5406330    -0.8437660
  H        3.6204230     2.8995150    -0.1925990
  H       -1.2541740     1.1373190     1.4511930
  H       -2.4205700    -1.7983260    -1.4636490
  H       -3.6394530     1.7093650     1.8355280
  H       -4.8171580    -1.1915530    -1.1177270
  H        4.4331860    -1.7182640    -0.3623870
  H        3.8136890    -3.0019290     0.7024740
  H        4.3131750    -1.4541550     1.3926990
  H       -5.4217990     0.5615290     0.5392290
units angstrom
no_reorient  #important for SAPT in psi4, default
symmetry c1  #important for SAPT in psi4, default
}

set PROPERTIES_ORIGIN ["COM"]
properties('MP2/aug-cc-pvtz', properties = ['dipole'])
--------------------------------------------------------------------------

    Molecular point group: c1
  Charge       = 0
  Multiplicity = 1
  Basis Set: AUG-CC-PVTZ
    Blend: AUG-CC-PVTZ
  Basis Set: (AUG-CC-PVTZ AUX)
    Blend: AUG-CC-PVTZ-JKFIT

    Orbital Energies [Eh]
    ---------------------

    Doubly Occupied:

       1A    -20.537665     2A    -15.561614     3A    -11.336585
       4A    -11.297090     5A    -11.259104     6A    -11.256962
       7A    -11.256927     8A    -11.254014     9A    -11.252577
      10A    -11.252273    11A    -11.249573    12A    -11.247444
      13A    -11.246236    14A    -11.238370    15A    -11.228856
      16A    -11.225848    17A     -1.370900    18A     -1.244162
      19A     -1.156221    20A     -1.140785    21A     -1.059459
      22A     -1.023264    23A     -1.013504    24A     -1.009781
      25A     -0.928801    26A     -0.886851    27A     -0.854791
      28A     -0.835078    29A     -0.807318    30A     -0.768039
      31A     -0.721942    32A     -0.703097    33A     -0.686700
      34A     -0.659413    35A     -0.654047    36A     -0.629707
      37A     -0.621526    38A     -0.615281    39A     -0.612105
      40A     -0.601678    41A     -0.588193    42A     -0.577321
      43A     -0.543479    44A     -0.542087    45A     -0.530285
      46A     -0.523050    47A     -0.508872    48A     -0.504838
      49A     -0.499908    50A     -0.483696    51A     -0.429133
      52A     -0.413965    53A     -0.352390    54A     -0.347957
      55A     -0.332092    56A     -0.292007

  @DF-RHF Final Energy:  -667.23265834372251

   => Energetics <=

    Nuclear Repulsion Energy =           1002.1724681316189844
    One-Electron Energy =               -2895.2605273017993568
    Two-Electron Energy =                1225.8554008264577533
    Total Energy =                       -667.2326583437225054
  Basis Set: (AUG-CC-PVTZ AUX)
    Blend: AUG-CC-PVTZ-RI
    Molecular point group: c1

    Geometry (in Angstrom), charge = 0, multiplicity = 1:

       Center              X                  Y                   Z               Mass
    ------------   -----------------  -----------------  -----------------  -----------------
         O           -0.047858906258    -1.997344508130    -0.451459654299    15.994914619570
         N            2.474458093742    -1.471523508130     0.409603345701    14.003074004430
         C            0.827060093742     0.213912491870    -0.210319654299    12.000000000000
         C            2.169630093742    -0.170984508130     0.085478345701    12.000000000000
         C           -0.261907906258    -0.786446508130    -0.255815654299    12.000000000000
         C           -1.674509906258    -0.341569508130    -0.053224654299    12.000000000000
         C            0.551440093742     1.549291491870    -0.557127654299    12.000000000000
         C            3.153536093742     0.839551491870     0.123748345701    12.000000000000
         C            1.544802093742     2.520847491870    -0.555693654299    12.000000000000
         C            2.847424093742     2.154947491870    -0.206512654299    12.000000000000
         C           -1.872567506258     0.660343391870     0.908810145701    12.000000000000
         C           -2.684290906258    -1.012792508130    -0.757234654299    12.000000000000
         C           -3.358484906258     0.958955491870     1.103271345701    12.000000000000
         C           -4.020642906258    -0.676823508130    -0.552013654299    12.000000000000
         C            3.844663093742    -1.920787508130     0.537563345701    12.000000000000
         C           -4.360827906258     0.309100491870     0.379327345701    12.000000000000
         H           -0.462351906258     1.817010491870    -0.841286654299     1.007825032230
         H            4.178794093742     0.582535491870     0.369898345701     1.007825032230
         H            1.797190093742    -2.142706508130     0.062602345701     1.007825032230
         H            1.312961093742     3.544038491870    -0.838003654299     1.007825032230
         H            3.637512093742     2.902920491870    -0.186836654299     1.007825032230
         H           -1.237084906258     1.140724491870     1.456955345701     1.007825032230
         H           -2.403480906258    -1.794920508130    -1.457886654299     1.007825032230
         H           -3.622363906258     1.712770491870     1.841290345701     1.007825032230
         H           -4.800068906258    -1.188147508130    -1.111964654299     1.007825032230
         H            4.450275093742    -1.714858508130    -0.356624654299     1.007825032230
         H            3.830778093742    -2.998523508130     0.708236345701     1.007825032230
         H            4.330264093742    -1.450749508130     1.398461345701     1.007825032230
         H           -5.404709906258     0.564934491870     0.544991345701     1.007825032230

  Basis Set: AUG-CC-PVTZ
    Blend: AUG-CC-PVTZ
  Basis Set: (AUG-CC-PVTZ AUX)
    Blend: AUG-CC-PVTZ-JKFIT
	 Reference Energy          =    -667.2326583437225054 [Eh]
	 Singles Energy            =      -0.0000000000000000 [Eh]
	 Same-Spin Energy          =      -0.7350151503825424 [Eh]
	 Opposite-Spin Energy      =      -2.2677821496854387 [Eh]
	 Correlation Energy        =      -3.0027973000679813 [Eh]
	 Total Energy              =    -670.2354556437904876 [Eh]

	 ================> DF-SCS-MP2 Energies <==================
	-----------------------------------------------------------
	 SCS Same-Spin Scale       =       0.3333333333333333 [-]
	 SCS Opposite-Spin Scale   =       1.2000000000000000 [-]
	 SCS Same-Spin Energy      =      -0.2450050501275141 [Eh]
	 SCS Opposite-Spin Energy  =      -2.7213385796225262 [Eh]
	 SCS Correlation Energy    =      -2.9663436297500403 [Eh]
	 SCS Total Energy          =    -670.1990019734724910 [Eh]
	-----------------------------------------------------------

  Dipole Moment: [D]
     X:     0.2642      Y:     1.2021      Z:     0.3444     Total:     1.2781

*** Psi4 exiting successfully. Buy a developer a beer!
