                               Psi4 1.3.2 release

  ==> Input File <==

--------------------------------------------------------------------------
#psi4
#
memory 32 gb

molecule  {
0 1
  O       -0.0649480    -2.0007500    -0.4572220
  N        2.4573690    -1.4749290     0.4038410
  C        0.9492038     0.2530999    -0.1939989
  C        2.1525410    -0.1743900     0.0797160
  C       -0.2789970    -0.7898520    -0.2615780
  C       -1.6915990    -0.3449750    -0.0589870
  C        0.5343510     1.5458860    -0.5628900
  C        3.1364470     0.8361460     0.1179860
  C        1.5277130     2.5174420    -0.5614560
  C        2.8303350     2.1515420    -0.2122750
  C       -2.0336590     0.6403590     0.8794580
  C       -2.7013800    -1.0161980    -0.7629970
  C       -3.3755740     0.9555500     1.0975090
  C       -4.0377320    -0.6802290    -0.5577760
  C        3.8275740    -1.9241930     0.5318010
  C       -4.3779170     0.3056950     0.3735650
  H       -0.4794410     1.8136050    -0.8470490
  H        4.1617050     0.5791300     0.3641360
  H        1.7801010    -2.1461120     0.0568400
  H        1.2958720     3.5406330    -0.8437660
  H        3.6204230     2.8995150    -0.1925990
  H       -1.2541740     1.1373190     1.4511930
  H       -2.4205700    -1.7983260    -1.4636490
  H       -3.6394530     1.7093650     1.8355280
  H       -4.8171580    -1.1915530    -1.1177270
  H        4.4331860    -1.7182640    -0.3623870
  H        3.8136890    -3.0019290     0.7024740
  H        4.3131750    -1.4541550     1.3926990
  H       -5.4217990     0.5615290     0.5392290
units angstrom
no_reorient  #important for SAPT in psi4, default
symmetry c1  #important for SAPT in psi4, default
}

set PROPERTIES_ORIGIN ["COM"]
properties('MP2/aug-cc-pvtz', properties = ['dipole'])
--------------------------------------------------------------------------

    Molecular point group: c1
  Charge       = 0
  Multiplicity = 1
  Basis Set: AUG-CC-PVTZ
    Blend: AUG-CC-PVTZ
  Basis Set: (AUG-CC-PVTZ AUX)
    Blend: AUG-CC-PVTZ-JKFIT

    Orbital Energies [Eh]
    ---------------------

    Doubly Occupied:

       1A    -20.545767     2A    -15.554297     3A    -11.347699
       4A    -11.276142     5A    -11.254269     6A    -11.254201
       7A    -11.252994     8A    -11.252520     9A    -11.249967
      10A    -11.247529    11A    -11.247035    12A    -11.245698
      13A    -11.244357    14A    -11.237027    15A    -11.230162
      16A    -11.226772    17A     -1.374216    18A     -1.244651
      19A     -1.165389    20A     -1.147530    21A     -1.049515
      22A     -1.027957    23A     -1.025390    24A     -1.012696
      25A     -0.923330    26A     -0.881806    27A     -0.843114
      28A     -0.839017    29A     -0.812741    30A     -0.770483
      31A     -0.717063    32A     -0.696428    33A     -0.685167
      34A     -0.653943    35A     -0.646900    36A     -0.632788
      37A     -0.622876    38A     -0.614122    39A     -0.608743
      40A     -0.599758    41A     -0.595062    42A     -0.576218
      43A     -0.544196    44A     -0.539477    45A     -0.527657
      46A     -0.521873    47A     -0.516758    48A     -0.512466
      49A     -0.502733    50A     -0.490420    51A     -0.426974
      52A     -0.406409    53A     -0.349538    54A     -0.346548
      55A     -0.342560    56A     -0.298081

  @DF-RHF Final Energy:  -667.23900233651955

   => Energetics <=

    Nuclear Repulsion Energy =           1002.6251705222870214
    One-Electron Energy =               -2896.2103028688275117
    Two-Electron Energy =                1226.3461300100209428
    Total Energy =                       -667.2390023365194338
  Basis Set: (AUG-CC-PVTZ AUX)
    Blend: AUG-CC-PVTZ-RI
    Molecular point group: c1

    Geometry (in Angstrom), charge = 0, multiplicity = 1:

       Center              X                  Y                   Z               Mass
    ------------   -----------------  -----------------  -----------------  -----------------
         O           -0.047587777515    -1.998823278490    -0.451374005675    15.994914619570
         N            2.474729222485    -1.473002278490     0.409688994325    14.003074004430
         C            0.966564022485     0.255026621510    -0.188150905675    12.000000000000
         C            2.169901222485    -0.172463278490     0.085563994325    12.000000000000
         C           -0.261636777515    -0.787925278490    -0.255730005675    12.000000000000
         C           -1.674238777515    -0.343048278490    -0.053139005675    12.000000000000
         C            0.551711222485     1.547812721510    -0.557042005675    12.000000000000
         C            3.153807222485     0.838072721510     0.123833994325    12.000000000000
         C            1.545073222485     2.519368721510    -0.555608005675    12.000000000000
         C            2.847695222485     2.153468721510    -0.206427005675    12.000000000000
         C           -2.016298777515     0.642285721510     0.885305994325    12.000000000000
         C           -2.684019777515    -1.014271278490    -0.757149005675    12.000000000000
         C           -3.358213777515     0.957476721510     1.103356994325    12.000000000000
         C           -4.020371777515    -0.678302278490    -0.551928005675    12.000000000000
         C            3.844934222485    -1.922266278490     0.537648994325    12.000000000000
         C           -4.360556777515     0.307621721510     0.379412994325    12.000000000000
         H           -0.462080777515     1.815531721510    -0.841201005675     1.007825032230
         H            4.179065222485     0.581056721510     0.369983994325     1.007825032230
         H            1.797461222485    -2.144185278490     0.062687994325     1.007825032230
         H            1.313232222485     3.542559721510    -0.837918005675     1.007825032230
         H            3.637783222485     2.901441721510    -0.186751005675     1.007825032230
         H           -1.236813777515     1.139245721510     1.457040994325     1.007825032230
         H           -2.403209777515    -1.796399278490    -1.457801005675     1.007825032230
         H           -3.622092777515     1.711291721510     1.841375994325     1.007825032230
         H           -4.799797777515    -1.189626278490    -1.111879005675     1.007825032230
         H            4.450546222485    -1.716337278490    -0.356539005675     1.007825032230
         H            3.831049222485    -3.000002278490     0.708321994325     1.007825032230
         H            4.330535222485    -1.452228278490     1.398546994325     1.007825032230
         H           -5.404438777515     0.563455721510     0.545076994325     1.007825032230

  Basis Set: AUG-CC-PVTZ
    Blend: AUG-CC-PVTZ
  Basis Set: (AUG-CC-PVTZ AUX)
    Blend: AUG-CC-PVTZ-JKFIT
	 Reference Energy          =    -667.2390023365195475 [Eh]
	 Singles Energy            =      -0.0000000000000000 [Eh]
	 Same-Spin Energy          =      -0.7344404024530544 [Eh]
	 Opposite-Spin Energy      =      -2.2659061488537242 [Eh]
	 Correlation Energy        =      -3.0003465513067784 [Eh]
	 Total Energy              =    -670.2393488878262815 [Eh]

	 ================> DF-SCS-MP2 Energies <==================
	-----------------------------------------------------------
	 SCS Same-Spin Scale       =       0.3333333333333333 [-]
	 SCS Opposite-Spin Scale   =       1.2000000000000000 [-]
	 SCS Same-Spin Energy      =      -0.2448134674843515 [Eh]
	 SCS Opposite-Spin Energy  =      -2.7190873786244691 [Eh]
	 SCS Correlation Energy    =      -2.9639008461088205 [Eh]
	 SCS Total Energy          =    -670.2029031826283472 [Eh]
	-----------------------------------------------------------

  Dipole Moment: [D]
     X:    -0.2188      Y:     1.1385      Z:     0.2799     Total:     1.1926

*** Psi4 exiting successfully. Buy a developer a beer!
