                               Psi4 1.3.2 release

  ==> Input File <==

--------------------------------------------------------------------------
#psi4
#
memory 32 gb

molecule  {
0 1
  O       -0.0649480    -2.0007500    -0.4572220
  N        2.4573690    -1.4749290     0.4038410
  C        0.8099710     0.2105070    -0.2160820
  C        2.1525410    -0.1743900     0.0797160
  C       -0.2789970    -0.7898520    -0.2615780
  C       -1.6915990    -0.3449750    -0.0589870
  C        0.5343510     1.5458860    -0.5628900
  C        3.1364470     0.8361460     0.1179860
  C        1.5277130     2.5174420    -0.5614560
  C        2.8303350     2.1515420    -0.2122750
  C       -2.0336590     0.6403590     0.8794580
  C       -2.7013800    -1.0161980    -0.7629970
  C       -3.3755740     0.9555500     1.0975090
  C       -4.0377320    -0.6802290    -0.5577760
  C        3.6382726    -1.8621247     0.5141226
  C       -4.3779170     0.3056950     0.3735650
  H       -0.4794410     1.8136050    -0.8470490
  H        4.1617050     0.5791300     0.3641360
  H        1.7801010    -2.1461120     0.0568400
  H        1.2958720     3.5406330    -0.8437660
  H        3.6204230     2.8995150    -0.1925990
  H       -1.2541740     1.1373190     1.4511930
  H       -2.4205700    -1.7983260    -1.4636490
  H       -3.6394530     1.7093650     1.8355280
  H       -4.8171580    -1.1915530    -1.1177270
  H        4.4331860    -1.7182640    -0.3623870
  H        3.8136890    -3.0019290     0.7024740
  H        4.3131750    -1.4541550     1.3926990
  H       -5.4217990     0.5615290     0.5392290
units angstrom
no_reorient  #important for SAPT in psi4, default
symmetry c1  #important for SAPT in psi4, default
}

set PROPERTIES_ORIGIN ["COM"]
properties('MP2/aug-cc-pvtz', properties = ['dipole'])
--------------------------------------------------------------------------

    Molecular point group: c1
  Charge       = 0
  Multiplicity = 1
  Basis Set: AUG-CC-PVTZ
    Blend: AUG-CC-PVTZ
  Basis Set: (AUG-CC-PVTZ AUX)
    Blend: AUG-CC-PVTZ-JKFIT

    Orbital Energies [Eh]
    ---------------------

    Doubly Occupied:

       1A    -20.545244     2A    -15.563361     3A    -11.345391
       4A    -11.301418     5A    -11.262254     6A    -11.256595
       7A    -11.256043     8A    -11.254514     9A    -11.252947
      10A    -11.252571    11A    -11.250021    12A    -11.247608
      13A    -11.246147    14A    -11.245855    15A    -11.234029
      16A    -11.232256    17A     -1.378218    18A     -1.301405
      19A     -1.167296    20A     -1.153946    21A     -1.060271
      22A     -1.030076    23A     -1.026709    24A     -1.020840
      25A     -0.920457    26A     -0.890415    27A     -0.849627
      28A     -0.837056    29A     -0.808549    30A     -0.778333
      31A     -0.725382    32A     -0.714000    33A     -0.703473
      34A     -0.671742    35A     -0.652083    36A     -0.639375
      37A     -0.628415    38A     -0.622247    39A     -0.617469
      40A     -0.605730    41A     -0.598847    42A     -0.593677
      43A     -0.546338    44A     -0.537138    45A     -0.525738
      46A     -0.512876    47A     -0.509110    48A     -0.504167
      49A     -0.492574    50A     -0.479020    51A     -0.423233
      52A     -0.405460    53A     -0.353725    54A     -0.348270
      55A     -0.345972    56A     -0.297148

  @DF-RHF Final Energy:  -667.21193814989874

   => Energetics <=

    Nuclear Repulsion Energy =           1007.0443769918615544
    One-Electron Energy =               -2904.4673072213572596
    Two-Electron Energy =                1230.2109920795969629
    Total Energy =                       -667.2119381498987423
  Basis Set: (AUG-CC-PVTZ AUX)
    Blend: AUG-CC-PVTZ-RI
    Molecular point group: c1

    Geometry (in Angstrom), charge = 0, multiplicity = 1:

       Center              X                  Y                   Z               Mass
    ------------   -----------------  -----------------  -----------------  -----------------
         O           -0.028912193714    -1.999930360994    -0.449113756285    15.994914619570
         N            2.493404806286    -1.474109360994     0.411949243715    14.003074004430
         C            0.846006806286     0.211326639006    -0.207973756285    12.000000000000
         C            2.188576806286    -0.173570360994     0.087824243715    12.000000000000
         C           -0.242961193714    -0.789032360994    -0.253469756285    12.000000000000
         C           -1.655563193714    -0.344155360994    -0.050878756285    12.000000000000
         C            0.570386806286     1.546705639006    -0.554781756285    12.000000000000
         C            3.172482806286     0.836965639006     0.126094243715    12.000000000000
         C            1.563748806286     2.518261639006    -0.553347756285    12.000000000000
         C            2.866370806286     2.152361639006    -0.204166756285    12.000000000000
         C           -1.997623193714     0.641178639006     0.887566243715    12.000000000000
         C           -2.665344193714    -1.015378360994    -0.754888756285    12.000000000000
         C           -3.339538193714     0.956369639006     1.105617243715    12.000000000000
         C           -4.001696193714    -0.679409360994    -0.549667756285    12.000000000000
         C            3.674308406286    -1.861305060994     0.522230843715    12.000000000000
         C           -4.341881193714     0.306514639006     0.381673243715    12.000000000000
         H           -0.443405193714     1.814424639006    -0.838940756285     1.007825032230
         H            4.197740806286     0.579949639006     0.372244243715     1.007825032230
         H            1.816136806286    -2.145292360994     0.064948243715     1.007825032230
         H            1.331907806286     3.541452639006    -0.835657756285     1.007825032230
         H            3.656458806286     2.900334639006    -0.184490756285     1.007825032230
         H           -1.218138193714     1.138138639006     1.459301243715     1.007825032230
         H           -2.384534193714    -1.797506360994    -1.455540756285     1.007825032230
         H           -3.603417193714     1.710184639006     1.843636243715     1.007825032230
         H           -4.781122193714    -1.190733360994    -1.109618756285     1.007825032230
         H            4.469221806286    -1.717444360994    -0.354278756285     1.007825032230
         H            3.849724806286    -3.001109360994     0.710582243715     1.007825032230
         H            4.349210806286    -1.453335360994     1.400807243715     1.007825032230
         H           -5.385763193714     0.562348639006     0.547337243715     1.007825032230

  Basis Set: AUG-CC-PVTZ
    Blend: AUG-CC-PVTZ
  Basis Set: (AUG-CC-PVTZ AUX)
    Blend: AUG-CC-PVTZ-JKFIT
	 Reference Energy          =    -667.2119381498987423 [Eh]
	 Singles Energy            =      -0.0000000000000000 [Eh]
	 Same-Spin Energy          =      -0.7373540530347064 [Eh]
	 Opposite-Spin Energy      =      -2.2675385133789163 [Eh]
	 Correlation Energy        =      -3.0048925664136226 [Eh]
	 Total Energy              =    -670.2168307163124155 [Eh]

	 ================> DF-SCS-MP2 Energies <==================
	-----------------------------------------------------------
	 SCS Same-Spin Scale       =       0.3333333333333333 [-]
	 SCS Opposite-Spin Scale   =       1.2000000000000000 [-]
	 SCS Same-Spin Energy      =      -0.2457846843449021 [Eh]
	 SCS Opposite-Spin Energy  =      -2.7210462160546993 [Eh]
	 SCS Correlation Energy    =      -2.9668309003996014 [Eh]
	 SCS Total Energy          =    -670.1787690502983423 [Eh]
	-----------------------------------------------------------

  Dipole Moment: [D]
     X:    -0.6338      Y:     1.6892      Z:     0.2607     Total:     1.8230

*** Psi4 exiting successfully. Buy a developer a beer!
