                               Psi4 1.4a3.dev225

  ==> Input File <==

--------------------------------------------------------------------------
#psi4
#
memory 32 gb

molecule  {
0 1
  O       -0.0649480    -2.0007500    -0.4572220
  N        2.4573690    -1.4749290     0.4038410
  C        0.8099710     0.2105070    -0.2160820
  C        2.1525410    -0.1743900     0.0797160
  C       -0.2642753    -0.7763282    -0.2609629
  C       -1.6915990    -0.3449750    -0.0589870
  C        0.5343510     1.5458860    -0.5628900
  C        3.1364470     0.8361460     0.1179860
  C        1.5277130     2.5174420    -0.5614560
  C        2.8303350     2.1515420    -0.2122750
  C       -2.0336590     0.6403590     0.8794580
  C       -2.7013800    -1.0161980    -0.7629970
  C       -3.3755740     0.9555500     1.0975090
  C       -4.0377320    -0.6802290    -0.5577760
  C        3.8275740    -1.9241930     0.5318010
  C       -4.3779170     0.3056950     0.3735650
  H       -0.4794410     1.8136050    -0.8470490
  H        4.1617050     0.5791300     0.3641360
  H        1.7801010    -2.1461120     0.0568400
  H        1.2958720     3.5406330    -0.8437660
  H        3.6204230     2.8995150    -0.1925990
  H       -1.2541740     1.1373190     1.4511930
  H       -2.4205700    -1.7983260    -1.4636490
  H       -3.6394530     1.7093650     1.8355280
  H       -4.8171580    -1.1915530    -1.1177270
  H        4.4331860    -1.7182640    -0.3623870
  H        3.8136890    -3.0019290     0.7024740
  H        4.3131750    -1.4541550     1.3926990
  H       -5.4217990     0.5615290     0.5392290
units angstrom
no_reorient  #important for SAPT in psi4, default
symmetry c1  #important for SAPT in psi4, default
}

set PROPERTIES_ORIGIN ["COM"]
properties('MP2/aug-cc-pvtz', properties = ['dipole'])
--------------------------------------------------------------------------

    Molecular point group: c1
  Charge       = 0
  Multiplicity = 1
  Basis Set: AUG-CC-PVTZ
    Blend: AUG-CC-PVTZ
  Basis Set: (AUG-CC-PVTZ AUX)
    Blend: AUG-CC-PVTZ-JKFIT

    Orbital Energies [Eh]
    ---------------------

    Doubly Occupied:

       1A    -20.537639     2A    -15.563041     3A    -11.339899
       4A    -11.299028     5A    -11.257769     6A    -11.254532
       7A    -11.254391     8A    -11.250415     9A    -11.249240
      10A    -11.249152    11A    -11.246102    12A    -11.244145
      13A    -11.242827    14A    -11.238427    15A    -11.230028
      16A    -11.227029    17A     -1.364813    18A     -1.245422
      19A     -1.162487    20A     -1.143715    21A     -1.057221
      22A     -1.024666    23A     -1.020945    24A     -1.011296
      25A     -0.930763    26A     -0.889751    27A     -0.844803
      28A     -0.834268    29A     -0.808716    30A     -0.771778
      31A     -0.717939    32A     -0.702335    33A     -0.683333
      34A     -0.656330    35A     -0.642938    36A     -0.633088
      37A     -0.619805    38A     -0.616049    39A     -0.606479
      40A     -0.601614    41A     -0.595277    42A     -0.577993
      43A     -0.544072    44A     -0.542858    45A     -0.530912
      46A     -0.519712    47A     -0.512454    48A     -0.504576
      49A     -0.500326    50A     -0.484437    51A     -0.430325
      52A     -0.419280    53A     -0.351429    54A     -0.344292
      55A     -0.342436    56A     -0.293401

  @DF-RHF Final Energy:  -667.26127518772819

   => Energetics <=

    Nuclear Repulsion Energy =           1002.5630621910855780
    One-Electron Energy =               -2896.1126772019051714
    Two-Electron Energy =                1226.2883398230915191
    Total Energy =                       -667.2612751877281880
  Basis Set: (AUG-CC-PVTZ AUX)
    Blend: AUG-CC-PVTZ-RI
    Molecular point group: c1

    Geometry (in Angstrom), charge = 0, multiplicity = 1:

       Center              X                  Y                   Z               Mass
    ------------   -----------------  -----------------  -----------------  -----------------
         O           -0.040509922357    -1.997170840439    -0.450153653477    15.994914619570
         N            2.481807077643    -1.471349840439     0.410909346523    14.003074004430
         C            0.834409077643     0.214086159561    -0.209013653477    12.000000000000
         C            2.176979077643    -0.170810840439     0.086784346523    12.000000000000
         C           -0.239837222357    -0.772749040439    -0.253894553477    12.000000000000
         C           -1.667160922357    -0.341395840439    -0.051918653477    12.000000000000
         C            0.558789077643     1.549465159561    -0.555821653477    12.000000000000
         C            3.160885077643     0.839725159561     0.125054346523    12.000000000000
         C            1.552151077643     2.521021159561    -0.554387653477    12.000000000000
         C            2.854773077643     2.155121159561    -0.205206653477    12.000000000000
         C           -2.009220922357     0.643938159561     0.886526346523    12.000000000000
         C           -2.676941922357    -1.012618840439    -0.755928653477    12.000000000000
         C           -3.351135922357     0.959129159561     1.104577346523    12.000000000000
         C           -4.013293922357    -0.676649840439    -0.550707653477    12.000000000000
         C            3.852012077643    -1.920613840439     0.538869346523    12.000000000000
         C           -4.353478922357     0.309274159561     0.380633346523    12.000000000000
         H           -0.455002922357     1.817184159561    -0.839980653477     1.007825032230
         H            4.186143077643     0.582709159561     0.371204346523     1.007825032230
         H            1.804539077643    -2.142532840439     0.063908346523     1.007825032230
         H            1.320310077643     3.544212159561    -0.836697653477     1.007825032230
         H            3.644861077643     2.903094159561    -0.185530653477     1.007825032230
         H           -1.229735922357     1.140898159561     1.458261346523     1.007825032230
         H           -2.396131922357    -1.794746840439    -1.456580653477     1.007825032230
         H           -3.615014922357     1.712944159561     1.842596346523     1.007825032230
         H           -4.792719922357    -1.187973840439    -1.110658653477     1.007825032230
         H            4.457624077643    -1.714684840439    -0.355318653477     1.007825032230
         H            3.838127077643    -2.998349840439     0.709542346523     1.007825032230
         H            4.337613077643    -1.450575840439     1.399767346523     1.007825032230
         H           -5.397360922357     0.565108159561     0.546297346523     1.007825032230

  Basis Set: AUG-CC-PVTZ
    Blend: AUG-CC-PVTZ
  Basis Set: (AUG-CC-PVTZ AUX)
    Blend: AUG-CC-PVTZ-JKFIT
	 Reference Energy          =    -667.2612751877281880 [Eh]
	 Singles Energy            =      -0.0000000000000000 [Eh]
	 Same-Spin Energy          =      -0.7349539705034560 [Eh]
	 Opposite-Spin Energy      =      -2.2659547662164421 [Eh]
	 Correlation Energy        =      -3.0009087367198983 [Eh]
	 Total Energy              =    -670.2621839244480952 [Eh]

	 ================> DF-SCS-MP2 Energies <==================
	-----------------------------------------------------------
	 SCS Same-Spin Scale       =       0.3333333333333333 [-]
	 SCS Opposite-Spin Scale   =       1.2000000000000000 [-]
	 SCS Same-Spin Energy      =      -0.2449846568344853 [Eh]
	 SCS Opposite-Spin Energy  =      -2.7191457194597306 [Eh]
	 SCS Correlation Energy    =      -2.9641303762942157 [Eh]
	 SCS Total Energy          =    -670.2254055640223669 [Eh]
	-----------------------------------------------------------

  Dipole Moment: [D]
     X:     0.5064      Y:     1.2831      Z:     0.3430     Total:     1.4215

*** Psi4 exiting successfully. Buy a developer a beer!
