                               Psi4 1.3.2 release

  ==> Input File <==

--------------------------------------------------------------------------
#psi4
#
memory 32 gb

molecule  {
0 1
  O       -0.0649480    -2.0007500    -0.4572220
  N        2.4573690    -1.4749290     0.4038410
  C        0.8099710     0.2105070    -0.2160820
  C        2.1922200    -0.1602504     0.1026847
  C       -0.2789970    -0.7898520    -0.2615780
  C       -1.6915990    -0.3449750    -0.0589870
  C        0.5343510     1.5458860    -0.5628900
  C        3.1364470     0.8361460     0.1179860
  C        1.5277130     2.5174420    -0.5614560
  C        2.8303350     2.1515420    -0.2122750
  C       -2.0336590     0.6403590     0.8794580
  C       -2.7013800    -1.0161980    -0.7629970
  C       -3.3755740     0.9555500     1.0975090
  C       -4.0377320    -0.6802290    -0.5577760
  C        3.8275740    -1.9241930     0.5318010
  C       -4.3779170     0.3056950     0.3735650
  H       -0.4794410     1.8136050    -0.8470490
  H        4.1617050     0.5791300     0.3641360
  H        1.7801010    -2.1461120     0.0568400
  H        1.2958720     3.5406330    -0.8437660
  H        3.6204230     2.8995150    -0.1925990
  H       -1.2541740     1.1373190     1.4511930
  H       -2.4205700    -1.7983260    -1.4636490
  H       -3.6394530     1.7093650     1.8355280
  H       -4.8171580    -1.1915530    -1.1177270
  H        4.4331860    -1.7182640    -0.3623870
  H        3.8136890    -3.0019290     0.7024740
  H        4.3131750    -1.4541550     1.3926990
  H       -5.4217990     0.5615290     0.5392290
units angstrom
no_reorient  #important for SAPT in psi4, default
symmetry c1  #important for SAPT in psi4, default
}

set PROPERTIES_ORIGIN ["COM"]
properties('MP2/aug-cc-pvtz', properties = ['dipole'])
--------------------------------------------------------------------------

    Molecular point group: c1
  Charge       = 0
  Multiplicity = 1
  Basis Set: AUG-CC-PVTZ
    Blend: AUG-CC-PVTZ
  Basis Set: (AUG-CC-PVTZ AUX)
    Blend: AUG-CC-PVTZ-JKFIT

    Orbital Energies [Eh]
    ---------------------

    Doubly Occupied:

       1A    -20.539486     2A    -15.561270     3A    -11.340421
       4A    -11.296211     5A    -11.255490     6A    -11.254472
       7A    -11.253414     8A    -11.251354     9A    -11.250228
      10A    -11.249444    11A    -11.247029    12A    -11.244929
      13A    -11.243541    14A    -11.242001    15A    -11.226302
      16A    -11.224525    17A     -1.372098    18A     -1.244168
      19A     -1.163462    20A     -1.142192    21A     -1.056236
      22A     -1.025421    23A     -1.019835    24A     -1.012015
      25A     -0.928510    26A     -0.890518    27A     -0.845867
      28A     -0.833908    29A     -0.805159    30A     -0.771085
      31A     -0.718232    32A     -0.704291    33A     -0.682537
      34A     -0.656473    35A     -0.644834    36A     -0.633945
      37A     -0.621399    38A     -0.613641    39A     -0.608168
      40A     -0.600462    41A     -0.596044    42A     -0.576876
      43A     -0.544604    44A     -0.541985    45A     -0.532949
      46A     -0.520654    47A     -0.512956    48A     -0.501510
      49A     -0.499495    50A     -0.486420    51A     -0.429112
      52A     -0.419580    53A     -0.350955    54A     -0.344977
      55A     -0.343340    56A     -0.292459

  @DF-RHF Final Energy:  -667.26051288653764

   => Energetics <=

    Nuclear Repulsion Energy =           1002.1891542801922697
    One-Electron Energy =               -2895.3623517580704174
    Two-Electron Energy =                1225.9126845913406214
    Total Energy =                       -667.2605128865375264
  Basis Set: (AUG-CC-PVTZ AUX)
    Blend: AUG-CC-PVTZ-RI
    Molecular point group: c1

    Geometry (in Angstrom), charge = 0, multiplicity = 1:

       Center              X                  Y                   Z               Mass
    ------------   -----------------  -----------------  -----------------  -----------------
         O           -0.041928624421    -1.997205845697    -0.451424347761    15.994914619570
         N            2.480388375579    -1.471384845697     0.409638652239    14.003074004430
         C            0.832990375579     0.214051154303    -0.210284347761    12.000000000000
         C            2.215239375579    -0.156706245697     0.108482352239    12.000000000000
         C           -0.255977624421    -0.786307845697    -0.255780347761    12.000000000000
         C           -1.668579624421    -0.341430845697    -0.053189347761    12.000000000000
         C            0.557370375579     1.549430154303    -0.557092347761    12.000000000000
         C            3.159466375579     0.839690154303     0.123783652239    12.000000000000
         C            1.550732375579     2.520986154303    -0.555658347761    12.000000000000
         C            2.853354375579     2.155086154303    -0.206477347761    12.000000000000
         C           -2.010639624421     0.643903154303     0.885255652239    12.000000000000
         C           -2.678360624421    -1.012653845697    -0.757199347761    12.000000000000
         C           -3.352554624421     0.959094154303     1.103306652239    12.000000000000
         C           -4.014712624421    -0.676684845697    -0.551978347761    12.000000000000
         C            3.850593375579    -1.920648845697     0.537598652239    12.000000000000
         C           -4.354897624421     0.309239154303     0.379362652239    12.000000000000
         H           -0.456421624421     1.817149154303    -0.841251347761     1.007825032230
         H            4.184724375579     0.582674154303     0.369933652239     1.007825032230
         H            1.803120375579    -2.142567845697     0.062637652239     1.007825032230
         H            1.318891375579     3.544177154303    -0.837968347761     1.007825032230
         H            3.643442375579     2.903059154303    -0.186801347761     1.007825032230
         H           -1.231154624421     1.140863154303     1.456990652239     1.007825032230
         H           -2.397550624421    -1.794781845697    -1.457851347761     1.007825032230
         H           -3.616433624421     1.712909154303     1.841325652239     1.007825032230
         H           -4.794138624421    -1.188008845697    -1.111929347761     1.007825032230
         H            4.456205375579    -1.714719845697    -0.356589347761     1.007825032230
         H            3.836708375579    -2.998384845697     0.708271652239     1.007825032230
         H            4.336194375579    -1.450610845697     1.398496652239     1.007825032230
         H           -5.398779624421     0.565073154303     0.545026652239     1.007825032230

  Basis Set: AUG-CC-PVTZ
    Blend: AUG-CC-PVTZ
  Basis Set: (AUG-CC-PVTZ AUX)
    Blend: AUG-CC-PVTZ-JKFIT
	 Reference Energy          =    -667.2605128865376400 [Eh]
	 Singles Energy            =      -0.0000000000000000 [Eh]
	 Same-Spin Energy          =      -0.7346451428882608 [Eh]
	 Opposite-Spin Energy      =      -2.2653522328851294 [Eh]
	 Correlation Energy        =      -2.9999973757733902 [Eh]
	 Total Energy              =    -670.2605102623110724 [Eh]

	 ================> DF-SCS-MP2 Energies <==================
	-----------------------------------------------------------
	 SCS Same-Spin Scale       =       0.3333333333333333 [-]
	 SCS Opposite-Spin Scale   =       1.2000000000000000 [-]
	 SCS Same-Spin Energy      =      -0.2448817142960869 [Eh]
	 SCS Opposite-Spin Energy  =      -2.7184226794621553 [Eh]
	 SCS Correlation Energy    =      -2.9633043937582424 [Eh]
	 SCS Total Energy          =    -670.2238172802958616 [Eh]
	-----------------------------------------------------------

  Dipole Moment: [D]
     X:     0.2815      Y:     1.2448      Z:     0.3385     Total:     1.3203

*** Psi4 exiting successfully. Buy a developer a beer!
