                               Psi4 1.3.2 release

  ==> Input File <==

--------------------------------------------------------------------------
#psi4
#
memory 32 gb

molecule  {
0 1
  O       -0.1937941    -2.0180165    -0.4479107
  N        2.4573690    -1.4749290     0.4038410
  C        0.8099710     0.2105070    -0.2160820
  C        2.1525410    -0.1743900     0.0797160
  C       -0.2789970    -0.7898520    -0.2615780
  C       -1.6915990    -0.3449750    -0.0589870
  C        0.5343510     1.5458860    -0.5628900
  C        3.1364470     0.8361460     0.1179860
  C        1.5277130     2.5174420    -0.5614560
  C        2.8303350     2.1515420    -0.2122750
  C       -2.0336590     0.6403590     0.8794580
  C       -2.7013800    -1.0161980    -0.7629970
  C       -3.3755740     0.9555500     1.0975090
  C       -4.0377320    -0.6802290    -0.5577760
  C        3.8275740    -1.9241930     0.5318010
  C       -4.3779170     0.3056950     0.3735650
  H       -0.4794410     1.8136050    -0.8470490
  H        4.1617050     0.5791300     0.3641360
  H        1.7801010    -2.1461120     0.0568400
  H        1.2958720     3.5406330    -0.8437660
  H        3.6204230     2.8995150    -0.1925990
  H       -1.2541740     1.1373190     1.4511930
  H       -2.4205700    -1.7983260    -1.4636490
  H       -3.6394530     1.7093650     1.8355280
  H       -4.8171580    -1.1915530    -1.1177270
  H        4.4331860    -1.7182640    -0.3623870
  H        3.8136890    -3.0019290     0.7024740
  H        4.3131750    -1.4541550     1.3926990
  H       -5.4217990     0.5615290     0.5392290
units angstrom
no_reorient  #important for SAPT in psi4, default
symmetry c1  #important for SAPT in psi4, default
}

set PROPERTIES_ORIGIN ["COM"]
properties('MP2/aug-cc-pvtz', properties = ['dipole'])
--------------------------------------------------------------------------

    Molecular point group: c1
  Charge       = 0
  Multiplicity = 1
  Basis Set: AUG-CC-PVTZ
    Blend: AUG-CC-PVTZ
  Basis Set: (AUG-CC-PVTZ AUX)
    Blend: AUG-CC-PVTZ-JKFIT

    Orbital Energies [Eh]
    ---------------------

    Doubly Occupied:

       1A    -20.539267     2A    -15.567682     3A    -11.339331
       4A    -11.300931     5A    -11.260505     6A    -11.256194
       7A    -11.255836     8A    -11.246536     9A    -11.245956
      10A    -11.244198    11A    -11.243370    12A    -11.242091
      13A    -11.241333    14A    -11.239830    15A    -11.231730
      16A    -11.228717    17A     -1.371880    18A     -1.249340
      19A     -1.159466    20A     -1.144760    21A     -1.056002
      22A     -1.022355    23A     -1.018873    24A     -1.013057
      25A     -0.932003    26A     -0.889944    27A     -0.843806
      28A     -0.831888    29A     -0.809857    30A     -0.769867
      31A     -0.717511    32A     -0.704969    33A     -0.682282
      34A     -0.658559    35A     -0.639988    36A     -0.632939
      37A     -0.620409    38A     -0.618509    39A     -0.605873
      40A     -0.602652    41A     -0.592883    42A     -0.582159
      43A     -0.546074    44A     -0.544318    45A     -0.530890
      46A     -0.518937    47A     -0.511322    48A     -0.506361
      49A     -0.497253    50A     -0.485869    51A     -0.433032
      52A     -0.419186    53A     -0.352932    54A     -0.341633
      55A     -0.338201    56A     -0.295839

  @DF-RHF Final Energy:  -667.25928253186964

   => Energetics <=

    Nuclear Repulsion Energy =           1002.0179791057591956
    One-Electron Energy =               -2895.0001507152587692
    Two-Electron Energy =                1225.7228890776298158
    Total Energy =                       -667.2592825318697578
  Basis Set: (AUG-CC-PVTZ AUX)
    Blend: AUG-CC-PVTZ-RI
    Molecular point group: c1

    Geometry (in Angstrom), charge = 0, multiplicity = 1:

       Center              X                  Y                   Z               Mass
    ------------   -----------------  -----------------  -----------------  -----------------
         O           -0.158756563335    -2.012360304024    -0.441512900328    15.994914619570
         N            2.492406536665    -1.469272804024     0.410238799672    14.003074004430
         C            0.845008536665     0.216163195976    -0.209684200328    12.000000000000
         C            2.187578536665    -0.168733804024     0.086113799672    12.000000000000
         C           -0.243959463335    -0.784195804024    -0.255180200328    12.000000000000
         C           -1.656561463335    -0.339318804024    -0.052589200328    12.000000000000
         C            0.569388536665     1.551542195976    -0.556492200328    12.000000000000
         C            3.171484536665     0.841802195976     0.124383799672    12.000000000000
         C            1.562750536665     2.523098195976    -0.555058200328    12.000000000000
         C            2.865372536665     2.157198195976    -0.205877200328    12.000000000000
         C           -1.998621463335     0.646015195976     0.885855799672    12.000000000000
         C           -2.666342463335    -1.010541804024    -0.756599200328    12.000000000000
         C           -3.340536463335     0.961206195976     1.103906799672    12.000000000000
         C           -4.002694463335    -0.674572804024    -0.551378200328    12.000000000000
         C            3.862611536665    -1.918536804024     0.538198799672    12.000000000000
         C           -4.342879463335     0.311351195976     0.379962799672    12.000000000000
         H           -0.444403463335     1.819261195976    -0.840651200328     1.007825032230
         H            4.196742536665     0.584786195976     0.370533799672     1.007825032230
         H            1.815138536665    -2.140455804024     0.063237799672     1.007825032230
         H            1.330909536665     3.546289195976    -0.837368200328     1.007825032230
         H            3.655460536665     2.905171195976    -0.186201200328     1.007825032230
         H           -1.219136463335     1.142975195976     1.457590799672     1.007825032230
         H           -2.385532463335    -1.792669804024    -1.457251200328     1.007825032230
         H           -3.604415463335     1.715021195976     1.841925799672     1.007825032230
         H           -4.782120463335    -1.185896804024    -1.111329200328     1.007825032230
         H            4.468223536665    -1.712607804024    -0.355989200328     1.007825032230
         H            3.848726536665    -2.996272804024     0.708871799672     1.007825032230
         H            4.348212536665    -1.448498804024     1.399096799672     1.007825032230
         H           -5.386761463335     0.567185195976     0.545626799672     1.007825032230

  Basis Set: AUG-CC-PVTZ
    Blend: AUG-CC-PVTZ
  Basis Set: (AUG-CC-PVTZ AUX)
    Blend: AUG-CC-PVTZ-JKFIT
	 Reference Energy          =    -667.2592825318696441 [Eh]
	 Singles Energy            =      -0.0000000000000000 [Eh]
	 Same-Spin Energy          =      -0.7344557651871624 [Eh]
	 Opposite-Spin Energy      =      -2.2653632730476136 [Eh]
	 Correlation Energy        =      -2.9998190382347758 [Eh]
	 Total Energy              =    -670.2591015701044626 [Eh]

	 ================> DF-SCS-MP2 Energies <==================
	-----------------------------------------------------------
	 SCS Same-Spin Scale       =       0.3333333333333333 [-]
	 SCS Opposite-Spin Scale   =       1.2000000000000000 [-]
	 SCS Same-Spin Energy      =      -0.2448185883957208 [Eh]
	 SCS Opposite-Spin Energy  =      -2.7184359276571364 [Eh]
	 SCS Correlation Energy    =      -2.9632545160528574 [Eh]
	 SCS Total Energy          =    -670.2225370479225148 [Eh]
	-----------------------------------------------------------

  Dipole Moment: [D]
     X:     0.9028      Y:     1.2607      Z:     0.3048     Total:     1.5802

*** Psi4 exiting successfully. Buy a developer a beer!
