                               Psi4 1.4a3.dev225

  ==> Input File <==

--------------------------------------------------------------------------
#psi4
#
memory 32 gb

molecule  {
0 1
  O       -0.0649480    -2.0007500    -0.4572220
  N        2.4573690    -1.4749290     0.4038410
  C        0.8099710     0.2105070    -0.2160820
  C        2.1525410    -0.1743900     0.0797160
  C       -0.2789970    -0.7898520    -0.2615780
  C       -1.6443482    -0.3598559    -0.0657636
  C        0.5343510     1.5458860    -0.5628900
  C        3.1364470     0.8361460     0.1179860
  C        1.5277130     2.5174420    -0.5614560
  C        2.8303350     2.1515420    -0.2122750
  C       -2.0336590     0.6403590     0.8794580
  C       -2.7013800    -1.0161980    -0.7629970
  C       -3.3755740     0.9555500     1.0975090
  C       -4.0377320    -0.6802290    -0.5577760
  C        3.8275740    -1.9241930     0.5318010
  C       -4.3779170     0.3056950     0.3735650
  H       -0.4794410     1.8136050    -0.8470490
  H        4.1617050     0.5791300     0.3641360
  H        1.7801010    -2.1461120     0.0568400
  H        1.2958720     3.5406330    -0.8437660
  H        3.6204230     2.8995150    -0.1925990
  H       -1.2541740     1.1373190     1.4511930
  H       -2.4205700    -1.7983260    -1.4636490
  H       -3.6394530     1.7093650     1.8355280
  H       -4.8171580    -1.1915530    -1.1177270
  H        4.4331860    -1.7182640    -0.3623870
  H        3.8136890    -3.0019290     0.7024740
  H        4.3131750    -1.4541550     1.3926990
  H       -5.4217990     0.5615290     0.5392290
units angstrom
no_reorient  #important for SAPT in psi4, default
symmetry c1  #important for SAPT in psi4, default
}

set PROPERTIES_ORIGIN ["COM"]
properties('MP2/aug-cc-pvtz', properties = ['dipole'])
--------------------------------------------------------------------------

    Molecular point group: c1
  Charge       = 0
  Multiplicity = 1
  Basis Set: AUG-CC-PVTZ
    Blend: AUG-CC-PVTZ
  Basis Set: (AUG-CC-PVTZ AUX)
    Blend: AUG-CC-PVTZ-JKFIT

    Orbital Energies [Eh]
    ---------------------

    Doubly Occupied:

       1A    -20.537577     2A    -15.561410     3A    -11.336509
       4A    -11.296714     5A    -11.256734     6A    -11.256387
       7A    -11.253242     8A    -11.252242     9A    -11.252149
      10A    -11.252115    11A    -11.250600    12A    -11.245823
      13A    -11.244400    14A    -11.238038    15A    -11.228494
      16A    -11.225519    17A     -1.372573    18A     -1.243936
      19A     -1.160573    20A     -1.141527    21A     -1.059354
      22A     -1.024887    23A     -1.019606    24A     -1.009585
      25A     -0.929695    26A     -0.893434    27A     -0.847726
      28A     -0.832708    29A     -0.806986    30A     -0.771122
      31A     -0.718609    32A     -0.701424    33A     -0.685141
      34A     -0.656356    35A     -0.647028    36A     -0.632748
      37A     -0.618928    38A     -0.614931    39A     -0.609291
      40A     -0.600598    41A     -0.593838    42A     -0.577211
      43A     -0.545521    44A     -0.541942    45A     -0.530826
      46A     -0.523511    47A     -0.511754    48A     -0.503522
      49A     -0.496041    50A     -0.484412    51A     -0.429056
      52A     -0.421770    53A     -0.350206    54A     -0.344000
      55A     -0.342450    56A     -0.291563

  @DF-RHF Final Energy:  -667.25850503643437

   => Energetics <=

    Nuclear Repulsion Energy =           1002.6908055713247450
    One-Electron Energy =               -2896.3499342452691963
    Two-Electron Energy =                1226.4006236375100798
    Total Energy =                       -667.2585050364343715
  Basis Set: (AUG-CC-PVTZ AUX)
    Blend: AUG-CC-PVTZ-RI
    Molecular point group: c1

    Geometry (in Angstrom), charge = 0, multiplicity = 1:

       Center              X                  Y                   Z               Mass
    ------------   -----------------  -----------------  -----------------  -----------------
         O           -0.042359044710    -1.995556170322    -0.449733471004    15.994914619570
         N            2.479957955290    -1.469735170322     0.411329528996    14.003074004430
         C            0.832559955290     0.215700829678    -0.208593471004    12.000000000000
         C            2.175129955290    -0.169196170322     0.087204528996    12.000000000000
         C           -0.256408044710    -0.784658170322    -0.254089471004    12.000000000000
         C           -1.621759244710    -0.354662070322    -0.058275071004    12.000000000000
         C            0.556939955290     1.551079829678    -0.555401471004    12.000000000000
         C            3.159035955290     0.841339829678     0.125474528996    12.000000000000
         C            1.550301955290     2.522635829678    -0.553967471004    12.000000000000
         C            2.852923955290     2.156735829678    -0.204786471004    12.000000000000
         C           -2.011070044710     0.645552829678     0.886946528996    12.000000000000
         C           -2.678791044710    -1.011004170322    -0.755508471004    12.000000000000
         C           -3.352985044710     0.960743829678     1.104997528996    12.000000000000
         C           -4.015143044710    -0.675035170322    -0.550287471004    12.000000000000
         C            3.850162955290    -1.918999170322     0.539289528996    12.000000000000
         C           -4.355328044710     0.310888829678     0.381053528996    12.000000000000
         H           -0.456852044710     1.818798829678    -0.839560471004     1.007825032230
         H            4.184293955290     0.584323829678     0.371624528996     1.007825032230
         H            1.802689955290    -2.140918170322     0.064328528996     1.007825032230
         H            1.318460955290     3.545826829678    -0.836277471004     1.007825032230
         H            3.643011955290     2.904708829678    -0.185110471004     1.007825032230
         H           -1.231585044710     1.142512829678     1.458681528996     1.007825032230
         H           -2.397981044710    -1.793132170322    -1.456160471004     1.007825032230
         H           -3.616864044710     1.714558829678     1.843016528996     1.007825032230
         H           -4.794569044710    -1.186359170322    -1.110238471004     1.007825032230
         H            4.455774955290    -1.713070170322    -0.354898471004     1.007825032230
         H            3.836277955290    -2.996735170322     0.709962528996     1.007825032230
         H            4.335763955290    -1.448961170322     1.400187528996     1.007825032230
         H           -5.399210044710     0.566722829678     0.546717528996     1.007825032230

  Basis Set: AUG-CC-PVTZ
    Blend: AUG-CC-PVTZ
  Basis Set: (AUG-CC-PVTZ AUX)
    Blend: AUG-CC-PVTZ-JKFIT
	 Reference Energy          =    -667.2585050364343715 [Eh]
	 Singles Energy            =      -0.0000000000000000 [Eh]
	 Same-Spin Energy          =      -0.7351778672573968 [Eh]
	 Opposite-Spin Energy      =      -2.2663039744937783 [Eh]
	 Correlation Energy        =      -3.0014818417511751 [Eh]
	 Total Energy              =    -670.2599868781856003 [Eh]

	 ================> DF-SCS-MP2 Energies <==================
	-----------------------------------------------------------
	 SCS Same-Spin Scale       =       0.3333333333333333 [-]
	 SCS Opposite-Spin Scale   =       1.2000000000000000 [-]
	 SCS Same-Spin Energy      =      -0.2450592890857989 [Eh]
	 SCS Opposite-Spin Energy  =      -2.7195647693925338 [Eh]
	 SCS Correlation Energy    =      -2.9646240584783325 [Eh]
	 SCS Total Energy          =    -670.2231290949126787 [Eh]
	-----------------------------------------------------------

  Dipole Moment: [D]
     X:     0.1892      Y:     1.2362      Z:     0.3642     Total:     1.3026

*** Psi4 exiting successfully. Buy a developer a beer!
