                               Psi4 1.3.2 release

  ==> Input File <==

--------------------------------------------------------------------------
#psi4
#
memory 32 gb

molecule  {
0 1
  O       -0.0649480    -2.0007500    -0.4572220
  N        2.4573690    -1.4749290     0.4038410
  C        0.8099710     0.2105070    -0.2160820
  C        2.1525410    -0.1743900     0.0797160
  C       -0.2789970    -0.7898520    -0.2615780
  C       -1.6915990    -0.3449750    -0.0589870
  C        0.5343510     1.5458860    -0.5628900
  C        3.1364470     0.8361460     0.1179860
  C        1.5277130     2.5174420    -0.5614560
  C        2.8303350     2.1515420    -0.2122750
  C       -2.0809039     0.6324213     0.8692939
  C       -2.7013800    -1.0161980    -0.7629970
  C       -3.3755740     0.9555500     1.0975090
  C       -4.0377320    -0.6802290    -0.5577760
  C        3.8275740    -1.9241930     0.5318010
  C       -4.3779170     0.3056950     0.3735650
  H       -0.4794410     1.8136050    -0.8470490
  H        4.1617050     0.5791300     0.3641360
  H        1.7801010    -2.1461120     0.0568400
  H        1.2958720     3.5406330    -0.8437660
  H        3.6204230     2.8995150    -0.1925990
  H       -1.2541740     1.1373190     1.4511930
  H       -2.4205700    -1.7983260    -1.4636490
  H       -3.6394530     1.7093650     1.8355280
  H       -4.8171580    -1.1915530    -1.1177270
  H        4.4331860    -1.7182640    -0.3623870
  H        3.8136890    -3.0019290     0.7024740
  H        4.3131750    -1.4541550     1.3926990
  H       -5.4217990     0.5615290     0.5392290
units angstrom
no_reorient  #important for SAPT in psi4, default
symmetry c1  #important for SAPT in psi4, default
}

set PROPERTIES_ORIGIN ["COM"]
properties('MP2/aug-cc-pvtz', properties = ['dipole'])
--------------------------------------------------------------------------

    Molecular point group: c1
  Charge       = 0
  Multiplicity = 1
  Basis Set: AUG-CC-PVTZ
    Blend: AUG-CC-PVTZ
  Basis Set: (AUG-CC-PVTZ AUX)
    Blend: AUG-CC-PVTZ-JKFIT

    Orbital Energies [Eh]
    ---------------------

    Doubly Occupied:

       1A    -20.540363     2A    -15.561985     3A    -11.341381
       4A    -11.297266     5A    -11.257127     6A    -11.252706
       7A    -11.252658     8A    -11.250570     9A    -11.249807
      10A    -11.248475    11A    -11.247132    12A    -11.242690
      13A    -11.239884    14A    -11.238650    15A    -11.228868
      16A    -11.225862    17A     -1.373014    18A     -1.244461
      19A     -1.167345    20A     -1.142337    21A     -1.055524
      22A     -1.029823    23A     -1.020426    24A     -1.009989
      25A     -0.929649    26A     -0.889604    27A     -0.845223
      28A     -0.832036    29A     -0.807627    30A     -0.773301
      31A     -0.717682    32A     -0.701244    33A     -0.683504
      34A     -0.656468    35A     -0.642299    36A     -0.635376
      37A     -0.618571    38A     -0.615206    39A     -0.608342
      40A     -0.601650    41A     -0.593805    42A     -0.577697
      43A     -0.545531    44A     -0.542250    45A     -0.531106
      46A     -0.521689    47A     -0.515242    48A     -0.503932
      49A     -0.495373    50A     -0.485901    51A     -0.429357
      52A     -0.420377    53A     -0.351848    54A     -0.346484
      55A     -0.343591    56A     -0.292084

  @DF-RHF Final Energy:  -667.26019045814837

   => Energetics <=

    Nuclear Repulsion Energy =           1002.7289492445229371
    One-Electron Energy =               -2896.4334927293703004
    Two-Electron Energy =                1226.4443530266989910
    Total Energy =                       -667.2601904581483723
  Basis Set: (AUG-CC-PVTZ AUX)
    Blend: AUG-CC-PVTZ-RI
    Molecular point group: c1

    Geometry (in Angstrom), charge = 0, multiplicity = 1:

       Center              X                  Y                   Z               Mass
    ------------   -----------------  -----------------  -----------------  -----------------
         O           -0.036987420191    -1.995950857735    -0.449540907977    15.994914619570
         N            2.485329579809    -1.470129857735     0.411522092023    14.003074004430
         C            0.837931579809     0.215306142265    -0.208400907977    12.000000000000
         C            2.180501579809    -0.169590857735     0.087397092023    12.000000000000
         C           -0.251036420191    -0.785052857735    -0.253896907977    12.000000000000
         C           -1.663638420191    -0.340175857735    -0.051305907977    12.000000000000
         C            0.562311579809     1.550685142265    -0.555208907977    12.000000000000
         C            3.164407579809     0.840945142265     0.125667092023    12.000000000000
         C            1.555673579809     2.522241142265    -0.553774907977    12.000000000000
         C            2.858295579809     2.156341142265    -0.204593907977    12.000000000000
         C           -2.052943320191     0.637220442265     0.876974992023    12.000000000000
         C           -2.673419420191    -1.011398857735    -0.755315907977    12.000000000000
         C           -3.347613420191     0.960349142265     1.105190092023    12.000000000000
         C           -4.009771420191    -0.675429857735    -0.550094907977    12.000000000000
         C            3.855534579809    -1.919393857735     0.539482092023    12.000000000000
         C           -4.349956420191     0.310494142265     0.381246092023    12.000000000000
         H           -0.451480420191     1.818404142265    -0.839367907977     1.007825032230
         H            4.189665579809     0.583929142265     0.371817092023     1.007825032230
         H            1.808061579809    -2.141312857735     0.064521092023     1.007825032230
         H            1.323832579809     3.545432142265    -0.836084907977     1.007825032230
         H            3.648383579809     2.904314142265    -0.184917907977     1.007825032230
         H           -1.226213420191     1.142118142265     1.458874092023     1.007825032230
         H           -2.392609420191    -1.793526857735    -1.455967907977     1.007825032230
         H           -3.611492420191     1.714164142265     1.843209092023     1.007825032230
         H           -4.789197420191    -1.186753857735    -1.110045907977     1.007825032230
         H            4.461146579809    -1.713464857735    -0.354705907977     1.007825032230
         H            3.841649579809    -2.997129857735     0.710155092023     1.007825032230
         H            4.341135579809    -1.449355857735     1.400380092023     1.007825032230
         H           -5.393838420191     0.566328142265     0.546910092023     1.007825032230

  Basis Set: AUG-CC-PVTZ
    Blend: AUG-CC-PVTZ
  Basis Set: (AUG-CC-PVTZ AUX)
    Blend: AUG-CC-PVTZ-JKFIT
	 Reference Energy          =    -667.2601904581483723 [Eh]
	 Singles Energy            =      -0.0000000000000000 [Eh]
	 Same-Spin Energy          =      -0.7346306329855569 [Eh]
	 Opposite-Spin Energy      =      -2.2651824837711421 [Eh]
	 Correlation Energy        =      -2.9998131167566990 [Eh]
	 Total Energy              =    -670.2600035749051131 [Eh]

	 ================> DF-SCS-MP2 Energies <==================
	-----------------------------------------------------------
	 SCS Same-Spin Scale       =       0.3333333333333333 [-]
	 SCS Opposite-Spin Scale   =       1.2000000000000000 [-]
	 SCS Same-Spin Energy      =      -0.2448768776618523 [Eh]
	 SCS Opposite-Spin Energy  =      -2.7182189805253705 [Eh]
	 SCS Correlation Energy    =      -2.9630958581872227 [Eh]
	 SCS Total Energy          =    -670.2232863163355887 [Eh]
	-----------------------------------------------------------

  Dipole Moment: [D]
     X:     0.3311      Y:     1.1958      Z:     0.3348     Total:     1.2852

*** Psi4 exiting successfully. Buy a developer a beer!
