                               Psi4 1.3.2 release

  ==> Input File <==

--------------------------------------------------------------------------
#psi4
#
memory 32 gb

molecule  {
0 1
  O       -0.0649480    -2.0007500    -0.4572220
  N        2.4573690    -1.4749290     0.4038410
  C        0.8099710     0.2105070    -0.2160820
  C        2.1907618    -0.0323630     0.0533012
  C       -0.2789970    -0.7898520    -0.2615780
  C       -1.6915990    -0.3449750    -0.0589870
  C        0.5343510     1.5458860    -0.5628900
  C        3.1364470     0.8361460     0.1179860
  C        1.5277130     2.5174420    -0.5614560
  C        2.8303350     2.1515420    -0.2122750
  C       -2.0336590     0.6403590     0.8794580
  C       -2.7013800    -1.0161980    -0.7629970
  C       -3.3755740     0.9555500     1.0975090
  C       -4.0377320    -0.6802290    -0.5577760
  C        3.8275740    -1.9241930     0.5318010
  C       -4.3779170     0.3056950     0.3735650
  H       -0.4794410     1.8136050    -0.8470490
  H        4.1617050     0.5791300     0.3641360
  H        1.7801010    -2.1461120     0.0568400
  H        1.2958720     3.5406330    -0.8437660
  H        3.6204230     2.8995150    -0.1925990
  H       -1.2541740     1.1373190     1.4511930
  H       -2.4205700    -1.7983260    -1.4636490
  H       -3.6394530     1.7093650     1.8355280
  H       -4.8171580    -1.1915530    -1.1177270
  H        4.4331860    -1.7182640    -0.3623870
  H        3.8136890    -3.0019290     0.7024740
  H        4.3131750    -1.4541550     1.3926990
  H       -5.4217990     0.5615290     0.5392290
units angstrom
no_reorient  #important for SAPT in psi4, default
symmetry c1  #important for SAPT in psi4, default
}

set PROPERTIES_ORIGIN ["COM"]
properties('MP2/aug-cc-pvtz', properties = ['dipole'])
--------------------------------------------------------------------------

    Molecular point group: c1
  Charge       = 0
  Multiplicity = 1
  Basis Set: AUG-CC-PVTZ
    Blend: AUG-CC-PVTZ
  Basis Set: (AUG-CC-PVTZ AUX)
    Blend: AUG-CC-PVTZ-JKFIT

    Orbital Energies [Eh]
    ---------------------

    Doubly Occupied:

       1A    -20.543029     2A    -15.541745     3A    -11.346015
       4A    -11.284880     5A    -11.258798     6A    -11.257158
       7A    -11.254085     8A    -11.252701     9A    -11.252401
      10A    -11.249545    11A    -11.247066    12A    -11.246993
      13A    -11.245622    14A    -11.242561    15A    -11.234452
      16A    -11.221193    17A     -1.374227    18A     -1.211969
      19A     -1.165746    20A     -1.145924    21A     -1.064302
      22A     -1.031458    23A     -1.025824    24A     -1.017776
      25A     -0.909976    26A     -0.893505    27A     -0.849645
      28A     -0.837613    29A     -0.806931    30A     -0.776041
      31A     -0.722685    32A     -0.695909    33A     -0.676026
      34A     -0.660191    35A     -0.644297    36A     -0.632160
      37A     -0.628999    38A     -0.612115    39A     -0.598896
      40A     -0.598733    41A     -0.595605    42A     -0.573083
      43A     -0.547726    44A     -0.541837    45A     -0.525061
      46A     -0.524126    47A     -0.516535    48A     -0.504097
      49A     -0.497602    50A     -0.482334    51A     -0.425937
      52A     -0.407808    53A     -0.355886    54A     -0.347280
      55A     -0.345895    56A     -0.305457

  @DF-RHF Final Energy:  -667.23371355064228

   => Energetics <=

    Nuclear Repulsion Energy =           1002.4860211757206798
    One-Electron Energy =               -2895.9285480000999087
    Two-Electron Energy =                1226.2088132737369506
    Total Energy =                       -667.2337135506422783
  Basis Set: (AUG-CC-PVTZ AUX)
    Blend: AUG-CC-PVTZ-RI
    Molecular point group: c1

    Geometry (in Angstrom), charge = 0, multiplicity = 1:

       Center              X                  Y                   Z               Mass
    ------------   -----------------  -----------------  -----------------  -----------------
         O           -0.041845732788    -2.004475627217    -0.448617134106    15.994914619570
         N            2.480471267212    -1.478654627217     0.412445865894    14.003074004430
         C            0.833073267212     0.206781372783    -0.207477134106    12.000000000000
         C            2.213864067212    -0.036088627217     0.061906065894    12.000000000000
         C           -0.255894732788    -0.793577627217    -0.252973134106    12.000000000000
         C           -1.668496732788    -0.348700627217    -0.050382134106    12.000000000000
         C            0.557453267212     1.542160372783    -0.554285134106    12.000000000000
         C            3.159549267212     0.832420372783     0.126590865894    12.000000000000
         C            1.550815267212     2.513716372783    -0.552851134106    12.000000000000
         C            2.853437267212     2.147816372783    -0.203670134106    12.000000000000
         C           -2.010556732788     0.636633372783     0.888062865894    12.000000000000
         C           -2.678277732788    -1.019923627217    -0.754392134106    12.000000000000
         C           -3.352471732788     0.951824372783     1.106113865894    12.000000000000
         C           -4.014629732788    -0.683954627217    -0.549171134106    12.000000000000
         C            3.850676267212    -1.927918627217     0.540405865894    12.000000000000
         C           -4.354814732788     0.301969372783     0.382169865894    12.000000000000
         H           -0.456338732788     1.809879372783    -0.838444134106     1.007825032230
         H            4.184807267212     0.575404372783     0.372740865894     1.007825032230
         H            1.803203267212    -2.149837627217     0.065444865894     1.007825032230
         H            1.318974267212     3.536907372783    -0.835161134106     1.007825032230
         H            3.643525267212     2.895789372783    -0.183994134106     1.007825032230
         H           -1.231071732788     1.133593372783     1.459797865894     1.007825032230
         H           -2.397467732788    -1.802051627217    -1.455044134106     1.007825032230
         H           -3.616350732788     1.705639372783     1.844132865894     1.007825032230
         H           -4.794055732788    -1.195278627217    -1.109122134106     1.007825032230
         H            4.456288267212    -1.721989627217    -0.353782134106     1.007825032230
         H            3.836791267212    -3.005654627217     0.711078865894     1.007825032230
         H            4.336277267212    -1.457880627217     1.401303865894     1.007825032230
         H           -5.398696732788     0.557803372783     0.547833865894     1.007825032230

  Basis Set: AUG-CC-PVTZ
    Blend: AUG-CC-PVTZ
  Basis Set: (AUG-CC-PVTZ AUX)
    Blend: AUG-CC-PVTZ-JKFIT
	 Reference Energy          =    -667.2337135506422783 [Eh]
	 Singles Energy            =      -0.0000000000000000 [Eh]
	 Same-Spin Energy          =      -0.7344458667785136 [Eh]
	 Opposite-Spin Energy      =      -2.2663593273504401 [Eh]
	 Correlation Energy        =      -3.0008051941289535 [Eh]
	 Total Energy              =    -670.2345187447712078 [Eh]

	 ================> DF-SCS-MP2 Energies <==================
	-----------------------------------------------------------
	 SCS Same-Spin Scale       =       0.3333333333333333 [-]
	 SCS Opposite-Spin Scale   =       1.2000000000000000 [-]
	 SCS Same-Spin Energy      =      -0.2448152889261712 [Eh]
	 SCS Opposite-Spin Energy  =      -2.7196311928205281 [Eh]
	 SCS Correlation Energy    =      -2.9644464817466991 [Eh]
	 SCS Total Energy          =    -670.1981600323889552 [Eh]
	-----------------------------------------------------------

  Dipole Moment: [D]
     X:    -0.2550      Y:     2.0737      Z:     0.0871     Total:     2.0911

*** Psi4 exiting successfully. Buy a developer a beer!
