                               Psi4 1.3.2 release

  ==> Input File <==

--------------------------------------------------------------------------
#psi4
#
memory 32 gb

molecule  {
0 1
  O       -0.0649480    -2.0007500    -0.4572220
  N        2.4573690    -1.4749290     0.4038410
  C        0.7153758     0.1902176    -0.2329317
  C        2.1525410    -0.1743900     0.0797160
  C       -0.2789970    -0.7898520    -0.2615780
  C       -1.6915990    -0.3449750    -0.0589870
  C        0.5343510     1.5458860    -0.5628900
  C        3.1364470     0.8361460     0.1179860
  C        1.5277130     2.5174420    -0.5614560
  C        2.8303350     2.1515420    -0.2122750
  C       -2.0336590     0.6403590     0.8794580
  C       -2.7013800    -1.0161980    -0.7629970
  C       -3.3755740     0.9555500     1.0975090
  C       -4.0377320    -0.6802290    -0.5577760
  C        3.8275740    -1.9241930     0.5318010
  C       -4.3779170     0.3056950     0.3735650
  H       -0.4794410     1.8136050    -0.8470490
  H        4.1617050     0.5791300     0.3641360
  H        1.7801010    -2.1461120     0.0568400
  H        1.2958720     3.5406330    -0.8437660
  H        3.6204230     2.8995150    -0.1925990
  H       -1.2541740     1.1373190     1.4511930
  H       -2.4205700    -1.7983260    -1.4636490
  H       -3.6394530     1.7093650     1.8355280
  H       -4.8171580    -1.1915530    -1.1177270
  H        4.4331860    -1.7182640    -0.3623870
  H        3.8136890    -3.0019290     0.7024740
  H        4.3131750    -1.4541550     1.3926990
  H       -5.4217990     0.5615290     0.5392290
units angstrom
no_reorient  #important for SAPT in psi4, default
symmetry c1  #important for SAPT in psi4, default
}

set PROPERTIES_ORIGIN ["COM"]
properties('MP2/aug-cc-pvtz', properties = ['dipole'])
--------------------------------------------------------------------------

    Molecular point group: c1
  Charge       = 0
  Multiplicity = 1
  Basis Set: AUG-CC-PVTZ
    Blend: AUG-CC-PVTZ
  Basis Set: (AUG-CC-PVTZ AUX)
    Blend: AUG-CC-PVTZ-JKFIT

    Orbital Energies [Eh]
    ---------------------

    Doubly Occupied:

       1A    -20.532902     2A    -15.567994     3A    -11.330575
       4A    -11.310183     5A    -11.259803     6A    -11.259519
       7A    -11.258302     8A    -11.248697     9A    -11.247799
      10A    -11.245452    11A    -11.243863    12A    -11.242854
      13A    -11.241283    14A    -11.239178    15A    -11.229538
      16A    -11.226946    17A     -1.369035    18A     -1.245783
      19A     -1.161781    20A     -1.140911    21A     -1.063551
      22A     -1.023436    23A     -1.019123    24A     -1.008243
      25A     -0.935275    26A     -0.895786    27A     -0.844900
      28A     -0.831723    29A     -0.805538    30A     -0.769989
      31A     -0.718057    32A     -0.708145    33A     -0.681837
      34A     -0.656469    35A     -0.643383    36A     -0.633502
      37A     -0.618843    38A     -0.615925    39A     -0.607086
      40A     -0.603829    41A     -0.594080    42A     -0.577312
      43A     -0.545592    44A     -0.545214    45A     -0.533642
      46A     -0.519253    47A     -0.509884    48A     -0.499277
      49A     -0.494949    50A     -0.481956    51A     -0.432110
      52A     -0.419886    53A     -0.353685    54A     -0.343442
      55A     -0.341185    56A     -0.290241

  @DF-RHF Final Energy:  -667.25075896140913

   => Energetics <=

    Nuclear Repulsion Energy =           1002.6161220754731858
    One-Electron Energy =               -2896.1962807478662398
    Two-Electron Energy =                1226.3293997109838074
    Total Energy =                       -667.2507589614092467
  Basis Set: (AUG-CC-PVTZ AUX)
    Blend: AUG-CC-PVTZ-RI
    Molecular point group: c1

    Geometry (in Angstrom), charge = 0, multiplicity = 1:

       Center              X                  Y                   Z               Mass
    ------------   -----------------  -----------------  -----------------  -----------------
         O           -0.034295784143    -1.995248723198    -0.449160863880    15.994914619570
         N            2.488021215857    -1.469427723198     0.411902136120    14.003074004430
         C            0.746028015857     0.195718876802    -0.224870563880    12.000000000000
         C            2.183193215857    -0.168888723198     0.087777136120    12.000000000000
         C           -0.248344784143    -0.784350723198    -0.253516863880    12.000000000000
         C           -1.660946784143    -0.339473723198    -0.050925863880    12.000000000000
         C            0.565003215857     1.551387276802    -0.554828863880    12.000000000000
         C            3.167099215857     0.841647276802     0.126047136120    12.000000000000
         C            1.558365215857     2.522943276802    -0.553394863880    12.000000000000
         C            2.860987215857     2.157043276802    -0.204213863880    12.000000000000
         C           -2.003006784143     0.645860276802     0.887519136120    12.000000000000
         C           -2.670727784143    -1.010696723198    -0.754935863880    12.000000000000
         C           -3.344921784143     0.961051276802     1.105570136120    12.000000000000
         C           -4.007079784143    -0.674727723198    -0.549714863880    12.000000000000
         C            3.858226215857    -1.918691723198     0.539862136120    12.000000000000
         C           -4.347264784143     0.311196276802     0.381626136120    12.000000000000
         H           -0.448788784143     1.819106276802    -0.838987863880     1.007825032230
         H            4.192357215857     0.584631276802     0.372197136120     1.007825032230
         H            1.810753215857    -2.140610723198     0.064901136120     1.007825032230
         H            1.326524215857     3.546134276802    -0.835704863880     1.007825032230
         H            3.651075215857     2.905016276802    -0.184537863880     1.007825032230
         H           -1.223521784143     1.142820276802     1.459254136120     1.007825032230
         H           -2.389917784143    -1.792824723198    -1.455587863880     1.007825032230
         H           -3.608800784143     1.714866276802     1.843589136120     1.007825032230
         H           -4.786505784143    -1.186051723198    -1.109665863880     1.007825032230
         H            4.463838215857    -1.712762723198    -0.354325863880     1.007825032230
         H            3.844341215857    -2.996427723198     0.710535136120     1.007825032230
         H            4.343827215857    -1.448653723198     1.400760136120     1.007825032230
         H           -5.391146784143     0.567030276802     0.547290136120     1.007825032230

  Basis Set: AUG-CC-PVTZ
    Blend: AUG-CC-PVTZ
  Basis Set: (AUG-CC-PVTZ AUX)
    Blend: AUG-CC-PVTZ-JKFIT
	 Reference Energy          =    -667.2507589614091330 [Eh]
	 Singles Energy            =      -0.0000000000000000 [Eh]
	 Same-Spin Energy          =      -0.7353762690613339 [Eh]
	 Opposite-Spin Energy      =      -2.2664889319384098 [Eh]
	 Correlation Energy        =      -3.0018652009997435 [Eh]
	 Total Energy              =    -670.2526241624088925 [Eh]

	 ================> DF-SCS-MP2 Energies <==================
	-----------------------------------------------------------
	 SCS Same-Spin Scale       =       0.3333333333333333 [-]
	 SCS Opposite-Spin Scale   =       1.2000000000000000 [-]
	 SCS Same-Spin Energy      =      -0.2451254230204446 [Eh]
	 SCS Opposite-Spin Energy  =      -2.7197867183260915 [Eh]
	 SCS Correlation Energy    =      -2.9649121413465362 [Eh]
	 SCS Total Energy          =    -670.2156711027556639 [Eh]
	-----------------------------------------------------------

  Dipole Moment: [D]
     X:     0.7750      Y:     1.2787      Z:     0.3914     Total:     1.5457

*** Psi4 exiting successfully. Buy a developer a beer!
