                               Psi4 1.3.2 release

  ==> Input File <==

--------------------------------------------------------------------------
#psi4
#
memory 32 gb

molecule  {
0 1
  O       -0.0649480    -2.0007500    -0.4572220
  N        2.4573690    -1.4749290     0.4038410
  C        0.6677185     0.1825448    -0.2419648
  C        2.1525410    -0.1743900     0.0797160
  C       -0.2789970    -0.7898520    -0.2615780
  C       -1.6915990    -0.3449750    -0.0589870
  C        0.5343510     1.5458860    -0.5628900
  C        3.1364470     0.8361460     0.1179860
  C        1.5277130     2.5174420    -0.5614560
  C        2.8303350     2.1515420    -0.2122750
  C       -2.0336590     0.6403590     0.8794580
  C       -2.7013800    -1.0161980    -0.7629970
  C       -3.3755740     0.9555500     1.0975090
  C       -4.0377320    -0.6802290    -0.5577760
  C        3.8275740    -1.9241930     0.5318010
  C       -4.3779170     0.3056950     0.3735650
  H       -0.4794410     1.8136050    -0.8470490
  H        4.1617050     0.5791300     0.3641360
  H        1.7801010    -2.1461120     0.0568400
  H        1.2958720     3.5406330    -0.8437660
  H        3.6204230     2.8995150    -0.1925990
  H       -1.2541740     1.1373190     1.4511930
  H       -2.4205700    -1.7983260    -1.4636490
  H       -3.6394530     1.7093650     1.8355280
  H       -4.8171580    -1.1915530    -1.1177270
  H        4.4331860    -1.7182640    -0.3623870
  H        3.8136890    -3.0019290     0.7024740
  H        4.3131750    -1.4541550     1.3926990
  H       -5.4217990     0.5615290     0.5392290
units angstrom
no_reorient  #important for SAPT in psi4, default
symmetry c1  #important for SAPT in psi4, default
}

set PROPERTIES_ORIGIN ["COM"]
properties('MP2/aug-cc-pvtz', properties = ['dipole'])
--------------------------------------------------------------------------

    Molecular point group: c1
  Charge       = 0
  Multiplicity = 1
  Basis Set: AUG-CC-PVTZ
    Blend: AUG-CC-PVTZ
  Basis Set: (AUG-CC-PVTZ AUX)
    Blend: AUG-CC-PVTZ-JKFIT

    Orbital Energies [Eh]
    ---------------------

    Doubly Occupied:

       1A    -20.528709     2A    -15.571153     3A    -11.324728
       4A    -11.315763     5A    -11.263699     6A    -11.261731
       7A    -11.260793     8A    -11.247191     9A    -11.246405
      10A    -11.243309    11A    -11.242018    12A    -11.241668
      13A    -11.239981    14A    -11.239313    15A    -11.230179
      16A    -11.227944    17A     -1.366653    18A     -1.246710
      19A     -1.160980    20A     -1.140898    21A     -1.068248
      22A     -1.022236    23A     -1.018242    24A     -1.007952
      25A     -0.938555    26A     -0.899762    27A     -0.844078
      28A     -0.830219    29A     -0.806081    30A     -0.768228
      31A     -0.718055    32A     -0.711773    33A     -0.680697
      34A     -0.656642    35A     -0.642760    36A     -0.633670
      37A     -0.618803    38A     -0.616336    39A     -0.606619
      40A     -0.604636    41A     -0.592832    42A     -0.577141
      43A     -0.547155    44A     -0.545767    45A     -0.534920
      46A     -0.518532    47A     -0.508496    48A     -0.498003
      49A     -0.490871    50A     -0.477665    51A     -0.433650
      52A     -0.418337    53A     -0.355672    54A     -0.342323
      55A     -0.339834    56A     -0.289924

  @DF-RHF Final Energy:  -667.23661306871190

   => Energetics <=

    Nuclear Repulsion Energy =           1002.7185594692992936
    One-Electron Energy =               -2896.3812675928256795
    Two-Electron Energy =                1226.4260950548145956
    Total Energy =                       -667.2366130687119039
  Basis Set: (AUG-CC-PVTZ AUX)
    Blend: AUG-CC-PVTZ-RI
    Molecular point group: c1

    Geometry (in Angstrom), charge = 0, multiplicity = 1:

       Center              X                  Y                   Z               Mass
    ------------   -----------------  -----------------  -----------------  -----------------
         O           -0.031586696627    -1.994812561546    -0.448647375738    15.994914619570
         N            2.490730303373    -1.468991561546     0.412415624262    14.003074004430
         C            0.701079803373     0.188482238454    -0.233390175738    12.000000000000
         C            2.185902303373    -0.168452561546     0.088290624262    12.000000000000
         C           -0.245635696627    -0.783914561546    -0.253003375738    12.000000000000
         C           -1.658237696627    -0.339037561546    -0.050412375738    12.000000000000
         C            0.567712303373     1.551823438454    -0.554315375738    12.000000000000
         C            3.169808303373     0.842083438454     0.126560624262    12.000000000000
         C            1.561074303373     2.523379438454    -0.552881375738    12.000000000000
         C            2.863696303373     2.157479438454    -0.203700375738    12.000000000000
         C           -2.000297696627     0.646296438454     0.888032624262    12.000000000000
         C           -2.668018696627    -1.010260561546    -0.754422375738    12.000000000000
         C           -3.342212696627     0.961487438454     1.106083624262    12.000000000000
         C           -4.004370696627    -0.674291561546    -0.549201375738    12.000000000000
         C            3.860935303373    -1.918255561546     0.540375624262    12.000000000000
         C           -4.344555696627     0.311632438454     0.382139624262    12.000000000000
         H           -0.446079696627     1.819542438454    -0.838474375738     1.007825032230
         H            4.195066303373     0.585067438454     0.372710624262     1.007825032230
         H            1.813462303373    -2.140174561546     0.065414624262     1.007825032230
         H            1.329233303373     3.546570438454    -0.835191375738     1.007825032230
         H            3.653784303373     2.905452438454    -0.184024375738     1.007825032230
         H           -1.220812696627     1.143256438454     1.459767624262     1.007825032230
         H           -2.387208696627    -1.792388561546    -1.455074375738     1.007825032230
         H           -3.606091696627     1.715302438454     1.844102624262     1.007825032230
         H           -4.783796696627    -1.185615561546    -1.109152375738     1.007825032230
         H            4.466547303373    -1.712326561546    -0.353812375738     1.007825032230
         H            3.847050303373    -2.995991561546     0.711048624262     1.007825032230
         H            4.346536303373    -1.448217561546     1.401273624262     1.007825032230
         H           -5.388437696627     0.567466438454     0.547803624262     1.007825032230

  Basis Set: AUG-CC-PVTZ
    Blend: AUG-CC-PVTZ
  Basis Set: (AUG-CC-PVTZ AUX)
    Blend: AUG-CC-PVTZ-JKFIT
	 Reference Energy          =    -667.2366130687119039 [Eh]
	 Singles Energy            =      -0.0000000000000000 [Eh]
	 Same-Spin Energy          =      -0.7359504222571153 [Eh]
	 Opposite-Spin Energy      =      -2.2675351598259095 [Eh]
	 Correlation Energy        =      -3.0034855820830249 [Eh]
	 Total Energy              =    -670.2400986507949483 [Eh]

	 ================> DF-SCS-MP2 Energies <==================
	-----------------------------------------------------------
	 SCS Same-Spin Scale       =       0.3333333333333333 [-]
	 SCS Opposite-Spin Scale   =       1.2000000000000000 [-]
	 SCS Same-Spin Energy      =      -0.2453168074190384 [Eh]
	 SCS Opposite-Spin Energy  =      -2.7210421917910912 [Eh]
	 SCS Correlation Energy    =      -2.9663589992101298 [Eh]
	 SCS Total Energy          =    -670.2029720679220191 [Eh]
	-----------------------------------------------------------

  Dipole Moment: [D]
     X:     1.0174      Y:     1.3201      Z:     0.4162     Total:     1.7178

*** Psi4 exiting successfully. Buy a developer a beer!
