                               Psi4 1.4a3.dev225

  ==> Input File <==

--------------------------------------------------------------------------
#psi4
#
memory 32 gb

molecule  {
0 1
  O       -0.0649480    -2.0007500    -0.4572220
  N        2.4573690    -1.4749290     0.4038410
  C        0.8099710     0.2105070    -0.2160820
  C        2.1337327    -0.1689979     0.0755721
  C       -0.2789970    -0.7898520    -0.2615780
  C       -1.6915990    -0.3449750    -0.0589870
  C        0.5343510     1.5458860    -0.5628900
  C        3.1364470     0.8361460     0.1179860
  C        1.5277130     2.5174420    -0.5614560
  C        2.8303350     2.1515420    -0.2122750
  C       -2.0336590     0.6403590     0.8794580
  C       -2.7013800    -1.0161980    -0.7629970
  C       -3.3755740     0.9555500     1.0975090
  C       -4.0377320    -0.6802290    -0.5577760
  C        3.8275740    -1.9241930     0.5318010
  C       -4.3779170     0.3056950     0.3735650
  H       -0.4794410     1.8136050    -0.8470490
  H        4.1617050     0.5791300     0.3641360
  H        1.7801010    -2.1461120     0.0568400
  H        1.2958720     3.5406330    -0.8437660
  H        3.6204230     2.8995150    -0.1925990
  H       -1.2541740     1.1373190     1.4511930
  H       -2.4205700    -1.7983260    -1.4636490
  H       -3.6394530     1.7093650     1.8355280
  H       -4.8171580    -1.1915530    -1.1177270
  H        4.4331860    -1.7182640    -0.3623870
  H        3.8136890    -3.0019290     0.7024740
  H        4.3131750    -1.4541550     1.3926990
  H       -5.4217990     0.5615290     0.5392290
units angstrom
no_reorient  #important for SAPT in psi4, default
symmetry c1  #important for SAPT in psi4, default
}

set PROPERTIES_ORIGIN ["COM"]
properties('MP2/aug-cc-pvtz', properties = ['dipole'])
--------------------------------------------------------------------------

    Molecular point group: c1
  Charge       = 0
  Multiplicity = 1
  Basis Set: AUG-CC-PVTZ
    Blend: AUG-CC-PVTZ
  Basis Set: (AUG-CC-PVTZ AUX)
    Blend: AUG-CC-PVTZ-JKFIT

    Orbital Energies [Eh]
    ---------------------

    Doubly Occupied:

       1A    -20.540303     2A    -15.560414     3A    -11.340571
       4A    -11.296687     5A    -11.256633     6A    -11.252557
       7A    -11.252186     8A    -11.251697     9A    -11.250461
      10A    -11.249588    11A    -11.247277    12A    -11.245199
      13A    -11.243760    14A    -11.237385    15A    -11.230559
      16A    -11.226540    17A     -1.372958    18A     -1.240733
      19A     -1.163817    20A     -1.142801    21A     -1.056717
      22A     -1.026054    23A     -1.021791    24A     -1.009387
      25A     -0.928105    26A     -0.888560    27A     -0.845231
      28A     -0.835308    29A     -0.808667    30A     -0.771803
      31A     -0.718290    32A     -0.699525    33A     -0.683625
      34A     -0.655529    35A     -0.645147    36A     -0.633087
      37A     -0.618562    38A     -0.614812    39A     -0.607992
      40A     -0.602131    41A     -0.596308    42A     -0.577883
      43A     -0.545665    44A     -0.541621    45A     -0.529609
      46A     -0.520176    47A     -0.513079    48A     -0.506136
      49A     -0.501503    50A     -0.486572    51A     -0.427567
      52A     -0.419295    53A     -0.350781    54A     -0.345460
      55A     -0.343473    56A     -0.293056

  @DF-RHF Final Energy:  -667.26243689885939

   => Energetics <=

    Nuclear Repulsion Energy =           1002.6735341411829268
    One-Electron Energy =               -2896.3306730467479611
    Two-Electron Energy =                1226.3947020067055291
    Total Energy =                       -667.2624368988595052
  Basis Set: (AUG-CC-PVTZ AUX)
    Blend: AUG-CC-PVTZ-RI
    Molecular point group: c1

    Geometry (in Angstrom), charge = 0, multiplicity = 1:

       Center              X                  Y                   Z               Mass
    ------------   -----------------  -----------------  -----------------  -----------------
         O           -0.038603903669    -1.996708592537    -0.449883127294    15.994914619570
         N            2.483713096331    -1.470887592537     0.411179872706    14.003074004430
         C            0.836315096331     0.214548407463    -0.208743127294    12.000000000000
         C            2.160076796331    -0.164956492537     0.082910972706    12.000000000000
         C           -0.252652903669    -0.785810592537    -0.254239127294    12.000000000000
         C           -1.665254903669    -0.340933592537    -0.051648127294    12.000000000000
         C            0.560695096331     1.549927407463    -0.555551127294    12.000000000000
         C            3.162791096331     0.840187407463     0.125324872706    12.000000000000
         C            1.554057096331     2.521483407463    -0.554117127294    12.000000000000
         C            2.856679096331     2.155583407463    -0.204936127294    12.000000000000
         C           -2.007314903669     0.644400407463     0.886796872706    12.000000000000
         C           -2.675035903669    -1.012156592537    -0.755658127294    12.000000000000
         C           -3.349229903669     0.959591407463     1.104847872706    12.000000000000
         C           -4.011387903669    -0.676187592537    -0.550437127294    12.000000000000
         C            3.853918096331    -1.920151592537     0.539139872706    12.000000000000
         C           -4.351572903669     0.309736407463     0.380903872706    12.000000000000
         H           -0.453096903669     1.817646407463    -0.839710127294     1.007825032230
         H            4.188049096331     0.583171407463     0.371474872706     1.007825032230
         H            1.806445096331    -2.142070592537     0.064178872706     1.007825032230
         H            1.322216096331     3.544674407463    -0.836427127294     1.007825032230
         H            3.646767096331     2.903556407463    -0.185260127294     1.007825032230
         H           -1.227829903669     1.141360407463     1.458531872706     1.007825032230
         H           -2.394225903669    -1.794284592537    -1.456310127294     1.007825032230
         H           -3.613108903669     1.713406407463     1.842866872706     1.007825032230
         H           -4.790813903669    -1.187511592537    -1.110388127294     1.007825032230
         H            4.459530096331    -1.714222592537    -0.355048127294     1.007825032230
         H            3.840033096331    -2.997887592537     0.709812872706     1.007825032230
         H            4.339519096331    -1.450113592537     1.400037872706     1.007825032230
         H           -5.395454903669     0.565570407463     0.546567872706     1.007825032230

  Basis Set: AUG-CC-PVTZ
    Blend: AUG-CC-PVTZ
  Basis Set: (AUG-CC-PVTZ AUX)
    Blend: AUG-CC-PVTZ-JKFIT
	 Reference Energy          =    -667.2624368988593915 [Eh]
	 Singles Energy            =      -0.0000000000000000 [Eh]
	 Same-Spin Energy          =      -0.7345375025785268 [Eh]
	 Opposite-Spin Energy      =      -2.2653286927747400 [Eh]
	 Correlation Energy        =      -2.9998661953532668 [Eh]
	 Total Energy              =    -670.2623030942127116 [Eh]

	 ================> DF-SCS-MP2 Energies <==================
	-----------------------------------------------------------
	 SCS Same-Spin Scale       =       0.3333333333333333 [-]
	 SCS Opposite-Spin Scale   =       1.2000000000000000 [-]
	 SCS Same-Spin Energy      =      -0.2448458341928423 [Eh]
	 SCS Opposite-Spin Energy  =      -2.7183944313296879 [Eh]
	 SCS Correlation Energy    =      -2.9632402655225301 [Eh]
	 SCS Total Energy          =    -670.2256771643819775 [Eh]
	-----------------------------------------------------------

  Dipole Moment: [D]
     X:     0.2857      Y:     1.2521      Z:     0.3296     Total:     1.3259

*** Psi4 exiting successfully. Buy a developer a beer!
