                               Psi4 1.3.2 release

  ==> Input File <==

--------------------------------------------------------------------------
#psi4
#
memory 32 gb

molecule  {
0 1
  O       -0.0649480    -2.0007500    -0.4572220
  N        2.4573690    -1.4749290     0.4038410
  C        0.8099710     0.2105070    -0.2160820
  C        2.1201353    -0.2682685     0.0878587
  C       -0.2789970    -0.7898520    -0.2615780
  C       -1.6915990    -0.3449750    -0.0589870
  C        0.5343510     1.5458860    -0.5628900
  C        3.1364470     0.8361460     0.1179860
  C        1.5277130     2.5174420    -0.5614560
  C        2.8303350     2.1515420    -0.2122750
  C       -2.0336590     0.6403590     0.8794580
  C       -2.7013800    -1.0161980    -0.7629970
  C       -3.3755740     0.9555500     1.0975090
  C       -4.0377320    -0.6802290    -0.5577760
  C        3.8275740    -1.9241930     0.5318010
  C       -4.3779170     0.3056950     0.3735650
  H       -0.4794410     1.8136050    -0.8470490
  H        4.1617050     0.5791300     0.3641360
  H        1.7801010    -2.1461120     0.0568400
  H        1.2958720     3.5406330    -0.8437660
  H        3.6204230     2.8995150    -0.1925990
  H       -1.2541740     1.1373190     1.4511930
  H       -2.4205700    -1.7983260    -1.4636490
  H       -3.6394530     1.7093650     1.8355280
  H       -4.8171580    -1.1915530    -1.1177270
  H        4.4331860    -1.7182640    -0.3623870
  H        3.8136890    -3.0019290     0.7024740
  H        4.3131750    -1.4541550     1.3926990
  H       -5.4217990     0.5615290     0.5392290
units angstrom
no_reorient  #important for SAPT in psi4, default
symmetry c1  #important for SAPT in psi4, default
}

set PROPERTIES_ORIGIN ["COM"]
properties('MP2/aug-cc-pvtz', properties = ['dipole'])
--------------------------------------------------------------------------

    Molecular point group: c1
  Charge       = 0
  Multiplicity = 1
  Basis Set: AUG-CC-PVTZ
    Blend: AUG-CC-PVTZ
  Basis Set: (AUG-CC-PVTZ AUX)
    Blend: AUG-CC-PVTZ-JKFIT

    Orbital Energies [Eh]
    ---------------------

    Doubly Occupied:

       1A    -20.536546     2A    -15.576384     3A    -11.335459
       4A    -11.304423     5A    -11.268346     6A    -11.249603
       7A    -11.249217     8A    -11.248394     9A    -11.248367
      10A    -11.246583    11A    -11.244875    12A    -11.243193
      13A    -11.241799    14A    -11.232994    15A    -11.232629
      16A    -11.219412    17A     -1.371013    18A     -1.279387
      19A     -1.161309    20A     -1.135534    21A     -1.052230
      22A     -1.023934    23A     -1.020107    24A     -1.002285
      25A     -0.943583    26A     -0.883205    27A     -0.842686
      28A     -0.832547    29A     -0.808198    30A     -0.771492
      31A     -0.716853    32A     -0.706688    33A     -0.686852
      34A     -0.659240    35A     -0.643723    36A     -0.634637
      37A     -0.628366    38A     -0.617004    39A     -0.609248
      40A     -0.595497    41A     -0.593665    42A     -0.577043
      43A     -0.551477    44A     -0.543752    45A     -0.528737
      46A     -0.517815    47A     -0.511941    48A     -0.499565
      49A     -0.496984    50A     -0.485925    51A     -0.443653
      52A     -0.412436    53A     -0.347830    54A     -0.343500
      55A     -0.341195    56A     -0.282147

  @DF-RHF Final Energy:  -667.25036833876482

   => Energetics <=

    Nuclear Repulsion Energy =           1002.7954862876595143
    One-Electron Energy =               -2896.5286938646440831
    Two-Electron Energy =                1226.4828392382198672
    Total Energy =                       -667.2503683387647015
  Basis Set: (AUG-CC-PVTZ AUX)
    Blend: AUG-CC-PVTZ-RI
    Molecular point group: c1

    Geometry (in Angstrom), charge = 0, multiplicity = 1:

       Center              X                  Y                   Z               Mass
    ------------   -----------------  -----------------  -----------------  -----------------
         O           -0.037830957098    -1.991065537995    -0.450581561210    15.994914619570
         N            2.484486042902    -1.465244537995     0.410481438790    14.003074004430
         C            0.837088042902     0.220191462005    -0.209441561210    12.000000000000
         C            2.147252342902    -0.258584037995     0.094499138790    12.000000000000
         C           -0.251879957098    -0.780167537995    -0.254937561210    12.000000000000
         C           -1.664481957098    -0.335290537995    -0.052346561210    12.000000000000
         C            0.561468042902     1.555570462005    -0.556249561210    12.000000000000
         C            3.163564042902     0.845830462005     0.124626438790    12.000000000000
         C            1.554830042902     2.527126462005    -0.554815561210    12.000000000000
         C            2.857452042902     2.161226462005    -0.205634561210    12.000000000000
         C           -2.006541957098     0.650043462005     0.886098438790    12.000000000000
         C           -2.674262957098    -1.006513537995    -0.756356561210    12.000000000000
         C           -3.348456957098     0.965234462005     1.104149438790    12.000000000000
         C           -4.010614957098    -0.670544537995    -0.551135561210    12.000000000000
         C            3.854691042902    -1.914508537995     0.538441438790    12.000000000000
         C           -4.350799957098     0.315379462005     0.380205438790    12.000000000000
         H           -0.452323957098     1.823289462005    -0.840408561210     1.007825032230
         H            4.188822042902     0.588814462005     0.370776438790     1.007825032230
         H            1.807218042902    -2.136427537995     0.063480438790     1.007825032230
         H            1.322989042902     3.550317462005    -0.837125561210     1.007825032230
         H            3.647540042902     2.909199462005    -0.185958561210     1.007825032230
         H           -1.227056957098     1.147003462005     1.457833438790     1.007825032230
         H           -2.393452957098    -1.788641537995    -1.457008561210     1.007825032230
         H           -3.612335957098     1.719049462005     1.842168438790     1.007825032230
         H           -4.790040957098    -1.181868537995    -1.111086561210     1.007825032230
         H            4.460303042902    -1.708579537995    -0.355746561210     1.007825032230
         H            3.840806042902    -2.992244537995     0.709114438790     1.007825032230
         H            4.340292042902    -1.444470537995     1.399339438790     1.007825032230
         H           -5.394681957098     0.571213462005     0.545869438790     1.007825032230

  Basis Set: AUG-CC-PVTZ
    Blend: AUG-CC-PVTZ
  Basis Set: (AUG-CC-PVTZ AUX)
    Blend: AUG-CC-PVTZ-JKFIT
	 Reference Energy          =    -667.2503683387648152 [Eh]
	 Singles Energy            =      -0.0000000000000000 [Eh]
	 Same-Spin Energy          =      -0.7347928389991386 [Eh]
	 Opposite-Spin Energy      =      -2.2656601855112726 [Eh]
	 Correlation Energy        =      -3.0004530245104113 [Eh]
	 Total Energy              =    -670.2508213632752359 [Eh]

	 ================> DF-SCS-MP2 Energies <==================
	-----------------------------------------------------------
	 SCS Same-Spin Scale       =       0.3333333333333333 [-]
	 SCS Opposite-Spin Scale   =       1.2000000000000000 [-]
	 SCS Same-Spin Energy      =      -0.2449309463330462 [Eh]
	 SCS Opposite-Spin Energy  =      -2.7187922226135268 [Eh]
	 SCS Correlation Energy    =      -2.9637231689465731 [Eh]
	 SCS Total Energy          =    -670.2140915077113732 [Eh]
	-----------------------------------------------------------

  Dipole Moment: [D]
     X:     0.7606      Y:     0.6157      Z:     0.5217     Total:     1.1090

*** Psi4 exiting successfully. Buy a developer a beer!
