                               Psi4 1.4a2.dev612

  ==> Input File <==

--------------------------------------------------------------------------
#psi4
#
memory 32 gb

molecule  {
0 1
  O       -0.0649480    -2.0007500    -0.4572220
  N        2.4573690    -1.4749290     0.4038410
  C        0.8099710     0.2105070    -0.2160820
  C        2.1525410    -0.1743900     0.0797160
  C       -0.2789970    -0.7898520    -0.2615780
  C       -1.5025958    -0.4044986    -0.0860932
  C        0.5343510     1.5458860    -0.5628900
  C        3.1364470     0.8361460     0.1179860
  C        1.5277130     2.5174420    -0.5614560
  C        2.8303350     2.1515420    -0.2122750
  C       -2.0336590     0.6403590     0.8794580
  C       -2.7013800    -1.0161980    -0.7629970
  C       -3.3755740     0.9555500     1.0975090
  C       -4.0377320    -0.6802290    -0.5577760
  C        3.8275740    -1.9241930     0.5318010
  C       -4.3779170     0.3056950     0.3735650
  H       -0.4794410     1.8136050    -0.8470490
  H        4.1617050     0.5791300     0.3641360
  H        1.7801010    -2.1461120     0.0568400
  H        1.2958720     3.5406330    -0.8437660
  H        3.6204230     2.8995150    -0.1925990
  H       -1.2541740     1.1373190     1.4511930
  H       -2.4205700    -1.7983260    -1.4636490
  H       -3.6394530     1.7093650     1.8355280
  H       -4.8171580    -1.1915530    -1.1177270
  H        4.4331860    -1.7182640    -0.3623870
  H        3.8136890    -3.0019290     0.7024740
  H        4.3131750    -1.4541550     1.3926990
  H       -5.4217990     0.5615290     0.5392290
units angstrom
no_reorient  #important for SAPT in psi4, default
symmetry c1  #important for SAPT in psi4, default
}

set PROPERTIES_ORIGIN ["COM"]
properties('MP2/aug-cc-pvtz', properties = ['dipole'])
--------------------------------------------------------------------------

    Molecular point group: c1
  Charge       = 0
  Multiplicity = 1
  Basis Set: AUG-CC-PVTZ
    Blend: AUG-CC-PVTZ
  Basis Set: (AUG-CC-PVTZ AUX)
    Blend: AUG-CC-PVTZ-JKFIT

    Orbital Energies [Eh]
    ---------------------

    Doubly Occupied:

       1A    -20.526878     2A    -15.558418     3A    -11.318128
       4A    -11.293569     5A    -11.274447     6A    -11.269277
       7A    -11.265348     8A    -11.254622     9A    -11.253767
      10A    -11.250189    11A    -11.249663    12A    -11.249413
      13A    -11.248649    14A    -11.235018    15A    -11.226159
      16A    -11.223366    17A     -1.371115    18A     -1.241108
      19A     -1.156454    20A     -1.139135    21A     -1.073899
      22A     -1.024948    23A     -1.017655    24A     -1.007196
      25A     -0.932074    26A     -0.908377    27A     -0.851910
      28A     -0.828080    29A     -0.804375    30A     -0.768942
      31A     -0.721194    32A     -0.702617    33A     -0.689745
      34A     -0.657119    35A     -0.649709    36A     -0.632185
      37A     -0.617182    38A     -0.613031    39A     -0.609651
      40A     -0.599989    41A     -0.589123    42A     -0.574524
      43A     -0.547456    44A     -0.540908    45A     -0.536981
      46A     -0.526888    47A     -0.508748    48A     -0.501115
      49A     -0.486745    50A     -0.466128    51A     -0.426952
      52A     -0.422035    53A     -0.350562    54A     -0.344058
      55A     -0.335901    56A     -0.288488

  @DF-RHF Final Energy:  -667.20102272571705

   => Energetics <=

    Nuclear Repulsion Energy =           1003.5561180876775325
    One-Electron Energy =               -2897.9918537221874431
    Two-Electron Energy =                1227.2347129087927442
    Total Energy =                       -667.2010227257171664
  Basis Set: (AUG-CC-PVTZ AUX)
    Blend: AUG-CC-PVTZ-RI
    Molecular point group: c1

    Geometry (in Angstrom), charge = 0, multiplicity = 1:

       Center              X                  Y                   Z               Mass
    ------------   -----------------  -----------------  -----------------  -----------------
         O           -0.050416984569    -1.993018448267    -0.448577831352    15.994914619570
         N            2.471900015431    -1.467197448267     0.412485168648    14.003074004430
         C            0.824502015431     0.218238551733    -0.207437831352    12.000000000000
         C            2.167072015431    -0.166658448267     0.088360168648    12.000000000000
         C           -0.264465984569    -0.782120448267    -0.252933831352    12.000000000000
         C           -1.488064784569    -0.396767048267    -0.077449031352    12.000000000000
         C            0.548882015431     1.553617551733    -0.554245831352    12.000000000000
         C            3.150978015431     0.843877551733     0.126630168648    12.000000000000
         C            1.542244015431     2.525173551733    -0.552811831352    12.000000000000
         C            2.844866015431     2.159273551733    -0.203630831352    12.000000000000
         C           -2.019127984569     0.648090551733     0.888102168648    12.000000000000
         C           -2.686848984569    -1.008466448267    -0.754352831352    12.000000000000
         C           -3.361042984569     0.963281551733     1.106153168648    12.000000000000
         C           -4.023200984569    -0.672497448267    -0.549131831352    12.000000000000
         C            3.842105015431    -1.916461448267     0.540445168648    12.000000000000
         C           -4.363385984569     0.313426551733     0.382209168648    12.000000000000
         H           -0.464909984569     1.821336551733    -0.838404831352     1.007825032230
         H            4.176236015431     0.586861551733     0.372780168648     1.007825032230
         H            1.794632015431    -2.138380448267     0.065484168648     1.007825032230
         H            1.310403015431     3.548364551733    -0.835121831352     1.007825032230
         H            3.634954015431     2.907246551733    -0.183954831352     1.007825032230
         H           -1.239642984569     1.145050551733     1.459837168648     1.007825032230
         H           -2.406038984569    -1.790594448267    -1.455004831352     1.007825032230
         H           -3.624921984569     1.717096551733     1.844172168648     1.007825032230
         H           -4.802626984569    -1.183821448267    -1.109082831352     1.007825032230
         H            4.447717015431    -1.710532448267    -0.353742831352     1.007825032230
         H            3.828220015431    -2.994197448267     0.711118168648     1.007825032230
         H            4.327706015431    -1.446423448267     1.401343168648     1.007825032230
         H           -5.407267984569     0.569260551733     0.547873168648     1.007825032230

  Basis Set: AUG-CC-PVTZ
    Blend: AUG-CC-PVTZ
  Basis Set: (AUG-CC-PVTZ AUX)
    Blend: AUG-CC-PVTZ-JKFIT
	 Reference Energy          =    -667.2010227257170527 [Eh]
	 Singles Energy            =      -0.0000000000000000 [Eh]
	 Same-Spin Energy          =      -0.7386446553548984 [Eh]
	 Opposite-Spin Energy      =      -2.2724583649334500 [Eh]
	 Correlation Energy        =      -3.0111030202883482 [Eh]
	 Total Energy              =    -670.2121257460054267 [Eh]

	 ================> DF-SCS-MP2 Energies <==================
	-----------------------------------------------------------
	 SCS Same-Spin Scale       =       0.3333333333333333 [-]
	 SCS Opposite-Spin Scale   =       1.2000000000000000 [-]
	 SCS Same-Spin Energy      =      -0.2462148851182995 [Eh]
	 SCS Opposite-Spin Energy  =      -2.7269500379201399 [Eh]
	 SCS Correlation Energy    =      -2.9731649230384392 [Eh]
	 SCS Total Energy          =    -670.1741876487554919 [Eh]
	-----------------------------------------------------------

  Dipole Moment: [D]
     X:    -0.2588      Y:     1.3317      Z:     0.4243     Total:     1.4215

*** Psi4 exiting successfully. Buy a developer a beer!
