                               Psi4 1.3.2 release

  ==> Input File <==

--------------------------------------------------------------------------
#psi4
#
memory 32 gb

molecule  {
0 1
  O       -0.0649480    -2.0007500    -0.4572220
  N        2.4573690    -1.4749290     0.4038410
  C        0.8099710     0.2105070    -0.2160820
  C        2.0359232    -0.2262372     0.0132887
  C       -0.2789970    -0.7898520    -0.2615780
  C       -1.6915990    -0.3449750    -0.0589870
  C        0.5343510     1.5458860    -0.5628900
  C        3.1364470     0.8361460     0.1179860
  C        1.5277130     2.5174420    -0.5614560
  C        2.8303350     2.1515420    -0.2122750
  C       -2.0336590     0.6403590     0.8794580
  C       -2.7013800    -1.0161980    -0.7629970
  C       -3.3755740     0.9555500     1.0975090
  C       -4.0377320    -0.6802290    -0.5577760
  C        3.8275740    -1.9241930     0.5318010
  C       -4.3779170     0.3056950     0.3735650
  H       -0.4794410     1.8136050    -0.8470490
  H        4.1617050     0.5791300     0.3641360
  H        1.7801010    -2.1461120     0.0568400
  H        1.2958720     3.5406330    -0.8437660
  H        3.6204230     2.8995150    -0.1925990
  H       -1.2541740     1.1373190     1.4511930
  H       -2.4205700    -1.7983260    -1.4636490
  H       -3.6394530     1.7093650     1.8355280
  H       -4.8171580    -1.1915530    -1.1177270
  H        4.4331860    -1.7182640    -0.3623870
  H        3.8136890    -3.0019290     0.7024740
  H        4.3131750    -1.4541550     1.3926990
  H       -5.4217990     0.5615290     0.5392290
units angstrom
no_reorient  #important for SAPT in psi4, default
symmetry c1  #important for SAPT in psi4, default
}

set PROPERTIES_ORIGIN ["COM"]
properties('MP2/aug-cc-pvtz', properties = ['dipole'])
--------------------------------------------------------------------------

    Molecular point group: c1
  Charge       = 0
  Multiplicity = 1
  Basis Set: AUG-CC-PVTZ
    Blend: AUG-CC-PVTZ
  Basis Set: (AUG-CC-PVTZ AUX)
    Blend: AUG-CC-PVTZ-JKFIT

    Orbital Energies [Eh]
    ---------------------

    Doubly Occupied:

       1A    -20.540857     2A    -15.562846     3A    -11.339373
       4A    -11.297760     5A    -11.261368     6A    -11.251650
       7A    -11.250315     8A    -11.250120     9A    -11.248956
      10A    -11.247051    11A    -11.246932    12A    -11.245144
      13A    -11.243621    14A    -11.240141    15A    -11.227837
      16A    -11.226639    17A     -1.374259    18A     -1.244763
      19A     -1.163857    20A     -1.143612    21A     -1.058173
      22A     -1.030897    23A     -1.024033    24A     -0.999580
      25A     -0.932150    26A     -0.885355    27A     -0.844081
      28A     -0.837926    29A     -0.811285    30A     -0.770103
      31A     -0.717869    32A     -0.694945    33A     -0.687131
      34A     -0.653864    35A     -0.645331    36A     -0.634921
      37A     -0.623220    38A     -0.612835    39A     -0.609144
      40A     -0.597781    41A     -0.595767    42A     -0.579255
      43A     -0.548204    44A     -0.542158    45A     -0.526681
      46A     -0.516641    47A     -0.514533    48A     -0.505652
      49A     -0.500659    50A     -0.484867    51A     -0.430775
      52A     -0.414698    53A     -0.351177    54A     -0.345959
      55A     -0.343377    56A     -0.291301

  @DF-RHF Final Energy:  -667.23943642346285

   => Energetics <=

    Nuclear Repulsion Energy =           1003.5349767029111945
    One-Electron Energy =               -2898.0099725623558697
    Two-Electron Energy =                1227.2355594359819406
    Total Energy =                       -667.2394364234628483
  Basis Set: (AUG-CC-PVTZ AUX)
    Blend: AUG-CC-PVTZ-RI
    Molecular point group: c1

    Geometry (in Angstrom), charge = 0, multiplicity = 1:

       Center              X                  Y                   Z               Mass
    ------------   -----------------  -----------------  -----------------  -----------------
         O           -0.033043905611    -1.993454814562    -0.446342616576    15.994914619570
         N            2.489273094389    -1.467633814562     0.414720383424    14.003074004430
         C            0.841875094389     0.217802185438    -0.205202616576    12.000000000000
         C            2.067827294389    -0.218942014562     0.024168083424    12.000000000000
         C           -0.247092905611    -0.782556814562    -0.250698616576    12.000000000000
         C           -1.659694905611    -0.337679814562    -0.048107616576    12.000000000000
         C            0.566255094389     1.553181185438    -0.552010616576    12.000000000000
         C            3.168351094389     0.843441185438     0.128865383424    12.000000000000
         C            1.559617094389     2.524737185438    -0.550576616576    12.000000000000
         C            2.862239094389     2.158837185438    -0.201395616576    12.000000000000
         C           -2.001754905611     0.647654185438     0.890337383424    12.000000000000
         C           -2.669475905611    -1.008902814562    -0.752117616576    12.000000000000
         C           -3.343669905611     0.962845185438     1.108388383424    12.000000000000
         C           -4.005827905611    -0.672933814562    -0.546896616576    12.000000000000
         C            3.859478094389    -1.916897814562     0.542680383424    12.000000000000
         C           -4.346012905611     0.312990185438     0.384444383424    12.000000000000
         H           -0.447536905611     1.820900185438    -0.836169616576     1.007825032230
         H            4.193609094389     0.586425185438     0.375015383424     1.007825032230
         H            1.812005094389    -2.138816814562     0.067719383424     1.007825032230
         H            1.327776094389     3.547928185438    -0.832886616576     1.007825032230
         H            3.652327094389     2.906810185438    -0.181719616576     1.007825032230
         H           -1.222269905611     1.144614185438     1.462072383424     1.007825032230
         H           -2.388665905611    -1.791030814562    -1.452769616576     1.007825032230
         H           -3.607548905611     1.716660185438     1.846407383424     1.007825032230
         H           -4.785253905611    -1.184257814562    -1.106847616576     1.007825032230
         H            4.465090094389    -1.710968814562    -0.351507616576     1.007825032230
         H            3.845593094389    -2.994633814562     0.713353383424     1.007825032230
         H            4.345079094389    -1.446859814562     1.403578383424     1.007825032230
         H           -5.389894905611     0.568824185438     0.550108383424     1.007825032230

  Basis Set: AUG-CC-PVTZ
    Blend: AUG-CC-PVTZ
  Basis Set: (AUG-CC-PVTZ AUX)
    Blend: AUG-CC-PVTZ-JKFIT
	 Reference Energy          =    -667.2394364234628483 [Eh]
	 Singles Energy            =      -0.0000000000000000 [Eh]
	 Same-Spin Energy          =      -0.7343736806108054 [Eh]
	 Opposite-Spin Energy      =      -2.2668435774704578 [Eh]
	 Correlation Energy        =      -3.0012172580812635 [Eh]
	 Total Energy              =    -670.2406536815441314 [Eh]

	 ================> DF-SCS-MP2 Energies <==================
	-----------------------------------------------------------
	 SCS Same-Spin Scale       =       0.3333333333333333 [-]
	 SCS Opposite-Spin Scale   =       1.2000000000000000 [-]
	 SCS Same-Spin Energy      =      -0.2447912268702685 [Eh]
	 SCS Opposite-Spin Energy  =      -2.7202122929645491 [Eh]
	 SCS Correlation Energy    =      -2.9650035198348177 [Eh]
	 SCS Total Energy          =    -670.2044399432976434 [Eh]
	-----------------------------------------------------------

  Dipole Moment: [D]
     X:     0.3961      Y:     1.0979      Z:     0.3509     Total:     1.2188

*** Psi4 exiting successfully. Buy a developer a beer!
