                               Psi4 1.3.2 release

  ==> Input File <==

--------------------------------------------------------------------------
#psi4
#
memory 32 gb

molecule  {
0 1
  O       -0.0649480    -2.0007500    -0.4572220
  N        2.5940364    -1.4317795     0.4165130
  C        0.8099710     0.2105070    -0.2160820
  C        2.1525410    -0.1743900     0.0797160
  C       -0.2789970    -0.7898520    -0.2615780
  C       -1.6915990    -0.3449750    -0.0589870
  C        0.5343510     1.5458860    -0.5628900
  C        3.1364470     0.8361460     0.1179860
  C        1.5277130     2.5174420    -0.5614560
  C        2.8303350     2.1515420    -0.2122750
  C       -2.0336590     0.6403590     0.8794580
  C       -2.7013800    -1.0161980    -0.7629970
  C       -3.3755740     0.9555500     1.0975090
  C       -4.0377320    -0.6802290    -0.5577760
  C        3.8275740    -1.9241930     0.5318010
  C       -4.3779170     0.3056950     0.3735650
  H       -0.4794410     1.8136050    -0.8470490
  H        4.1617050     0.5791300     0.3641360
  H        1.7801010    -2.1461120     0.0568400
  H        1.2958720     3.5406330    -0.8437660
  H        3.6204230     2.8995150    -0.1925990
  H       -1.2541740     1.1373190     1.4511930
  H       -2.4205700    -1.7983260    -1.4636490
  H       -3.6394530     1.7093650     1.8355280
  H       -4.8171580    -1.1915530    -1.1177270
  H        4.4331860    -1.7182640    -0.3623870
  H        3.8136890    -3.0019290     0.7024740
  H        4.3131750    -1.4541550     1.3926990
  H       -5.4217990     0.5615290     0.5392290
units angstrom
no_reorient  #important for SAPT in psi4, default
symmetry c1  #important for SAPT in psi4, default
}

set PROPERTIES_ORIGIN ["COM"]
properties('MP2/aug-cc-pvtz', properties = ['dipole'])
--------------------------------------------------------------------------

    Molecular point group: c1
  Charge       = 0
  Multiplicity = 1
  Basis Set: AUG-CC-PVTZ
    Blend: AUG-CC-PVTZ
  Basis Set: (AUG-CC-PVTZ AUX)
    Blend: AUG-CC-PVTZ-JKFIT

    Orbital Energies [Eh]
    ---------------------

    Doubly Occupied:

       1A    -20.543034     2A    -15.564641     3A    -11.342875
       4A    -11.300466     5A    -11.254406     6A    -11.252807
       7A    -11.251777     8A    -11.251493     9A    -11.250728
      10A    -11.248426    11A    -11.248349    12A    -11.246141
      13A    -11.244733    14A    -11.242459    15A    -11.226550
      16A    -11.226226    17A     -1.375089    18A     -1.259980
      19A     -1.165061    20A     -1.146839    21A     -1.057151
      22A     -1.027440    23A     -1.024439    24A     -1.017557
      25A     -0.927061    26A     -0.885404    27A     -0.847092
      28A     -0.836406    29A     -0.801036    30A     -0.771429
      31A     -0.719081    32A     -0.697204    33A     -0.684097
      34A     -0.663501    35A     -0.647876    36A     -0.634377
      37A     -0.629146    38A     -0.620578    39A     -0.614660
      40A     -0.605498    41A     -0.597339    42A     -0.586142
      43A     -0.546918    44A     -0.535354    45A     -0.528117
      46A     -0.514651    47A     -0.511230    48A     -0.502613
      49A     -0.502164    50A     -0.485836    51A     -0.420612
      52A     -0.416059    53A     -0.351444    54A     -0.346759
      55A     -0.344442    56A     -0.288511

  @DF-RHF Final Energy:  -667.23234137712177

   => Energetics <=

    Nuclear Repulsion Energy =           1002.4108046273838681
    One-Electron Energy =               -2895.6236782139440038
    Two-Electron Energy =                1225.9805322094384792
    Total Energy =                       -667.2323413771216565
  Basis Set: (AUG-CC-PVTZ AUX)
    Blend: AUG-CC-PVTZ-RI
    Molecular point group: c1

    Geometry (in Angstrom), charge = 0, multiplicity = 1:

       Center              X                  Y                   Z               Mass
    ------------   -----------------  -----------------  -----------------  -----------------
         O           -0.048738750729    -1.999264353657    -0.450959271593    15.994914619570
         N            2.610245649271    -1.430293853657     0.422775728407    14.003074004430
         C            0.826180249271     0.211992646343    -0.209819271593    12.000000000000
         C            2.168750249271    -0.172904353657     0.085978728407    12.000000000000
         C           -0.262787750729    -0.788366353657    -0.255315271593    12.000000000000
         C           -1.675389750729    -0.343489353657    -0.052724271593    12.000000000000
         C            0.550560249271     1.547371646343    -0.556627271593    12.000000000000
         C            3.152656249271     0.837631646343     0.124248728407    12.000000000000
         C            1.543922249271     2.518927646343    -0.555193271593    12.000000000000
         C            2.846544249271     2.153027646343    -0.206012271593    12.000000000000
         C           -2.017449750729     0.641844646343     0.885720728407    12.000000000000
         C           -2.685170750729    -1.014712353657    -0.756734271593    12.000000000000
         C           -3.359364750729     0.957035646343     1.103771728407    12.000000000000
         C           -4.021522750729    -0.678743353657    -0.551513271593    12.000000000000
         C            3.843783249271    -1.922707353657     0.538063728407    12.000000000000
         C           -4.361707750729     0.307180646343     0.379827728407    12.000000000000
         H           -0.463231750729     1.815090646343    -0.840786271593     1.007825032230
         H            4.177914249271     0.580615646343     0.370398728407     1.007825032230
         H            1.796310249271    -2.144626353657     0.063102728407     1.007825032230
         H            1.312081249271     3.542118646343    -0.837503271593     1.007825032230
         H            3.636632249271     2.901000646343    -0.186336271593     1.007825032230
         H           -1.237964750729     1.138804646343     1.457455728407     1.007825032230
         H           -2.404360750729    -1.796840353657    -1.457386271593     1.007825032230
         H           -3.623243750729     1.710850646343     1.841790728407     1.007825032230
         H           -4.800948750729    -1.190067353657    -1.111464271593     1.007825032230
         H            4.449395249271    -1.716778353657    -0.356124271593     1.007825032230
         H            3.829898249271    -3.000443353657     0.708736728407     1.007825032230
         H            4.329384249271    -1.452669353657     1.398961728407     1.007825032230
         H           -5.405589750729     0.563014646343     0.545491728407     1.007825032230

  Basis Set: AUG-CC-PVTZ
    Blend: AUG-CC-PVTZ
  Basis Set: (AUG-CC-PVTZ AUX)
    Blend: AUG-CC-PVTZ-JKFIT
	 Reference Energy          =    -667.2323413771217702 [Eh]
	 Singles Energy            =      -0.0000000000000000 [Eh]
	 Same-Spin Energy          =      -0.7367659062300818 [Eh]
	 Opposite-Spin Energy      =      -2.2681431706500792 [Eh]
	 Correlation Energy        =      -3.0049090768801610 [Eh]
	 Total Energy              =    -670.2372504540019236 [Eh]

	 ================> DF-SCS-MP2 Energies <==================
	-----------------------------------------------------------
	 SCS Same-Spin Scale       =       0.3333333333333333 [-]
	 SCS Opposite-Spin Scale   =       1.2000000000000000 [-]
	 SCS Same-Spin Energy      =      -0.2455886354100272 [Eh]
	 SCS Opposite-Spin Energy  =      -2.7217718047800949 [Eh]
	 SCS Correlation Energy    =      -2.9673604401901224 [Eh]
	 SCS Total Energy          =    -670.1997018173118477 [Eh]
	-----------------------------------------------------------

  Dipole Moment: [D]
     X:    -0.0392      Y:     1.1689      Z:     0.3685     Total:     1.2263

*** Psi4 exiting successfully. Buy a developer a beer!
