                               Psi4 1.4a3.dev225

  ==> Input File <==

--------------------------------------------------------------------------
#psi4
#
memory 32 gb

molecule  {
0 1
  C       -3.3104600     0.6645600    -0.0001290
  C        3.3104610    -0.6645590    -0.0001300
  C       -4.1189600    -0.6381980     0.0003020
  C        4.1189570     0.6382020     0.0003020
  C       -1.8678680     0.4225120    -0.0001420
  C        1.8678690    -0.4225150    -0.0001410
  C       -0.6717070     0.1376470    -0.0001380
  C        0.6521152    -0.1336350    -0.0001380
  H       -3.5746830     1.2664600    -0.8780670
  H       -3.5745810     1.2669770     0.8774850
  H        3.5746860    -1.2664580    -0.8780680
  H        3.5745850    -1.2669760     0.8774840
  H       -3.8858290    -1.2341430     0.8855450
  H       -3.8859300    -1.2346660    -0.8846160
  H       -5.1908980    -0.4200070     0.0002980
  H        3.8859240     1.2346690    -0.8846160
  H        3.8858250     1.2341450     0.8855460
  H        5.1908960     0.4200140     0.0002970
units angstrom
no_reorient  #important for SAPT in psi4, default
symmetry c1  #important for SAPT in psi4, default
}

set PROPERTIES_ORIGIN ["COM"]
properties('MP2/aug-cc-pvtz', properties = ['dipole'])
--------------------------------------------------------------------------

    Molecular point group: c1
  Charge       = 0
  Multiplicity = 1
  Basis Set: AUG-CC-PVTZ
    Blend: AUG-CC-PVTZ
  Basis Set: (AUG-CC-PVTZ AUX)
    Blend: AUG-CC-PVTZ-JKFIT

    Orbital Energies [Eh]
    ---------------------

    Doubly Occupied:

       1A    -11.258676     2A    -11.257795     3A    -11.252007
       4A    -11.246636     5A    -11.245487     6A    -11.240247
       7A    -11.227776     8A    -11.227529     9A     -1.093718
      10A     -1.078506    11A     -1.033163    12A     -0.969802
      13A     -0.891277    14A     -0.867625    15A     -0.789792
      16A     -0.656326    17A     -0.645440    18A     -0.630442
      19A     -0.629116    20A     -0.557211    21A     -0.552194
      22A     -0.526716    23A     -0.525004    24A     -0.518437
      25A     -0.514285    26A     -0.451949    27A     -0.451473
      28A     -0.324305    29A     -0.323551

  @DF-RHF Final Energy:  -308.75686601666467

   => Energetics <=

    Nuclear Repulsion Energy =            287.9804215196909922
    One-Electron Energy =                -985.5016046767448188
    Two-Electron Energy =                 388.7643171403892097
    Total Energy =                       -308.7568660166646737
  Basis Set: (AUG-CC-PVTZ AUX)
    Blend: AUG-CC-PVTZ-RI
    Molecular point group: c1

    Geometry (in Angstrom), charge = 0, multiplicity = 1:

       Center              X                  Y                   Z               Mass
    ------------   -----------------  -----------------  -----------------  -----------------
         C           -3.308243535848     0.664105777601    -0.000117028447    12.000000000000
         C            3.312677464152    -0.665013222399    -0.000118028447    12.000000000000
         C           -4.116743535848    -0.638652222399     0.000313971553    12.000000000000
         C            4.121173464152     0.637747777601     0.000313971553    12.000000000000
         C           -1.865651535848     0.422057777601    -0.000130028447    12.000000000000
         C            1.870085464152    -0.422969222399    -0.000129028447    12.000000000000
         C           -0.669490535848     0.137192777601    -0.000126028447    12.000000000000
         C            0.654331664152    -0.134089222399    -0.000126028447    12.000000000000
         H           -3.572466535848     1.266005777601    -0.878055028447     1.007825032230
         H           -3.572364535848     1.266522777601     0.877496971553     1.007825032230
         H            3.576902464152    -1.266912222399    -0.878056028447     1.007825032230
         H            3.576801464152    -1.267430222399     0.877495971553     1.007825032230
         H           -3.883612535848    -1.234597222399     0.885556971553     1.007825032230
         H           -3.883713535848    -1.235120222399    -0.884604028447     1.007825032230
         H           -5.188681535848    -0.420461222399     0.000309971553     1.007825032230
         H            3.888140464152     1.234214777601    -0.884604028447     1.007825032230
         H            3.888041464152     1.233690777601     0.885557971553     1.007825032230
         H            5.193112464152     0.419559777601     0.000308971553     1.007825032230

  Basis Set: AUG-CC-PVTZ
    Blend: AUG-CC-PVTZ
  Basis Set: (AUG-CC-PVTZ AUX)
    Blend: AUG-CC-PVTZ-JKFIT
	 Reference Energy          =    -308.7568660166646737 [Eh]
	 Singles Energy            =      -0.0000000000000000 [Eh]
	 Same-Spin Energy          =      -0.3348900259385790 [Eh]
	 Opposite-Spin Energy      =      -1.1384850242683799 [Eh]
	 Correlation Energy        =      -1.4733750502069589 [Eh]
	 Total Energy              =    -310.2302410668716561 [Eh]

	 ================> DF-SCS-MP2 Energies <==================
	-----------------------------------------------------------
	 SCS Same-Spin Scale       =       0.3333333333333333 [-]
	 SCS Opposite-Spin Scale   =       1.2000000000000000 [-]
	 SCS Same-Spin Energy      =      -0.1116300086461930 [Eh]
	 SCS Opposite-Spin Energy  =      -1.3661820291220559 [Eh]
	 SCS Correlation Energy    =      -1.4778120377682489 [Eh]
	 SCS Total Energy          =    -310.2346780544329476 [Eh]
	-----------------------------------------------------------

  Dipole Moment: [D]
     X:     0.0030      Y:     0.0015      Z:     0.0001     Total:     0.0034

*** Psi4 exiting successfully. Buy a developer a beer!
