                               Psi4 1.3.2 release

  ==> Input File <==

--------------------------------------------------------------------------
#psi4
#
memory 32 gb

molecule  {
0 1
  C       -3.3721955    -0.4053446    -0.0578099
  C        3.3720920    -0.3929730     0.0571420
  C       -3.9415050     1.0253280     0.0313370
  C        3.9413990     1.0251120    -0.0302390
  C       -1.9110240    -0.4097670    -0.0329750
  C        1.9110920    -0.4103270     0.0325030
  C       -0.6837818    -0.4234571    -0.0123323
  C        0.6837810    -0.4128680     0.0116400
  H       -3.7516860    -0.9979840     0.7738320
  H       -3.7208300    -0.8759060    -0.9776160
  H        3.7518700    -0.9975380    -0.7747680
  H        3.7209340    -0.8772010     0.9767210
  H       -3.5935250     1.6324230    -0.8070360
  H       -3.6247440     1.5093170     0.9575960
  H       -5.0347610     1.0001480     0.0102760
  H        3.6246290     1.5100350    -0.9560070
  H        3.5933130     1.6313650     0.8087280
  H        5.0346230     0.9999160    -0.0090680
units angstrom
no_reorient  #important for SAPT in psi4, default
symmetry c1  #important for SAPT in psi4, default
}

set PROPERTIES_ORIGIN ["COM"]
properties('MP2/aug-cc-pvtz', properties = ['dipole'])
--------------------------------------------------------------------------

    Molecular point group: c1
  Charge       = 0
  Multiplicity = 1
  Basis Set: AUG-CC-PVTZ
    Blend: AUG-CC-PVTZ
  Basis Set: (AUG-CC-PVTZ AUX)
    Blend: AUG-CC-PVTZ-JKFIT

    Orbital Energies [Eh]
    ---------------------

    Doubly Occupied:

       1A    -11.257085     2A    -11.256571     3A    -11.245757
       4A    -11.245603     5A    -11.241493     6A    -11.240412
       7A    -11.227704     8A    -11.227114     9A     -1.093692
      10A     -1.078729    11A     -1.031887    12A     -0.973384
      13A     -0.890004    14A     -0.868368    15A     -0.786371
      16A     -0.656739    17A     -0.646514    18A     -0.631481
      19A     -0.629809    20A     -0.555339    21A     -0.551061
      22A     -0.526175    23A     -0.525526    24A     -0.519389
      25A     -0.515008    26A     -0.451327    27A     -0.451197
      28A     -0.328549    29A     -0.328137

  @DF-RHF Final Energy:  -308.76246430762353

   => Energetics <=

    Nuclear Repulsion Energy =            288.2371865136203155
    One-Electron Energy =                -986.0384544977804353
    Two-Electron Energy =                 389.0388036765366451
    Total Energy =                       -308.7624643076235316
  Basis Set: (AUG-CC-PVTZ AUX)
    Blend: AUG-CC-PVTZ-RI
    Molecular point group: c1

    Geometry (in Angstrom), charge = 0, multiplicity = 1:

       Center              X                  Y                   Z               Mass
    ------------   -----------------  -----------------  -----------------  -----------------
         C           -3.372177720813    -0.402690877832    -0.057752097377    12.000000000000
         C            3.372109779187    -0.390319277832     0.057199802623    12.000000000000
         C           -3.941487220813     1.027981722168     0.031394802623    12.000000000000
         C            3.941416779187     1.027765722168    -0.030181197377    12.000000000000
         C           -1.911006220813    -0.407113277832    -0.032917197377    12.000000000000
         C            1.911109779187    -0.407673277832     0.032560802623    12.000000000000
         C           -0.683764020813    -0.420803377832    -0.012274497377    12.000000000000
         C            0.683798779187    -0.410214277832     0.011697802623    12.000000000000
         H           -3.751668220813    -0.995330277832     0.773889802623     1.007825032230
         H           -3.720812220813    -0.873252277832    -0.977558197377     1.007825032230
         H            3.751887779187    -0.994884277832    -0.774710197377     1.007825032230
         H            3.720951779187    -0.874547277832     0.976778802623     1.007825032230
         H           -3.593507220813     1.635076722168    -0.806978197377     1.007825032230
         H           -3.624726220813     1.511970722168     0.957653802623     1.007825032230
         H           -5.034743220813     1.002801722168     0.010333802623     1.007825032230
         H            3.624646779187     1.512688722168    -0.955949197377     1.007825032230
         H            3.593330779187     1.634018722168     0.808785802623     1.007825032230
         H            5.034640779187     1.002569722168    -0.009010197377     1.007825032230

  Basis Set: AUG-CC-PVTZ
    Blend: AUG-CC-PVTZ
  Basis Set: (AUG-CC-PVTZ AUX)
    Blend: AUG-CC-PVTZ-JKFIT
	 Reference Energy          =    -308.7624643076235316 [Eh]
	 Singles Energy            =      -0.0000000000000000 [Eh]
	 Same-Spin Energy          =      -0.3332143220543637 [Eh]
	 Opposite-Spin Energy      =      -1.1356664452955578 [Eh]
	 Correlation Energy        =      -1.4688807673499216 [Eh]
	 Total Energy              =    -310.2313450749734329 [Eh]

	 ================> DF-SCS-MP2 Energies <==================
	-----------------------------------------------------------
	 SCS Same-Spin Scale       =       0.3333333333333333 [-]
	 SCS Opposite-Spin Scale   =       1.2000000000000000 [-]
	 SCS Same-Spin Energy      =      -0.1110714406847879 [Eh]
	 SCS Opposite-Spin Energy  =      -1.3627997343546694 [Eh]
	 SCS Correlation Energy    =      -1.4738711750394573 [Eh]
	 SCS Total Energy          =    -310.2363354826629802 [Eh]
	-----------------------------------------------------------

  Dipole Moment: [D]
     X:    -0.0014      Y:     0.2205      Z:     0.0002     Total:     0.2205

*** Psi4 exiting successfully. Buy a developer a beer!
