                               Psi4 1.4a3.dev225

  ==> Input File <==

--------------------------------------------------------------------------
#psi4
#
memory 32 gb

molecule  {
0 1
  C       -3.3104600     0.6645600    -0.0001290
  C        3.3104610    -0.6645590    -0.0001300
  C       -4.1189600    -0.6381980     0.0003020
  C        4.1189570     0.6382020     0.0003020
  C       -1.8678680     0.4225120    -0.0001420
  C        1.8678690    -0.4225150    -0.0001410
  C       -0.6717070     0.1376470    -0.0001380
  C        0.6717080    -0.1376500    -0.0001380
  H       -3.5746830     1.2664600    -0.8780670
  H       -3.5745810     1.2669770     0.8774850
  H        3.5867318    -1.2938980    -0.9180923
  H        3.5745850    -1.2669760     0.8774840
  H       -3.8858290    -1.2341430     0.8855450
  H       -3.8859300    -1.2346660    -0.8846160
  H       -5.1908980    -0.4200070     0.0002980
  H        3.8859240     1.2346690    -0.8846160
  H        3.8858250     1.2341450     0.8855460
  H        5.1908960     0.4200140     0.0002970
units angstrom
no_reorient  #important for SAPT in psi4, default
symmetry c1  #important for SAPT in psi4, default
}

set PROPERTIES_ORIGIN ["COM"]
properties('MP2/aug-cc-pvtz', properties = ['dipole'])
--------------------------------------------------------------------------

    Molecular point group: c1
  Charge       = 0
  Multiplicity = 1
  Basis Set: AUG-CC-PVTZ
    Blend: AUG-CC-PVTZ
  Basis Set: (AUG-CC-PVTZ AUX)
    Blend: AUG-CC-PVTZ-JKFIT

    Orbital Energies [Eh]
    ---------------------

    Doubly Occupied:

       1A    -11.263431     2A    -11.257781     3A    -11.246985
       4A    -11.246753     5A    -11.242920     6A    -11.241862
       7A    -11.227865     8A    -11.227541     9A     -1.092958
      10A     -1.077806    11A     -1.030904    12A     -0.972971
      13A     -0.889059    14A     -0.866887    15A     -0.784981
      16A     -0.655244    17A     -0.644429    18A     -0.629737
      19A     -0.624633    20A     -0.557244    21A     -0.552244
      22A     -0.526227    23A     -0.524280    24A     -0.517547
      25A     -0.512395    26A     -0.451045    27A     -0.449800
      28A     -0.328849    29A     -0.327841

  @DF-RHF Final Energy:  -308.75940174293544

   => Energetics <=

    Nuclear Repulsion Energy =            287.8053335235776444
    One-Electron Energy =                -985.1850351232135381
    Two-Electron Energy =                 388.6202998567003988
    Total Energy =                       -308.7594017429354381
  Basis Set: (AUG-CC-PVTZ AUX)
    Blend: AUG-CC-PVTZ-RI
    Molecular point group: c1

    Geometry (in Angstrom), charge = 0, multiplicity = 1:

       Center              X                  Y                   Z               Mass
    ------------   -----------------  -----------------  -----------------  -----------------
         C           -3.310574396868     0.664820671735     0.000263233212    12.000000000000
         C            3.310346603132    -0.664298328265     0.000262233212    12.000000000000
         C           -4.119074396868    -0.637937328265     0.000694233212    12.000000000000
         C            4.118842603132     0.638462671735     0.000694233212    12.000000000000
         C           -1.867982396868     0.422772671735     0.000250233212    12.000000000000
         C            1.867754603132    -0.422254328265     0.000251233212    12.000000000000
         C           -0.671821396868     0.137907671735     0.000254233212    12.000000000000
         C            0.671593603132    -0.137389328265     0.000254233212    12.000000000000
         H           -3.574797396868     1.266720671735    -0.877674766788     1.007825032230
         H           -3.574695396868     1.267237671735     0.877877233212     1.007825032230
         H            3.586617403132    -1.293637328265    -0.917700066788     1.007825032230
         H            3.574470603132    -1.266715328265     0.877876233212     1.007825032230
         H           -3.885943396868    -1.233882328265     0.885937233212     1.007825032230
         H           -3.886044396868    -1.234405328265    -0.884223766788     1.007825032230
         H           -5.191012396868    -0.419746328265     0.000690233212     1.007825032230
         H            3.885809603132     1.234929671735    -0.884223766788     1.007825032230
         H            3.885710603132     1.234405671735     0.885938233212     1.007825032230
         H            5.190781603132     0.420274671735     0.000689233212     1.007825032230

  Basis Set: AUG-CC-PVTZ
    Blend: AUG-CC-PVTZ
  Basis Set: (AUG-CC-PVTZ AUX)
    Blend: AUG-CC-PVTZ-JKFIT
	 Reference Energy          =    -308.7594017429354381 [Eh]
	 Singles Energy            =      -0.0000000000000000 [Eh]
	 Same-Spin Energy          =      -0.3334497001348962 [Eh]
	 Opposite-Spin Energy      =      -1.1366231863610468 [Eh]
	 Correlation Energy        =      -1.4700728864959429 [Eh]
	 Total Energy              =    -310.2294746294313654 [Eh]

	 ================> DF-SCS-MP2 Energies <==================
	-----------------------------------------------------------
	 SCS Same-Spin Scale       =       0.3333333333333333 [-]
	 SCS Opposite-Spin Scale   =       1.2000000000000000 [-]
	 SCS Same-Spin Energy      =      -0.1111499000449654 [Eh]
	 SCS Opposite-Spin Energy  =      -1.3639478236332561 [Eh]
	 SCS Correlation Energy    =      -1.4750977236782215 [Eh]
	 SCS Total Energy          =    -310.2344994666136699 [Eh]
	-----------------------------------------------------------

  Dipole Moment: [D]
     X:    -0.0182      Y:     0.0189      Z:     0.0131     Total:     0.0293

*** Psi4 exiting successfully. Buy a developer a beer!
