                               Psi4 1.3.2 release

  ==> Input File <==

--------------------------------------------------------------------------
#psi4
#
memory 32 gb

molecule  {
0 1
  C       -3.3721060    -0.3925950    -0.0575320
  C        3.3720920    -0.3929730     0.0571420
  C       -3.9166280     1.0349965     0.0324499
  C        3.9413990     1.0251120    -0.0302390
  C       -1.9109774    -0.3843232    -0.0311994
  C        1.9110920    -0.4103270     0.0325030
  C       -0.6837130    -0.4127480    -0.0120990
  C        0.6837810    -0.4128680     0.0116400
  H       -3.7516860    -0.9979840     0.7738320
  H       -3.7208300    -0.8759060    -0.9776160
  H        3.7518700    -0.9975380    -0.7747680
  H        3.7209340    -0.8772010     0.9767210
  H       -3.5935250     1.6324230    -0.8070360
  H       -3.6247440     1.5093170     0.9575960
  H       -5.0347610     1.0001480     0.0102760
  H        3.6246290     1.5100350    -0.9560070
  H        3.5933130     1.6313650     0.8087280
  H        5.0346230     0.9999160    -0.0090680
units angstrom
no_reorient  #important for SAPT in psi4, default
symmetry c1  #important for SAPT in psi4, default
}

set PROPERTIES_ORIGIN ["COM"]
properties('MP2/aug-cc-pvtz', properties = ['dipole'])
--------------------------------------------------------------------------

    Molecular point group: c1
  Charge       = 0
  Multiplicity = 1
  Basis Set: AUG-CC-PVTZ
    Blend: AUG-CC-PVTZ
  Basis Set: (AUG-CC-PVTZ AUX)
    Blend: AUG-CC-PVTZ-JKFIT

    Orbital Energies [Eh]
    ---------------------

    Doubly Occupied:

       1A    -11.257332     2A    -11.257036     3A    -11.245595
       4A    -11.245369     5A    -11.241349     6A    -11.240263
       7A    -11.227079     8A    -11.227009     9A     -1.094226
      10A     -1.079682    11A     -1.032406    12A     -0.973417
      13A     -0.889401    14A     -0.867708    15A     -0.786247
      16A     -0.656997    17A     -0.646614    18A     -0.632903
      19A     -0.629930    20A     -0.555406    21A     -0.550626
      22A     -0.525547    23A     -0.522216    24A     -0.521762
      25A     -0.515560    26A     -0.451385    27A     -0.451012
      28A     -0.328408    29A     -0.327936

  @DF-RHF Final Energy:  -308.76137737585913

   => Energetics <=

    Nuclear Repulsion Energy =            288.5062312897759966
    One-Electron Energy =                -986.5743697844350208
    Two-Electron Energy =                 389.3067611187998978
    Total Energy =                       -308.7613773758591265
  Basis Set: (AUG-CC-PVTZ AUX)
    Blend: AUG-CC-PVTZ-RI
    Molecular point group: c1

    Geometry (in Angstrom), charge = 0, multiplicity = 1:

       Center              X                  Y                   Z               Mass
    ------------   -----------------  -----------------  -----------------  -----------------
         C           -3.374925586617    -0.396567065850    -0.057858785169    12.000000000000
         C            3.369272413383    -0.396945065850     0.056815214831    12.000000000000
         C           -3.919447586617     1.031024434150     0.032123114831    12.000000000000
         C            3.938579413383     1.021139934150    -0.030565785169    12.000000000000
         C           -1.913796986617    -0.388295265850    -0.031526185169    12.000000000000
         C            1.908272413383    -0.414299065850     0.032176214831    12.000000000000
         C           -0.686532586617    -0.416720065850    -0.012425785169    12.000000000000
         C            0.680961413383    -0.416840065850     0.011313214831    12.000000000000
         H           -3.754505586617    -1.001956065850     0.773505214831     1.007825032230
         H           -3.723649586617    -0.879878065850    -0.977942785169     1.007825032230
         H            3.749050413383    -1.001510065850    -0.775094785169     1.007825032230
         H            3.718114413383    -0.881173065850     0.976394214831     1.007825032230
         H           -3.596344586617     1.628450934150    -0.807362785169     1.007825032230
         H           -3.627563586617     1.505344934150     0.957269214831     1.007825032230
         H           -5.037580586617     0.996175934150     0.009949214831     1.007825032230
         H            3.621809413383     1.506062934150    -0.956333785169     1.007825032230
         H            3.590493413383     1.627392934150     0.808401214831     1.007825032230
         H            5.031803413383     0.995943934150    -0.009394785169     1.007825032230

  Basis Set: AUG-CC-PVTZ
    Blend: AUG-CC-PVTZ
  Basis Set: (AUG-CC-PVTZ AUX)
    Blend: AUG-CC-PVTZ-JKFIT
	 Reference Energy          =    -308.7613773758591265 [Eh]
	 Singles Energy            =      -0.0000000000000000 [Eh]
	 Same-Spin Energy          =      -0.3333422934414230 [Eh]
	 Opposite-Spin Energy      =      -1.1358236095296212 [Eh]
	 Correlation Energy        =      -1.4691659029710442 [Eh]
	 Total Energy              =    -310.2305432788301687 [Eh]

	 ================> DF-SCS-MP2 Energies <==================
	-----------------------------------------------------------
	 SCS Same-Spin Scale       =       0.3333333333333333 [-]
	 SCS Opposite-Spin Scale   =       1.2000000000000000 [-]
	 SCS Same-Spin Energy      =      -0.1111140978138077 [Eh]
	 SCS Opposite-Spin Energy  =      -1.3629883314355455 [Eh]
	 SCS Correlation Energy    =      -1.4741024292493532 [Eh]
	 SCS Total Energy          =    -310.2354798051084686 [Eh]
	-----------------------------------------------------------

  Dipole Moment: [D]
     X:     0.0040      Y:     0.2079      Z:    -0.0009     Total:     0.2080

*** Psi4 exiting successfully. Buy a developer a beer!
