                               Psi4 1.4a3.dev225

  ==> Input File <==

--------------------------------------------------------------------------
#psi4
#
memory 32 gb

molecule  {
0 1
  C       -3.3104600     0.6645600    -0.0001290
  C        3.3104610    -0.6645590    -0.0001300
  C       -4.1189600    -0.6381980     0.0003020
  C        4.1189570     0.6382020     0.0003020
  C       -1.8678680     0.4225120    -0.0001420
  C        1.8678690    -0.4225150    -0.0001410
  C       -0.6717070     0.1376470    -0.0001380
  C        0.7203477    -0.1492335    -0.0001381
  H       -3.5746830     1.2664600    -0.8780670
  H       -3.5745810     1.2669770     0.8774850
  H        3.5746860    -1.2664580    -0.8780680
  H        3.5745850    -1.2669760     0.8774840
  H       -3.8858290    -1.2341430     0.8855450
  H       -3.8859300    -1.2346660    -0.8846160
  H       -5.1908980    -0.4200070     0.0002980
  H        3.8859240     1.2346690    -0.8846160
  H        3.8858250     1.2341450     0.8855460
  H        5.1908960     0.4200140     0.0002970
units angstrom
no_reorient  #important for SAPT in psi4, default
symmetry c1  #important for SAPT in psi4, default
}

set PROPERTIES_ORIGIN ["COM"]
properties('MP2/aug-cc-pvtz', properties = ['dipole'])
--------------------------------------------------------------------------

    Molecular point group: c1
  Charge       = 0
  Multiplicity = 1
  Basis Set: AUG-CC-PVTZ
    Blend: AUG-CC-PVTZ
  Basis Set: (AUG-CC-PVTZ AUX)
    Blend: AUG-CC-PVTZ-JKFIT

    Orbital Energies [Eh]
    ---------------------

    Doubly Occupied:

       1A    -11.257448     2A    -11.255064     3A    -11.248452
       4A    -11.244544     5A    -11.235729     6A    -11.229922
       7A    -11.227339     8A    -11.226609     9A     -1.093682
      10A     -1.079319    11A     -1.028315    12A     -0.979760
      13A     -0.885706    14A     -0.869100    15A     -0.773216
      16A     -0.655279    17A     -0.643848    18A     -0.629749
      19A     -0.628274    20A     -0.556558    21A     -0.551562
      22A     -0.525965    23A     -0.524085    24A     -0.517974
      25A     -0.513880    26A     -0.449493    27A     -0.448943
      28A     -0.339310    29A     -0.338613

  @DF-RHF Final Energy:  -308.76429041418720

   => Energetics <=

    Nuclear Repulsion Energy =            288.1786169641499100
    One-Electron Energy =                -985.9703414900700409
    Two-Electron Energy =                 389.0274341117329300
    Total Energy =                       -308.7642904141872009
  Basis Set: (AUG-CC-PVTZ AUX)
    Blend: AUG-CC-PVTZ-RI
    Molecular point group: c1

    Geometry (in Angstrom), charge = 0, multiplicity = 1:

       Center              X                  Y                   Z               Mass
    ------------   -----------------  -----------------  -----------------  -----------------
         C           -3.315962271758     0.665870342904    -0.000117017135    12.000000000000
         C            3.304958728242    -0.663248657096    -0.000118017135    12.000000000000
         C           -4.124462271758    -0.636887657096     0.000313982865    12.000000000000
         C            4.113454728242     0.639512342904     0.000313982865    12.000000000000
         C           -1.873370271758     0.423822342904    -0.000130017135    12.000000000000
         C            1.862366728242    -0.421204657096    -0.000129017135    12.000000000000
         C           -0.677209271758     0.138957342904    -0.000126017135    12.000000000000
         C            0.714845428242    -0.147923157096    -0.000126117135    12.000000000000
         H           -3.580185271758     1.267770342904    -0.878055017135     1.007825032230
         H           -3.580083271758     1.268287342904     0.877496982865     1.007825032230
         H            3.569183728242    -1.265147657096    -0.878056017135     1.007825032230
         H            3.569082728242    -1.265665657096     0.877495982865     1.007825032230
         H           -3.891331271758    -1.232832657096     0.885556982865     1.007825032230
         H           -3.891432271758    -1.233355657096    -0.884604017135     1.007825032230
         H           -5.196400271758    -0.418696657096     0.000309982865     1.007825032230
         H            3.880421728242     1.235979342904    -0.884604017135     1.007825032230
         H            3.880322728242     1.235455342904     0.885557982865     1.007825032230
         H            5.185393728242     0.421324342904     0.000308982865     1.007825032230

  Basis Set: AUG-CC-PVTZ
    Blend: AUG-CC-PVTZ
  Basis Set: (AUG-CC-PVTZ AUX)
    Blend: AUG-CC-PVTZ-JKFIT
	 Reference Energy          =    -308.7642904141872009 [Eh]
	 Singles Energy            =      -0.0000000000000000 [Eh]
	 Same-Spin Energy          =      -0.3300173515906925 [Eh]
	 Opposite-Spin Energy      =      -1.1312588320175367 [Eh]
	 Correlation Energy        =      -1.4612761836082293 [Eh]
	 Total Energy              =    -310.2255665977954209 [Eh]

	 ================> DF-SCS-MP2 Energies <==================
	-----------------------------------------------------------
	 SCS Same-Spin Scale       =       0.3333333333333333 [-]
	 SCS Opposite-Spin Scale   =       1.2000000000000000 [-]
	 SCS Same-Spin Energy      =      -0.1100057838635641 [Eh]
	 SCS Opposite-Spin Energy  =      -1.3575105984210440 [Eh]
	 SCS Correlation Energy    =      -1.4675163822846082 [Eh]
	 SCS Total Energy          =    -310.2318067964718011 [Eh]
	-----------------------------------------------------------

  Dipole Moment: [D]
     X:    -0.0188      Y:    -0.0020      Z:     0.0001     Total:     0.0189

*** Psi4 exiting successfully. Buy a developer a beer!
