                               Psi4 1.3.2 release

  ==> Input File <==

--------------------------------------------------------------------------
#psi4
#
memory 32 gb

molecule  {
0 1
  C       -3.3721060    -0.3925950    -0.0575320
  C        3.3720920    -0.3929730     0.0571420
  C       -3.9415050     1.0253280     0.0313370
  C        3.8670086     0.8398131    -0.0188211
  C       -1.9110240    -0.4097670    -0.0329750
  C        1.9110920    -0.4103270     0.0325030
  C       -0.6837130    -0.4127480    -0.0120990
  C        0.6837810    -0.4128680     0.0116400
  H       -3.7516860    -0.9979840     0.7738320
  H       -3.7208300    -0.8759060    -0.9776160
  H        3.7518700    -0.9975380    -0.7747680
  H        3.7209340    -0.8772010     0.9767210
  H       -3.5935250     1.6324230    -0.8070360
  H       -3.6247440     1.5093170     0.9575960
  H       -5.0347610     1.0001480     0.0102760
  H        3.6246290     1.5100350    -0.9560070
  H        3.5933130     1.6313650     0.8087280
  H        5.0346230     0.9999160    -0.0090680
units angstrom
no_reorient  #important for SAPT in psi4, default
symmetry c1  #important for SAPT in psi4, default
}

set PROPERTIES_ORIGIN ["COM"]
properties('MP2/aug-cc-pvtz', properties = ['dipole'])
--------------------------------------------------------------------------

    Molecular point group: c1
  Charge       = 0
  Multiplicity = 1
  Basis Set: AUG-CC-PVTZ
    Blend: AUG-CC-PVTZ
  Basis Set: (AUG-CC-PVTZ AUX)
    Blend: AUG-CC-PVTZ-JKFIT

    Orbital Energies [Eh]
    ---------------------

    Doubly Occupied:

       1A    -11.258027     2A    -11.249402     3A    -11.247413
       4A    -11.247130     5A    -11.243585     6A    -11.242020
       7A    -11.238340     8A    -11.227833     9A     -1.123381
      10A     -1.088454    11A     -1.041595    12A     -0.977882
      13A     -0.884847    14A     -0.853475    15A     -0.787609
      16A     -0.668504    17A     -0.650675    18A     -0.643937
      19A     -0.630967    20A     -0.614060    21A     -0.555720
      22A     -0.526399    23A     -0.517308    24A     -0.479036
      25A     -0.473508    26A     -0.456255    27A     -0.447081
      28A     -0.332188    29A     -0.329855

  @DF-RHF Final Energy:  -308.71248506368670

   => Energetics <=

    Nuclear Repulsion Energy =            290.8404612757977930
    One-Electron Energy =                -991.0329240549006045
    Two-Electron Energy =                 391.4799777154161120
    Total Energy =                       -308.7124850636866995
  Basis Set: (AUG-CC-PVTZ AUX)
    Blend: AUG-CC-PVTZ-RI
    Molecular point group: c1

    Geometry (in Angstrom), charge = 0, multiplicity = 1:

       Center              X                  Y                   Z               Mass
    ------------   -----------------  -----------------  -----------------  -----------------
         C           -3.363690785926    -0.371633260928    -0.058823665337    12.000000000000
         C            3.380507214074    -0.372011260928     0.055850334663    12.000000000000
         C           -3.933089785926     1.046289739072     0.030045334663    12.000000000000
         C            3.875423814074     0.860774839072    -0.020112765337    12.000000000000
         C           -1.902608785926    -0.388805260928    -0.034266665337    12.000000000000
         C            1.919507214074    -0.389365260928     0.031211334663    12.000000000000
         C           -0.675297785926    -0.391786260928    -0.013390665337    12.000000000000
         C            0.692196214074    -0.391906260928     0.010348334663    12.000000000000
         H           -3.743270785926    -0.977022260928     0.772540334663     1.007825032230
         H           -3.712414785926    -0.854944260928    -0.978907665337     1.007825032230
         H            3.760285214074    -0.976576260928    -0.776059665337     1.007825032230
         H            3.729349214074    -0.856239260928     0.975429334663     1.007825032230
         H           -3.585109785926     1.653384739072    -0.808327665337     1.007825032230
         H           -3.616328785926     1.530278739072     0.956304334663     1.007825032230
         H           -5.026345785926     1.021109739072     0.008984334663     1.007825032230
         H            3.633044214074     1.530996739072    -0.957298665337     1.007825032230
         H            3.601728214074     1.652326739072     0.807436334663     1.007825032230
         H            5.043038214074     1.020877739072    -0.010359665337     1.007825032230

  Basis Set: AUG-CC-PVTZ
    Blend: AUG-CC-PVTZ
  Basis Set: (AUG-CC-PVTZ AUX)
    Blend: AUG-CC-PVTZ-JKFIT
	 Reference Energy          =    -308.7124850636866995 [Eh]
	 Singles Energy            =      -0.0000000000000000 [Eh]
	 Same-Spin Energy          =      -0.3357866466783347 [Eh]
	 Opposite-Spin Energy      =      -1.1395654493509915 [Eh]
	 Correlation Energy        =      -1.4753520960293263 [Eh]
	 Total Energy              =    -310.1878371597160253 [Eh]

	 ================> DF-SCS-MP2 Energies <==================
	-----------------------------------------------------------
	 SCS Same-Spin Scale       =       0.3333333333333333 [-]
	 SCS Opposite-Spin Scale   =       1.2000000000000000 [-]
	 SCS Same-Spin Energy      =      -0.1119288822261116 [Eh]
	 SCS Opposite-Spin Energy  =      -1.3674785392211897 [Eh]
	 SCS Correlation Energy    =      -1.4794074214473012 [Eh]
	 SCS Total Energy          =    -310.1918924851340194 [Eh]
	-----------------------------------------------------------

  Dipole Moment: [D]
     X:    -0.1578      Y:     0.1402      Z:     0.0038     Total:     0.2111

*** Psi4 exiting successfully. Buy a developer a beer!
