                               Psi4 1.3.2 release

  ==> Input File <==

--------------------------------------------------------------------------
#psi4
#
memory 32 gb

molecule  {
0 1
  C       -3.3593633    -0.3858174    -0.0800102
  C        3.3720920    -0.3929730     0.0571420
  C       -3.9415050     1.0253280     0.0313370
  C        3.9413990     1.0251120    -0.0302390
  C       -1.9110240    -0.4097670    -0.0329750
  C        1.9110920    -0.4103270     0.0325030
  C       -0.6837130    -0.4127480    -0.0120990
  C        0.6837810    -0.4128680     0.0116400
  H       -3.7516860    -0.9979840     0.7738320
  H       -3.7208300    -0.8759060    -0.9776160
  H        3.7518700    -0.9975380    -0.7747680
  H        3.7209340    -0.8772010     0.9767210
  H       -3.5837202     1.6174514    -0.8135912
  H       -3.6247440     1.5093170     0.9575960
  H       -5.0347610     1.0001480     0.0102760
  H        3.6246290     1.5100350    -0.9560070
  H        3.5933130     1.6313650     0.8087280
  H        5.0346230     0.9999160    -0.0090680
units angstrom
no_reorient  #important for SAPT in psi4, default
symmetry c1  #important for SAPT in psi4, default
}

set PROPERTIES_ORIGIN ["COM"]
properties('MP2/aug-cc-pvtz', properties = ['dipole'])
--------------------------------------------------------------------------

    Molecular point group: c1
  Charge       = 0
  Multiplicity = 1
  Basis Set: AUG-CC-PVTZ
    Blend: AUG-CC-PVTZ
  Basis Set: (AUG-CC-PVTZ AUX)
    Blend: AUG-CC-PVTZ-JKFIT

    Orbital Energies [Eh]
    ---------------------

    Doubly Occupied:

       1A    -11.257226     2A    -11.256833     3A    -11.245943
       4A    -11.245596     5A    -11.241763     6A    -11.240695
       7A    -11.227254     8A    -11.227251     9A     -1.094810
      10A     -1.080102    11A     -1.032546    12A     -0.974009
      13A     -0.890455    14A     -0.868045    15A     -0.786115
      16A     -0.658230    17A     -0.647817    18A     -0.630450
      19A     -0.628158    20A     -0.557305    21A     -0.554381
      22A     -0.525861    23A     -0.525695    24A     -0.517690
      25A     -0.512939    26A     -0.451788    27A     -0.450128
      28A     -0.328972    29A     -0.327604

  @DF-RHF Final Energy:  -308.76133258753430

   => Energetics <=

    Nuclear Repulsion Energy =            288.5017604037125238
    One-Electron Energy =                -986.5548666947546508
    Two-Electron Energy =                 389.2917737035078289
    Total Energy =                       -308.7613325875342980
  Basis Set: (AUG-CC-PVTZ AUX)
    Blend: AUG-CC-PVTZ-RI
    Molecular point group: c1

    Geometry (in Angstrom), charge = 0, multiplicity = 1:

       Center              X                  Y                   Z               Mass
    ------------   -----------------  -----------------  -----------------  -----------------
         C           -3.360898087172    -0.386441888451    -0.077405122193    12.000000000000
         C            3.370557212828    -0.393597488451     0.059747077807    12.000000000000
         C           -3.943039787172     1.024703511549     0.033942077807    12.000000000000
         C            3.939864212828     1.024487511549    -0.027633922193    12.000000000000
         C           -1.912558787172    -0.410391488451    -0.030369922193    12.000000000000
         C            1.909557212828    -0.410951488451     0.035108077807    12.000000000000
         C           -0.685247787172    -0.413372488451    -0.009493922193    12.000000000000
         C            0.682246212828    -0.413492488451     0.014245077807    12.000000000000
         H           -3.753220787172    -0.998608488451     0.776437077807     1.007825032230
         H           -3.722364787172    -0.876530488451    -0.975010922193     1.007825032230
         H            3.750335212828    -0.998162488451    -0.772162922193     1.007825032230
         H            3.719399212828    -0.877825488451     0.979326077807     1.007825032230
         H           -3.585254987172     1.616826911549    -0.810986122193     1.007825032230
         H           -3.626278787172     1.508692511549     0.960201077807     1.007825032230
         H           -5.036295787172     0.999523511549     0.012881077807     1.007825032230
         H            3.623094212828     1.509410511549    -0.953401922193     1.007825032230
         H            3.591778212828     1.630740511549     0.811333077807     1.007825032230
         H            5.033088212828     0.999291511549    -0.006462922193     1.007825032230

  Basis Set: AUG-CC-PVTZ
    Blend: AUG-CC-PVTZ
  Basis Set: (AUG-CC-PVTZ AUX)
    Blend: AUG-CC-PVTZ-JKFIT
	 Reference Energy          =    -308.7613325875342980 [Eh]
	 Singles Energy            =      -0.0000000000000000 [Eh]
	 Same-Spin Energy          =      -0.3334952706958744 [Eh]
	 Opposite-Spin Energy      =      -1.1359648548122112 [Eh]
	 Correlation Energy        =      -1.4694601255080855 [Eh]
	 Total Energy              =    -310.2307927130423764 [Eh]

	 ================> DF-SCS-MP2 Energies <==================
	-----------------------------------------------------------
	 SCS Same-Spin Scale       =       0.3333333333333333 [-]
	 SCS Opposite-Spin Scale   =       1.2000000000000000 [-]
	 SCS Same-Spin Energy      =      -0.1111650902319581 [Eh]
	 SCS Opposite-Spin Energy  =      -1.3631578257746535 [Eh]
	 SCS Correlation Energy    =      -1.4743229160066116 [Eh]
	 SCS Total Energy          =    -310.2356555035408974 [Eh]
	-----------------------------------------------------------

  Dipole Moment: [D]
     X:     0.0171      Y:     0.2269      Z:    -0.0153     Total:     0.2281

*** Psi4 exiting successfully. Buy a developer a beer!
