                               Psi4 1.3.2 release

  ==> Input File <==

--------------------------------------------------------------------------
#psi4
#
memory 32 gb

molecule  {
0 1
  C       -3.3721060    -0.3925950    -0.0575320
  C        3.3720920    -0.3929730     0.0571420
  C       -3.9415050     1.0253280     0.0313370
  C        3.9042038     0.9324625    -0.0245300
  C       -1.9110240    -0.4097670    -0.0329750
  C        1.9110920    -0.4103270     0.0325030
  C       -0.6837130    -0.4127480    -0.0120990
  C        0.6837810    -0.4128680     0.0116400
  H       -3.7516860    -0.9979840     0.7738320
  H       -3.7208300    -0.8759060    -0.9776160
  H        3.7518700    -0.9975380    -0.7747680
  H        3.7209340    -0.8772010     0.9767210
  H       -3.5935250     1.6324230    -0.8070360
  H       -3.6247440     1.5093170     0.9575960
  H       -5.0347610     1.0001480     0.0102760
  H        3.6246290     1.5100350    -0.9560070
  H        3.5933130     1.6313650     0.8087280
  H        5.0346230     0.9999160    -0.0090680
units angstrom
no_reorient  #important for SAPT in psi4, default
symmetry c1  #important for SAPT in psi4, default
}

set PROPERTIES_ORIGIN ["COM"]
properties('MP2/aug-cc-pvtz', properties = ['dipole'])
--------------------------------------------------------------------------

    Molecular point group: c1
  Charge       = 0
  Multiplicity = 1
  Basis Set: AUG-CC-PVTZ
    Blend: AUG-CC-PVTZ
  Basis Set: (AUG-CC-PVTZ AUX)
    Blend: AUG-CC-PVTZ-JKFIT

    Orbital Energies [Eh]
    ---------------------

    Doubly Occupied:

       1A    -11.257546     2A    -11.253619     3A    -11.246531
       4A    -11.246252     5A    -11.242428     6A    -11.241242
       7A    -11.231438     8A    -11.227482     9A     -1.103112
      10A     -1.085602    11A     -1.037344    12A     -0.975705
      13A     -0.886452    14A     -0.862233    15A     -0.787060
      16A     -0.660850    17A     -0.648857    18A     -0.635192
      19A     -0.630468    20A     -0.584331    21A     -0.555224
      22A     -0.525987    23A     -0.516990    24A     -0.504106
      25A     -0.494510    26A     -0.454524    27A     -0.450557
      28A     -0.330698    29A     -0.328817

  @DF-RHF Final Energy:  -308.75072528442291

   => Energetics <=

    Nuclear Repulsion Energy =            289.5247492903457669
    One-Electron Energy =                -988.5406310901744291
    Two-Electron Energy =                 390.2651565154057494
    Total Energy =                       -308.7507252844229129
  Basis Set: (AUG-CC-PVTZ AUX)
    Blend: AUG-CC-PVTZ-RI
    Molecular point group: c1

    Geometry (in Angstrom), charge = 0, multiplicity = 1:

       Center              X                  Y                   Z               Mass
    ------------   -----------------  -----------------  -----------------  -----------------
         C           -3.367898457137    -0.382114135156    -0.058177851517    12.000000000000
         C            3.376299542863    -0.382492135156     0.056496148483    12.000000000000
         C           -3.937297457137     1.035808864844     0.030691148483    12.000000000000
         C            3.908411342863     0.942943364844    -0.025175851517    12.000000000000
         C           -1.906816457137    -0.399286135156    -0.033620851517    12.000000000000
         C            1.915299542863    -0.399846135156     0.031857148483    12.000000000000
         C           -0.679505457137    -0.402267135156    -0.012744851517    12.000000000000
         C            0.687988542863    -0.402387135156     0.010994148483    12.000000000000
         H           -3.747478457137    -0.987503135156     0.773186148483     1.007825032230
         H           -3.716622457137    -0.865425135156    -0.978261851517     1.007825032230
         H            3.756077542863    -0.987057135156    -0.775413851517     1.007825032230
         H            3.725141542863    -0.866720135156     0.976075148483     1.007825032230
         H           -3.589317457137     1.642903864844    -0.807681851517     1.007825032230
         H           -3.620536457137     1.519797864844     0.956950148483     1.007825032230
         H           -5.030553457137     1.010628864844     0.009630148483     1.007825032230
         H            3.628836542863     1.520515864844    -0.956652851517     1.007825032230
         H            3.597520542863     1.641845864844     0.808082148483     1.007825032230
         H            5.038830542863     1.010396864844    -0.009713851517     1.007825032230

  Basis Set: AUG-CC-PVTZ
    Blend: AUG-CC-PVTZ
  Basis Set: (AUG-CC-PVTZ AUX)
    Blend: AUG-CC-PVTZ-JKFIT
	 Reference Energy          =    -308.7507252844229129 [Eh]
	 Singles Energy            =      -0.0000000000000000 [Eh]
	 Same-Spin Energy          =      -0.3341266441506459 [Eh]
	 Opposite-Spin Energy      =      -1.1369177900610778 [Eh]
	 Correlation Energy        =      -1.4710444342117237 [Eh]
	 Total Energy              =    -310.2217697186346186 [Eh]

	 ================> DF-SCS-MP2 Energies <==================
	-----------------------------------------------------------
	 SCS Same-Spin Scale       =       0.3333333333333333 [-]
	 SCS Opposite-Spin Scale   =       1.2000000000000000 [-]
	 SCS Same-Spin Energy      =      -0.1113755480502153 [Eh]
	 SCS Opposite-Spin Energy  =      -1.3643013480732933 [Eh]
	 SCS Correlation Energy    =      -1.4756768961235085 [Eh]
	 SCS Total Energy          =    -310.2264021805464154 [Eh]
	-----------------------------------------------------------

  Dipole Moment: [D]
     X:    -0.0706      Y:     0.1930      Z:     0.0015     Total:     0.2055

*** Psi4 exiting successfully. Buy a developer a beer!
