                               Psi4 1.4a3.dev225

  ==> Input File <==

--------------------------------------------------------------------------
#psi4
#
memory 32 gb

molecule  {
0 1
  C       -3.3104600     0.6645600    -0.0001290
  C        3.3104610    -0.6645590    -0.0001300
  C       -4.1189600    -0.6381980     0.0003020
  C        4.1189570     0.6382020     0.0003020
  C       -1.8481437     0.4192025    -0.0001422
  C        1.8678690    -0.4225150    -0.0001410
  C       -0.6717070     0.1376470    -0.0001380
  C        0.6717080    -0.1376500    -0.0001380
  H       -3.5746830     1.2664600    -0.8780670
  H       -3.5745810     1.2669770     0.8774850
  H        3.5746860    -1.2664580    -0.8780680
  H        3.5745850    -1.2669760     0.8774840
  H       -3.8858290    -1.2341430     0.8855450
  H       -3.8859300    -1.2346660    -0.8846160
  H       -5.1908980    -0.4200070     0.0002980
  H        3.8859240     1.2346690    -0.8846160
  H        3.8858250     1.2341450     0.8855460
  H        5.1908960     0.4200140     0.0002970
units angstrom
no_reorient  #important for SAPT in psi4, default
symmetry c1  #important for SAPT in psi4, default
}

set PROPERTIES_ORIGIN ["COM"]
properties('MP2/aug-cc-pvtz', properties = ['dipole'])
--------------------------------------------------------------------------

    Molecular point group: c1
  Charge       = 0
  Multiplicity = 1
  Basis Set: AUG-CC-PVTZ
    Blend: AUG-CC-PVTZ
  Basis Set: (AUG-CC-PVTZ AUX)
    Blend: AUG-CC-PVTZ-JKFIT

    Orbital Energies [Eh]
    ---------------------

    Doubly Occupied:

       1A    -11.258963     2A    -11.257522     3A    -11.246179
       4A    -11.241820     5A    -11.241386     6A    -11.236510
       7A    -11.227373     8A    -11.227161     9A     -1.092970
      10A     -1.077030    11A     -1.031839    12A     -0.975472
      13A     -0.887813    14A     -0.867430    15A     -0.786134
      16A     -0.654380    17A     -0.643403    18A     -0.629734
      19A     -0.627976    20A     -0.556267    21A     -0.550951
      22A     -0.526055    23A     -0.524112    24A     -0.517992
      25A     -0.513652    26A     -0.452945    27A     -0.452378
      28A     -0.331448    29A     -0.330728

  @DF-RHF Final Energy:  -308.76406363552121

   => Energetics <=

    Nuclear Repulsion Energy =            288.1209198032835275
    One-Electron Energy =                -985.8347215634408940
    Two-Electron Energy =                 388.9497381246361556
    Total Energy =                       -308.7640636355212109
  Basis Set: (AUG-CC-PVTZ AUX)
    Blend: AUG-CC-PVTZ-RI
    Molecular point group: c1

    Geometry (in Angstrom), charge = 0, multiplicity = 1:

       Center              X                  Y                   Z               Mass
    ------------   -----------------  -----------------  -----------------  -----------------
         C           -3.312691244955     0.664934354616    -0.000117005823    12.000000000000
         C            3.308229755045    -0.664184645384    -0.000118005823    12.000000000000
         C           -4.121191244955    -0.637823645384     0.000313994177    12.000000000000
         C            4.116725755045     0.638576354616     0.000313994177    12.000000000000
         C           -1.850374944955     0.419576854616    -0.000130205823    12.000000000000
         C            1.865637755045    -0.422140645384    -0.000129005823    12.000000000000
         C           -0.673938244955     0.138021354616    -0.000126005823    12.000000000000
         C            0.669476755045    -0.137275645384    -0.000126005823    12.000000000000
         H           -3.576914244955     1.266834354616    -0.878055005823     1.007825032230
         H           -3.576812244955     1.267351354616     0.877496994177     1.007825032230
         H            3.572454755045    -1.266083645384    -0.878056005823     1.007825032230
         H            3.572353755045    -1.266601645384     0.877495994177     1.007825032230
         H           -3.888060244955    -1.233768645384     0.885556994177     1.007825032230
         H           -3.888161244955    -1.234291645384    -0.884604005823     1.007825032230
         H           -5.193129244955    -0.419632645384     0.000309994177     1.007825032230
         H            3.883692755045     1.235043354616    -0.884604005823     1.007825032230
         H            3.883593755045     1.234519354616     0.885557994177     1.007825032230
         H            5.188664755045     0.420388354616     0.000308994177     1.007825032230

  Basis Set: AUG-CC-PVTZ
    Blend: AUG-CC-PVTZ
  Basis Set: (AUG-CC-PVTZ AUX)
    Blend: AUG-CC-PVTZ-JKFIT
	 Reference Energy          =    -308.7640636355212109 [Eh]
	 Singles Energy            =      -0.0000000000000000 [Eh]
	 Same-Spin Energy          =      -0.3321803690889090 [Eh]
	 Opposite-Spin Energy      =      -1.1344143646968716 [Eh]
	 Correlation Energy        =      -1.4665947337857808 [Eh]
	 Total Energy              =    -310.2306583693069797 [Eh]

	 ================> DF-SCS-MP2 Energies <==================
	-----------------------------------------------------------
	 SCS Same-Spin Scale       =       0.3333333333333333 [-]
	 SCS Opposite-Spin Scale   =       1.2000000000000000 [-]
	 SCS Same-Spin Energy      =      -0.1107267896963030 [Eh]
	 SCS Opposite-Spin Energy  =      -1.3612972376362460 [Eh]
	 SCS Correlation Energy    =      -1.4720240273325489 [Eh]
	 SCS Total Energy          =    -310.2360876628537767 [Eh]
	-----------------------------------------------------------

  Dipole Moment: [D]
     X:     0.0045      Y:    -0.0032      Z:     0.0001     Total:     0.0055

*** Psi4 exiting successfully. Buy a developer a beer!
