                               Psi4 1.3.2 release

  ==> Input File <==

--------------------------------------------------------------------------
#psi4
#
memory 32 gb

molecule  {
0 1
  C       -3.3721060    -0.3925950    -0.0575320
  C        3.3720920    -0.3929730     0.0571420
  C       -3.9415050     1.0253280     0.0313370
  C        3.9413990     1.0251120    -0.0302390
  C       -1.9110240    -0.4097670    -0.0329750
  C        1.9110920    -0.4103270     0.0325030
  C       -0.6837130    -0.4127480    -0.0120990
  C        0.6837810    -0.4128680     0.0116400
  H       -3.7516860    -0.9979840     0.7738320
  H       -3.7208300    -0.8759060    -0.9776160
  H        3.7865128    -1.0526855    -0.8506536
  H        3.7209340    -0.8772010     0.9767210
  H       -3.5935250     1.6324230    -0.8070360
  H       -3.6247440     1.5093170     0.9575960
  H       -5.0347610     1.0001480     0.0102760
  H        3.6246290     1.5100350    -0.9560070
  H        3.5933130     1.6313650     0.8087280
  H        5.0346230     0.9999160    -0.0090680
units angstrom
no_reorient  #important for SAPT in psi4, default
symmetry c1  #important for SAPT in psi4, default
}

set PROPERTIES_ORIGIN ["COM"]
properties('MP2/aug-cc-pvtz', properties = ['dipole'])
--------------------------------------------------------------------------

    Molecular point group: c1
  Charge       = 0
  Multiplicity = 1
  Basis Set: AUG-CC-PVTZ
    Blend: AUG-CC-PVTZ
  Basis Set: (AUG-CC-PVTZ AUX)
    Blend: AUG-CC-PVTZ-JKFIT

    Orbital Energies [Eh]
    ---------------------

    Doubly Occupied:

       1A    -11.268404     2A    -11.257351     3A    -11.246452
       4A    -11.246120     5A    -11.242106     6A    -11.240955
       7A    -11.228006     8A    -11.227354     9A     -1.093434
      10A     -1.077722    11A     -1.031689    12A     -0.974057
      13A     -0.889112    14A     -0.865736    15A     -0.785105
      16A     -0.655473    17A     -0.645653    18A     -0.630424
      19A     -0.620191    20A     -0.556683    21A     -0.554076
      22A     -0.525779    23A     -0.524459    24A     -0.517318
      25A     -0.509671    26A     -0.452024    27A     -0.449569
      28A     -0.329141    29A     -0.327694

  @DF-RHF Final Energy:  -308.75594780857620

   => Energetics <=

    Nuclear Repulsion Energy =            287.9240644099401720
    One-Electron Energy =                -985.4165089612371276
    Two-Electron Energy =                 388.7364967427208171
    Total Energy =                       -308.7559478085761953
  Basis Set: (AUG-CC-PVTZ AUX)
    Blend: AUG-CC-PVTZ-RI
    Molecular point group: c1

    Geometry (in Angstrom), charge = 0, multiplicity = 1:

       Center              X                  Y                   Z               Mass
    ------------   -----------------  -----------------  -----------------  -----------------
         C           -3.372435261615    -0.392071076997    -0.056811054772    12.000000000000
         C            3.371762738385    -0.392449076997     0.057862945228    12.000000000000
         C           -3.941834261615     1.025851923003     0.032057945228    12.000000000000
         C            3.941069738385     1.025635923003    -0.029518054772    12.000000000000
         C           -1.911353261615    -0.409243076997    -0.032254054772    12.000000000000
         C            1.910762738385    -0.409803076997     0.033223945228    12.000000000000
         C           -0.684042261615    -0.412224076997    -0.011378054772    12.000000000000
         C            0.683451738385    -0.412344076997     0.012360945228    12.000000000000
         H           -3.752015261615    -0.997460076997     0.774552945228     1.007825032230
         H           -3.721159261615    -0.875382076997    -0.976895054772     1.007825032230
         H            3.786183538385    -1.052161576997    -0.849932654772     1.007825032230
         H            3.720604738385    -0.876677076997     0.977441945228     1.007825032230
         H           -3.593854261615     1.632946923003    -0.806315054772     1.007825032230
         H           -3.625073261615     1.509840923003     0.958316945228     1.007825032230
         H           -5.035090261615     1.000671923003     0.010996945228     1.007825032230
         H            3.624299738385     1.510558923003    -0.955286054772     1.007825032230
         H            3.592983738385     1.631888923003     0.809448945228     1.007825032230
         H            5.034293738385     1.000439923003    -0.008347054772     1.007825032230

  Basis Set: AUG-CC-PVTZ
    Blend: AUG-CC-PVTZ
  Basis Set: (AUG-CC-PVTZ AUX)
    Blend: AUG-CC-PVTZ-JKFIT
	 Reference Energy          =    -308.7559478085761953 [Eh]
	 Singles Energy            =      -0.0000000000000000 [Eh]
	 Same-Spin Energy          =      -0.3333816838631773 [Eh]
	 Opposite-Spin Energy      =      -1.1364895964398349 [Eh]
	 Correlation Energy        =      -1.4698712803030123 [Eh]
	 Total Energy              =    -310.2258190888792342 [Eh]

	 ================> DF-SCS-MP2 Energies <==================
	-----------------------------------------------------------
	 SCS Same-Spin Scale       =       0.3333333333333333 [-]
	 SCS Opposite-Spin Scale   =       1.2000000000000000 [-]
	 SCS Same-Spin Energy      =      -0.1111272279543924 [Eh]
	 SCS Opposite-Spin Energy  =      -1.3637875157278019 [Eh]
	 SCS Correlation Energy    =      -1.4749147436821943 [Eh]
	 SCS Total Energy          =    -310.2308625522583725 [Eh]
	-----------------------------------------------------------

  Dipole Moment: [D]
     X:    -0.0482      Y:     0.2619      Z:     0.0264     Total:     0.2676

*** Psi4 exiting successfully. Buy a developer a beer!
