                               Psi4 1.4a3.dev225

  ==> Input File <==

--------------------------------------------------------------------------
#psi4
#
memory 32 gb

molecule  {
0 1
  C       -3.3104600     0.6645600    -0.0001290
  C        3.3104610    -0.6645590    -0.0001300
  C       -4.1189600    -0.6381980     0.0003020
  C        4.1189570     0.6382020     0.0003020
  C       -1.8678680     0.4225120    -0.0001420
  C        1.8678690    -0.4225150    -0.0001410
  C       -0.6717070     0.1376470    -0.0001380
  C        0.6911639    -0.1422834    -0.0001380
  H       -3.5746830     1.2664600    -0.8780670
  H       -3.5745810     1.2669770     0.8774850
  H        3.5746860    -1.2664580    -0.8780680
  H        3.5745850    -1.2669760     0.8774840
  H       -3.8858290    -1.2341430     0.8855450
  H       -3.8859300    -1.2346660    -0.8846160
  H       -5.1908980    -0.4200070     0.0002980
  H        3.8859240     1.2346690    -0.8846160
  H        3.8858250     1.2341450     0.8855460
  H        5.1908960     0.4200140     0.0002970
units angstrom
no_reorient  #important for SAPT in psi4, default
symmetry c1  #important for SAPT in psi4, default
}

set PROPERTIES_ORIGIN ["COM"]
properties('MP2/aug-cc-pvtz', properties = ['dipole'])
--------------------------------------------------------------------------

    Molecular point group: c1
  Charge       = 0
  Multiplicity = 1
  Basis Set: AUG-CC-PVTZ
    Blend: AUG-CC-PVTZ
  Basis Set: (AUG-CC-PVTZ AUX)
    Blend: AUG-CC-PVTZ-JKFIT

    Orbital Energies [Eh]
    ---------------------

    Doubly Occupied:

       1A    -11.257574     2A    -11.256651     3A    -11.246924
       4A    -11.243644     5A    -11.241627     6A    -11.238014
       7A    -11.227406     8A    -11.227131     9A     -1.093267
      10A     -1.078940    11A     -1.029871    12A     -0.975810
      13A     -0.887969    14A     -0.868591    15A     -0.780990
      16A     -0.655793    17A     -0.644614    18A     -0.629996
      19A     -0.628674    20A     -0.556814    21A     -0.551825
      22A     -0.526247    23A     -0.524525    24A     -0.518126
      25A     -0.514034    26A     -0.450103    27A     -0.449600
      28A     -0.333019    29A     -0.332297

  @DF-RHF Final Energy:  -308.76426200924220

   => Energetics <=

    Nuclear Repulsion Energy =            288.0685801225863543
    One-Electron Energy =                -985.7255287733327123
    Two-Electron Energy =                 388.8926866415041559
    Total Energy =                       -308.7642620092422021
  Basis Set: (AUG-CC-PVTZ AUX)
    Blend: AUG-CC-PVTZ-RI
    Molecular point group: c1

    Geometry (in Angstrom), charge = 0, multiplicity = 1:

       Center              X                  Y                   Z               Mass
    ------------   -----------------  -----------------  -----------------  -----------------
         C           -3.312660882463     0.665084119529    -0.000117028447    12.000000000000
         C            3.308260117537    -0.664034880471    -0.000118028447    12.000000000000
         C           -4.121160882463    -0.637673880471     0.000313971553    12.000000000000
         C            4.116756117537     0.638726119529     0.000313971553    12.000000000000
         C           -1.870068882463     0.423036119529    -0.000130028447    12.000000000000
         C            1.865668117537    -0.421990880471    -0.000129028447    12.000000000000
         C           -0.673907882463     0.138171119529    -0.000126028447    12.000000000000
         C            0.688963017537    -0.141759280471    -0.000126028447    12.000000000000
         H           -3.576883882463     1.266984119529    -0.878055028447     1.007825032230
         H           -3.576781882463     1.267501119529     0.877496971553     1.007825032230
         H            3.572485117537    -1.265933880471    -0.878056028447     1.007825032230
         H            3.572384117537    -1.266451880471     0.877495971553     1.007825032230
         H           -3.888029882463    -1.233618880471     0.885556971553     1.007825032230
         H           -3.888130882463    -1.234141880471    -0.884604028447     1.007825032230
         H           -5.193098882463    -0.419482880471     0.000309971553     1.007825032230
         H            3.883723117537     1.235193119529    -0.884604028447     1.007825032230
         H            3.883624117537     1.234669119529     0.885557971553     1.007825032230
         H            5.188695117537     0.420538119529     0.000308971553     1.007825032230

  Basis Set: AUG-CC-PVTZ
    Blend: AUG-CC-PVTZ
  Basis Set: (AUG-CC-PVTZ AUX)
    Blend: AUG-CC-PVTZ-JKFIT
	 Reference Energy          =    -308.7642620092422021 [Eh]
	 Singles Energy            =      -0.0000000000000000 [Eh]
	 Same-Spin Energy          =      -0.3319928250404337 [Eh]
	 Opposite-Spin Energy      =      -1.1341880258019703 [Eh]
	 Correlation Energy        =      -1.4661808508424041 [Eh]
	 Total Energy              =    -310.2304428600846222 [Eh]

	 ================> DF-SCS-MP2 Energies <==================
	-----------------------------------------------------------
	 SCS Same-Spin Scale       =       0.3333333333333333 [-]
	 SCS Opposite-Spin Scale   =       1.2000000000000000 [-]
	 SCS Same-Spin Energy      =      -0.1106642750134779 [Eh]
	 SCS Opposite-Spin Energy  =      -1.3610256309623643 [Eh]
	 SCS Correlation Energy    =      -1.4716899059758421 [Eh]
	 SCS Total Energy          =    -310.2359519152180383 [Eh]
	-----------------------------------------------------------

  Dipole Moment: [D]
     X:    -0.0057      Y:    -0.0010      Z:     0.0001     Total:     0.0058

*** Psi4 exiting successfully. Buy a developer a beer!
