                               Psi4 1.4a3.dev225

  ==> Input File <==

--------------------------------------------------------------------------
#psi4
#
memory 32 gb

molecule  {
0 1
  C       -3.3104600     0.6645600    -0.0001290
  C        3.3104610    -0.6645590    -0.0001300
  C       -4.1189600    -0.6381980     0.0003020
  C        4.1189570     0.6382020     0.0003020
  C       -1.8678680     0.4225120    -0.0001420
  C        1.8875933    -0.4258244    -0.0001408
  C       -0.6717070     0.1376470    -0.0001380
  C        0.6717080    -0.1376500    -0.0001380
  H       -3.5746830     1.2664600    -0.8780670
  H       -3.5745810     1.2669770     0.8774850
  H        3.5746860    -1.2664580    -0.8780680
  H        3.5745850    -1.2669760     0.8774840
  H       -3.8858290    -1.2341430     0.8855450
  H       -3.8859300    -1.2346660    -0.8846160
  H       -5.1908980    -0.4200070     0.0002980
  H        3.8859240     1.2346690    -0.8846160
  H        3.8858250     1.2341450     0.8855460
  H        5.1908960     0.4200140     0.0002970
units angstrom
no_reorient  #important for SAPT in psi4, default
symmetry c1  #important for SAPT in psi4, default
}

set PROPERTIES_ORIGIN ["COM"]
properties('MP2/aug-cc-pvtz', properties = ['dipole'])
--------------------------------------------------------------------------

    Molecular point group: c1
  Charge       = 0
  Multiplicity = 1
  Basis Set: AUG-CC-PVTZ
    Blend: AUG-CC-PVTZ
  Basis Set: (AUG-CC-PVTZ AUX)
    Blend: AUG-CC-PVTZ-JKFIT

    Orbital Energies [Eh]
    ---------------------

    Doubly Occupied:

       1A    -11.257799     2A    -11.256412     3A    -11.251475
       4A    -11.247684     5A    -11.246887     6A    -11.242628
       7A    -11.227825     8A    -11.227526     9A     -1.094185
      10A     -1.080551    11A     -1.030792    12A     -0.970149
      13A     -0.891563    14A     -0.868600    15A     -0.784944
      16A     -0.658107    17A     -0.646255    18A     -0.631236
      19A     -0.629380    20A     -0.558024    21A     -0.552829
      22A     -0.527105    23A     -0.525214    24A     -0.518645
      25A     -0.514626    26A     -0.448968    27A     -0.448557
      28A     -0.325850    29A     -0.325094

  @DF-RHF Final Energy:  -308.75719536974378

   => Energetics <=

    Nuclear Repulsion Energy =            287.9268581695538387
    One-Electron Energy =                -985.3902866197358890
    Two-Electron Energy =                 388.7062330804382668
    Total Energy =                       -308.7571953697437834
  Basis Set: (AUG-CC-PVTZ AUX)
    Blend: AUG-CC-PVTZ-RI
    Molecular point group: c1

    Geometry (in Angstrom), charge = 0, multiplicity = 1:

       Center              X                  Y                   Z               Mass
    ------------   -----------------  -----------------  -----------------  -----------------
         C           -3.312691244955     0.664934343303    -0.000117051072    12.000000000000
         C            3.308229755045    -0.664184656697    -0.000118051072    12.000000000000
         C           -4.121191244955    -0.637823656697     0.000313948928    12.000000000000
         C            4.116725755045     0.638576343303     0.000313948928    12.000000000000
         C           -1.870099244955     0.422886343303    -0.000130051072    12.000000000000
         C            1.885362055045    -0.425450056697    -0.000128851072    12.000000000000
         C           -0.673938244955     0.138021343303    -0.000126051072    12.000000000000
         C            0.669476755045    -0.137275656697    -0.000126051072    12.000000000000
         H           -3.576914244955     1.266834343303    -0.878055051072     1.007825032230
         H           -3.576812244955     1.267351343303     0.877496948928     1.007825032230
         H            3.572454755045    -1.266083656697    -0.878056051072     1.007825032230
         H            3.572353755045    -1.266601656697     0.877495948928     1.007825032230
         H           -3.888060244955    -1.233768656697     0.885556948928     1.007825032230
         H           -3.888161244955    -1.234291656697    -0.884604051072     1.007825032230
         H           -5.193129244955    -0.419632656697     0.000309948928     1.007825032230
         H            3.883692755045     1.235043343303    -0.884604051072     1.007825032230
         H            3.883593755045     1.234519343303     0.885557948928     1.007825032230
         H            5.188664755045     0.420388343303     0.000308948928     1.007825032230

  Basis Set: AUG-CC-PVTZ
    Blend: AUG-CC-PVTZ
  Basis Set: (AUG-CC-PVTZ AUX)
    Blend: AUG-CC-PVTZ-JKFIT
	 Reference Energy          =    -308.7571953697437834 [Eh]
	 Singles Energy            =      -0.0000000000000000 [Eh]
	 Same-Spin Energy          =      -0.3346804226865784 [Eh]
	 Opposite-Spin Energy      =      -1.1382259818890303 [Eh]
	 Correlation Energy        =      -1.4729064045756088 [Eh]
	 Total Energy              =    -310.2301017743193938 [Eh]

	 ================> DF-SCS-MP2 Energies <==================
	-----------------------------------------------------------
	 SCS Same-Spin Scale       =       0.3333333333333333 [-]
	 SCS Opposite-Spin Scale   =       1.2000000000000000 [-]
	 SCS Same-Spin Energy      =      -0.1115601408955261 [Eh]
	 SCS Opposite-Spin Energy  =      -1.3658711782668365 [Eh]
	 SCS Correlation Energy    =      -1.4774313191623627 [Eh]
	 SCS Total Energy          =    -310.2346266889061326 [Eh]
	-----------------------------------------------------------

  Dipole Moment: [D]
     X:     0.0088      Y:    -0.0036      Z:     0.0001     Total:     0.0095

*** Psi4 exiting successfully. Buy a developer a beer!
