                               Psi4 1.3.2 release

  ==> Input File <==

--------------------------------------------------------------------------
#psi4
#
memory 32 gb

molecule  {
0 1
  C       -3.3721060    -0.3925950    -0.0575320
  C        3.3720920    -0.3929730     0.0571420
  C       -3.9415050     1.0253280     0.0313370
  C        3.9413990     1.0251120    -0.0302390
  C       -1.9123883    -0.3857559     0.0120092
  C        1.9110920    -0.4103270     0.0325030
  C       -0.6837130    -0.4127480    -0.0120990
  C        0.6837810    -0.4128680     0.0116400
  H       -3.7516860    -0.9979840     0.7738320
  H       -3.7568819    -0.8693001    -0.9666262
  H        3.7518700    -0.9975380    -0.7747680
  H        3.7209340    -0.8772010     0.9767210
  H       -3.5935250     1.6324230    -0.8070360
  H       -3.6247440     1.5093170     0.9575960
  H       -5.0347610     1.0001480     0.0102760
  H        3.6246290     1.5100350    -0.9560070
  H        3.5933130     1.6313650     0.8087280
  H        5.0346230     0.9999160    -0.0090680
units angstrom
no_reorient  #important for SAPT in psi4, default
symmetry c1  #important for SAPT in psi4, default
}

set PROPERTIES_ORIGIN ["COM"]
properties('MP2/aug-cc-pvtz', properties = ['dipole'])
--------------------------------------------------------------------------

    Molecular point group: c1
  Charge       = 0
  Multiplicity = 1
  Basis Set: AUG-CC-PVTZ
    Blend: AUG-CC-PVTZ
  Basis Set: (AUG-CC-PVTZ AUX)
    Blend: AUG-CC-PVTZ-JKFIT

    Orbital Energies [Eh]
    ---------------------

    Doubly Occupied:

       1A    -11.257364     2A    -11.256924     3A    -11.246618
       4A    -11.246174     5A    -11.242383     6A    -11.241059
       7A    -11.227312     8A    -11.226310     9A     -1.094221
      10A     -1.079505    11A     -1.032725    12A     -0.973821
      13A     -0.889301    14A     -0.867292    15A     -0.786742
      16A     -0.659291    17A     -0.648295    18A     -0.630547
      19A     -0.628174    20A     -0.555707    21A     -0.552047
      22A     -0.525924    23A     -0.525744    24A     -0.517944
      25A     -0.513171    26A     -0.451796    27A     -0.450961
      28A     -0.328930    29A     -0.328220

  @DF-RHF Final Energy:  -308.76113603779055

   => Energetics <=

    Nuclear Repulsion Energy =            288.3459816525340784
    One-Electron Energy =                -986.2452287077588835
    Two-Electron Energy =                 389.1381110174342552
    Total Energy =                       -308.7611360377905498
  Basis Set: (AUG-CC-PVTZ AUX)
    Blend: AUG-CC-PVTZ-RI
    Molecular point group: c1

    Geometry (in Angstrom), charge = 0, multiplicity = 1:

       Center              X                  Y                   Z               Mass
    ------------   -----------------  -----------------  -----------------  -----------------
         C           -3.371609272422    -0.395374014416    -0.062725232287    12.000000000000
         C            3.372588727578    -0.395752014416     0.051948767713    12.000000000000
         C           -3.941008272422     1.022548985584     0.026143767713    12.000000000000
         C            3.941895727578     1.022332985584    -0.035432232287    12.000000000000
         C           -1.911891572422    -0.388534914416     0.006815967713    12.000000000000
         C            1.911588727578    -0.413106014416     0.027309767713    12.000000000000
         C           -0.683216272422    -0.415527014416    -0.017292232287    12.000000000000
         C            0.684277727578    -0.415647014416     0.006446767713    12.000000000000
         H           -3.751189272422    -1.000763014416     0.768638767713     1.007825032230
         H           -3.756385172422    -0.872079114416    -0.971819432287     1.007825032230
         H            3.752366727578    -1.000317014416    -0.779961232287     1.007825032230
         H            3.721430727578    -0.879980014416     0.971527767713     1.007825032230
         H           -3.593028272422     1.629643985584    -0.812229232287     1.007825032230
         H           -3.624247272422     1.506537985584     0.952402767713     1.007825032230
         H           -5.034264272422     0.997368985584     0.005082767713     1.007825032230
         H            3.625125727578     1.507255985584    -0.961200232287     1.007825032230
         H            3.593809727578     1.628585985584     0.803534767713     1.007825032230
         H            5.035119727578     0.997136985584    -0.014261232287     1.007825032230

  Basis Set: AUG-CC-PVTZ
    Blend: AUG-CC-PVTZ
  Basis Set: (AUG-CC-PVTZ AUX)
    Blend: AUG-CC-PVTZ-JKFIT
	 Reference Energy          =    -308.7611360377905498 [Eh]
	 Singles Energy            =      -0.0000000000000000 [Eh]
	 Same-Spin Energy          =      -0.3334475969626727 [Eh]
	 Opposite-Spin Energy      =      -1.1360261852992513 [Eh]
	 Correlation Energy        =      -1.4694737822619239 [Eh]
	 Total Energy              =    -310.2306098200524502 [Eh]

	 ================> DF-SCS-MP2 Energies <==================
	-----------------------------------------------------------
	 SCS Same-Spin Scale       =       0.3333333333333333 [-]
	 SCS Opposite-Spin Scale   =       1.2000000000000000 [-]
	 SCS Same-Spin Energy      =      -0.1111491989875576 [Eh]
	 SCS Opposite-Spin Energy  =      -1.3632314223591016 [Eh]
	 SCS Correlation Energy    =      -1.4743806213466590 [Eh]
	 SCS Total Energy          =    -310.2355166591372040 [Eh]
	-----------------------------------------------------------

  Dipole Moment: [D]
     X:     0.0337      Y:     0.2026      Z:    -0.0258     Total:     0.2070

*** Psi4 exiting successfully. Buy a developer a beer!
