                               Psi4 1.3.2 release

  ==> Input File <==

--------------------------------------------------------------------------
#psi4
#
memory 32 gb

molecule  {
0 1
  C       -3.3721060    -0.3925950    -0.0575320
  C        3.3720920    -0.3929730     0.0571420
  C       -3.9415050     1.0253280     0.0313370
  C        3.9413990     1.0251120    -0.0302390
  C       -1.9110240    -0.4097670    -0.0329750
  C        1.9110920    -0.4103270     0.0325030
  C       -0.6837130    -0.4127480    -0.0120990
  C        0.7837663    -0.4126610     0.0133396
  H       -3.7516860    -0.9979840     0.7738320
  H       -3.7208300    -0.8759060    -0.9776160
  H        3.7518700    -0.9975380    -0.7747680
  H        3.7209340    -0.8772010     0.9767210
  H       -3.5935250     1.6324230    -0.8070360
  H       -3.6247440     1.5093170     0.9575960
  H       -5.0347610     1.0001480     0.0102760
  H        3.6246290     1.5100350    -0.9560070
  H        3.5933130     1.6313650     0.8087280
  H        5.0346230     0.9999160    -0.0090680
units angstrom
no_reorient  #important for SAPT in psi4, default
symmetry c1  #important for SAPT in psi4, default
}

set PROPERTIES_ORIGIN ["COM"]
properties('MP2/aug-cc-pvtz', properties = ['dipole'])
--------------------------------------------------------------------------

    Molecular point group: c1
  Charge       = 0
  Multiplicity = 1
  Basis Set: AUG-CC-PVTZ
    Blend: AUG-CC-PVTZ
  Basis Set: (AUG-CC-PVTZ AUX)
    Blend: AUG-CC-PVTZ-JKFIT

    Orbital Energies [Eh]
    ---------------------

    Doubly Occupied:

       1A    -11.256709     2A    -11.251727     3A    -11.250962
       4A    -11.243754     5A    -11.226947     6A    -11.225543
       7A    -11.225334     8A    -11.213728     9A     -1.096558
      10A     -1.080489    11A     -1.028447    12A     -0.985597
      13A     -0.882599    14A     -0.869426    15A     -0.759174
      16A     -0.654724    17A     -0.643719    18A     -0.630074
      19A     -0.628118    20A     -0.555405    21A     -0.552801
      22A     -0.525213    23A     -0.523450    24A     -0.518116
      25A     -0.513792    26A     -0.450864    27A     -0.449878
      28A     -0.349343    29A     -0.348502

  @DF-RHF Final Energy:  -308.75302262008660

   => Energetics <=

    Nuclear Repulsion Energy =            288.7669304665117238
    One-Electron Energy =                -987.1579225254459971
    Two-Electron Energy =                 389.6379694388476196
    Total Energy =                       -308.7530226200865968
  Basis Set: (AUG-CC-PVTZ AUX)
    Blend: AUG-CC-PVTZ-RI
    Molecular point group: c1

    Geometry (in Angstrom), charge = 0, multiplicity = 1:

       Center              X                  Y                   Z               Mass
    ------------   -----------------  -----------------  -----------------  -----------------
         C           -3.383416869206    -0.392618437373    -0.057724292000    12.000000000000
         C            3.360781130794    -0.392996437373     0.056949708000    12.000000000000
         C           -3.952815869206     1.025304562627     0.031144708000    12.000000000000
         C            3.930088130794     1.025088562627    -0.030431292000    12.000000000000
         C           -1.922334869206    -0.409790437373    -0.033167292000    12.000000000000
         C            1.899781130794    -0.410350437373     0.032310708000    12.000000000000
         C           -0.695023869206    -0.412771437373    -0.012291292000    12.000000000000
         C            0.772455430794    -0.412684437373     0.013147308000    12.000000000000
         H           -3.762996869206    -0.998007437373     0.773639708000     1.007825032230
         H           -3.732140869206    -0.875929437373    -0.977808292000     1.007825032230
         H            3.740559130794    -0.997561437373    -0.774960292000     1.007825032230
         H            3.709623130794    -0.877224437373     0.976528708000     1.007825032230
         H           -3.604835869206     1.632399562627    -0.807228292000     1.007825032230
         H           -3.636054869206     1.509293562627     0.957403708000     1.007825032230
         H           -5.046071869206     1.000124562627     0.010083708000     1.007825032230
         H            3.613318130794     1.510011562627    -0.956199292000     1.007825032230
         H            3.582002130794     1.631341562627     0.808535708000     1.007825032230
         H            5.023312130794     0.999892562627    -0.009260292000     1.007825032230

  Basis Set: AUG-CC-PVTZ
    Blend: AUG-CC-PVTZ
  Basis Set: (AUG-CC-PVTZ AUX)
    Blend: AUG-CC-PVTZ-JKFIT
	 Reference Energy          =    -308.7530226200865968 [Eh]
	 Singles Energy            =      -0.0000000000000000 [Eh]
	 Same-Spin Energy          =      -0.3269491712197172 [Eh]
	 Opposite-Spin Energy      =      -1.1262993670601615 [Eh]
	 Correlation Energy        =      -1.4532485382798788 [Eh]
	 Total Energy              =    -310.2062711583664623 [Eh]

	 ================> DF-SCS-MP2 Energies <==================
	-----------------------------------------------------------
	 SCS Same-Spin Scale       =       0.3333333333333333 [-]
	 SCS Opposite-Spin Scale   =       1.2000000000000000 [-]
	 SCS Same-Spin Energy      =      -0.1089830570732391 [Eh]
	 SCS Opposite-Spin Energy  =      -1.3515592404721939 [Eh]
	 SCS Correlation Energy    =      -1.4605422975454330 [Eh]
	 SCS Total Energy          =    -310.2135649176320271 [Eh]
	-----------------------------------------------------------

  Dipole Moment: [D]
     X:    -0.0489      Y:     0.2131      Z:     0.0001     Total:     0.2186

*** Psi4 exiting successfully. Buy a developer a beer!
