                               Psi4 1.3.2 release

  ==> Input File <==

--------------------------------------------------------------------------
#psi4
#
memory 32 gb

molecule  {
0 1
  C       -3.3721060    -0.3925950    -0.0575320
  C        3.3720920    -0.3929730     0.0571420
  C       -3.9415050     1.0253280     0.0313370
  C        3.9413990     1.0251120    -0.0302390
  C       -1.9110240    -0.4097670    -0.0329750
  C        1.9110920    -0.4103270     0.0325030
  C       -0.6837130    -0.4127480    -0.0120990
  C        0.6837810    -0.4128680     0.0116400
  H       -3.7516860    -0.9979840     0.7738320
  H       -3.7208300    -0.8759060    -0.9776160
  H        3.8211556    -1.1078331    -0.9265392
  H        3.7209340    -0.8772010     0.9767210
  H       -3.5935250     1.6324230    -0.8070360
  H       -3.6247440     1.5093170     0.9575960
  H       -5.0347610     1.0001480     0.0102760
  H        3.6246290     1.5100350    -0.9560070
  H        3.5933130     1.6313650     0.8087280
  H        5.0346230     0.9999160    -0.0090680
units angstrom
no_reorient  #important for SAPT in psi4, default
symmetry c1  #important for SAPT in psi4, default
}

set PROPERTIES_ORIGIN ["COM"]
properties('MP2/aug-cc-pvtz', properties = ['dipole'])
--------------------------------------------------------------------------

    Molecular point group: c1
  Charge       = 0
  Multiplicity = 1
  Basis Set: AUG-CC-PVTZ
    Blend: AUG-CC-PVTZ
  Basis Set: (AUG-CC-PVTZ AUX)
    Blend: AUG-CC-PVTZ-JKFIT

    Orbital Energies [Eh]
    ---------------------

    Doubly Occupied:

       1A    -11.278829     2A    -11.257714     3A    -11.247369
       4A    -11.246771     5A    -11.243023     6A    -11.241601
       7A    -11.229065     8A    -11.227651     9A     -1.093476
      10A     -1.076894    11A     -1.031422    12A     -0.974560
      13A     -0.888925    14A     -0.864294    15A     -0.784607
      16A     -0.655535    17A     -0.646015    18A     -0.630744
      19A     -0.611003    20A     -0.557494    21A     -0.554674
      22A     -0.526104    23A     -0.524667    24A     -0.517256
      25A     -0.502081    26A     -0.452705    27A     -0.447322
      28A     -0.329727    29A     -0.327419

  @DF-RHF Final Energy:  -308.74258914628587

   => Energetics <=

    Nuclear Repulsion Energy =            287.5559457511815253
    One-Electron Energy =                -984.6591766975789142
    Two-Electron Energy =                 388.3606418001115230
    Total Energy =                       -308.7425891462858658
  Basis Set: (AUG-CC-PVTZ AUX)
    Blend: AUG-CC-PVTZ-RI
    Molecular point group: c1

    Geometry (in Angstrom), charge = 0, multiplicity = 1:

       Center              X                  Y                   Z               Mass
    ------------   -----------------  -----------------  -----------------  -----------------
         C           -3.372764394881    -0.391547132347    -0.056090083159    12.000000000000
         C            3.371433605119    -0.391925132347     0.058583916841    12.000000000000
         C           -3.942163394881     1.026375867653     0.032778916841    12.000000000000
         C            3.940740605119     1.026159867653    -0.028797083159    12.000000000000
         C           -1.911682394881    -0.408719132347    -0.031533083159    12.000000000000
         C            1.910433605119    -0.409279132347     0.033944916841    12.000000000000
         C           -0.684371394881    -0.411700132347    -0.010657083159    12.000000000000
         C            0.683122605119    -0.411820132347     0.013081916841    12.000000000000
         H           -3.752344394881    -0.996936132347     0.775273916841     1.007825032230
         H           -3.721488394881    -0.874858132347    -0.976174083159     1.007825032230
         H            3.820497205119    -1.106785232347    -0.925097283159     1.007825032230
         H            3.720275605119    -0.876153132347     0.978162916841     1.007825032230
         H           -3.594183394881     1.633470867653    -0.805594083159     1.007825032230
         H           -3.625402394881     1.510364867653     0.959037916841     1.007825032230
         H           -5.035419394881     1.001195867653     0.011717916841     1.007825032230
         H            3.623970605119     1.511082867653    -0.954565083159     1.007825032230
         H            3.592654605119     1.632412867653     0.810169916841     1.007825032230
         H            5.033964605119     1.000963867653    -0.007626083159     1.007825032230

  Basis Set: AUG-CC-PVTZ
    Blend: AUG-CC-PVTZ
  Basis Set: (AUG-CC-PVTZ AUX)
    Blend: AUG-CC-PVTZ-JKFIT
	 Reference Energy          =    -308.7425891462858658 [Eh]
	 Singles Energy            =      -0.0000000000000000 [Eh]
	 Same-Spin Energy          =      -0.3335014060852766 [Eh]
	 Opposite-Spin Energy      =      -1.1374329224373694 [Eh]
	 Correlation Energy        =      -1.4709343285226459 [Eh]
	 Total Energy              =    -310.2135234748085395 [Eh]

	 ================> DF-SCS-MP2 Energies <==================
	-----------------------------------------------------------
	 SCS Same-Spin Scale       =       0.3333333333333333 [-]
	 SCS Opposite-Spin Scale   =       1.2000000000000000 [-]
	 SCS Same-Spin Energy      =      -0.1111671353617588 [Eh]
	 SCS Opposite-Spin Energy  =      -1.3649195069248432 [Eh]
	 SCS Correlation Energy    =      -1.4760866422866021 [Eh]
	 SCS Total Energy          =    -310.2186757885724546 [Eh]
	-----------------------------------------------------------

  Dipole Moment: [D]
     X:    -0.1167      Y:     0.3104      Z:     0.0652     Total:     0.3380

*** Psi4 exiting successfully. Buy a developer a beer!
