                               Psi4 1.3.2 release

  ==> Input File <==

--------------------------------------------------------------------------
#psi4
#
memory 32 gb

molecule  {
0 1
  C       -3.3721060    -0.3925950    -0.0575320
  C        3.3720920    -0.3929730     0.0571420
  C       -3.9415050     1.0253280     0.0313370
  C        3.9413990     1.0251120    -0.0302390
  C       -2.0110030    -0.4085920    -0.0346554
  C        1.9110920    -0.4103270     0.0325030
  C       -0.6837130    -0.4127480    -0.0120990
  C        0.6837810    -0.4128680     0.0116400
  H       -3.7516860    -0.9979840     0.7738320
  H       -3.7208300    -0.8759060    -0.9776160
  H        3.7518700    -0.9975380    -0.7747680
  H        3.7209340    -0.8772010     0.9767210
  H       -3.5935250     1.6324230    -0.8070360
  H       -3.6247440     1.5093170     0.9575960
  H       -5.0347610     1.0001480     0.0102760
  H        3.6246290     1.5100350    -0.9560070
  H        3.5933130     1.6313650     0.8087280
  H        5.0346230     0.9999160    -0.0090680
units angstrom
no_reorient  #important for SAPT in psi4, default
symmetry c1  #important for SAPT in psi4, default
}

set PROPERTIES_ORIGIN ["COM"]
properties('MP2/aug-cc-pvtz', properties = ['dipole'])
--------------------------------------------------------------------------

    Molecular point group: c1
  Charge       = 0
  Multiplicity = 1
  Basis Set: AUG-CC-PVTZ
    Blend: AUG-CC-PVTZ
  Basis Set: (AUG-CC-PVTZ AUX)
    Blend: AUG-CC-PVTZ-JKFIT

    Orbital Energies [Eh]
    ---------------------

    Doubly Occupied:

       1A    -11.268747     2A    -11.266137     3A    -11.257354
       4A    -11.250875     5A    -11.246907     6A    -11.243118
       7A    -11.229762     8A    -11.227177     9A     -1.106160
      10A     -1.086133    11A     -1.029422    12A     -0.960036
      13A     -0.900932    14A     -0.867932    15A     -0.780721
      16A     -0.668371    17A     -0.649560    18A     -0.638902
      19A     -0.630167    20A     -0.564649    21A     -0.554818
      22A     -0.530949    23A     -0.525645    24A     -0.521903
      25A     -0.515737    26A     -0.443196    27A     -0.442798
      28A     -0.313521    29A     -0.312541

  @DF-RHF Final Energy:  -308.72365221265107

   => Energetics <=

    Nuclear Repulsion Energy =            288.0338124102352708
    One-Electron Energy =                -985.4465949059864442
    Two-Electron Energy =                 388.6891302831000417
    Total Energy =                       -308.7236522126510749
  Basis Set: (AUG-CC-PVTZ AUX)
    Blend: AUG-CC-PVTZ-RI
    Molecular point group: c1

    Geometry (in Angstrom), charge = 0, multiplicity = 1:

       Center              X                  Y                   Z               Mass
    ------------   -----------------  -----------------  -----------------  -----------------
         C           -3.360796100172    -0.392727941442    -0.057341932752    12.000000000000
         C            3.383401899828    -0.393105941442     0.057332067248    12.000000000000
         C           -3.930195100172     1.025195058558     0.031527067248    12.000000000000
         C            3.952708899828     1.024979058558    -0.030048932752    12.000000000000
         C           -1.999693100172    -0.408724941442    -0.034465332752    12.000000000000
         C            1.922401899828    -0.410459941442     0.032693067248    12.000000000000
         C           -0.672403100172    -0.412880941442    -0.011908932752    12.000000000000
         C            0.695090899828    -0.413000941442     0.011830067248    12.000000000000
         H           -3.740376100172    -0.998116941442     0.774022067248     1.007825032230
         H           -3.709520100172    -0.876038941442    -0.977425932752     1.007825032230
         H            3.763179899828    -0.997670941442    -0.774577932752     1.007825032230
         H            3.732243899828    -0.877333941442     0.976911067248     1.007825032230
         H           -3.582215100172     1.632290058558    -0.806845932752     1.007825032230
         H           -3.613434100172     1.509184058558     0.957786067248     1.007825032230
         H           -5.023451100172     1.000015058558     0.010466067248     1.007825032230
         H            3.635938899828     1.509902058558    -0.955816932752     1.007825032230
         H            3.604622899828     1.631232058558     0.808918067248     1.007825032230
         H            5.045932899828     0.999783058558    -0.008877932752     1.007825032230

  Basis Set: AUG-CC-PVTZ
    Blend: AUG-CC-PVTZ
  Basis Set: (AUG-CC-PVTZ AUX)
    Blend: AUG-CC-PVTZ-JKFIT
	 Reference Energy          =    -308.7236522126510749 [Eh]
	 Singles Energy            =      -0.0000000000000000 [Eh]
	 Same-Spin Energy          =      -0.3402077853434776 [Eh]
	 Opposite-Spin Energy      =      -1.1464207598542000 [Eh]
	 Correlation Energy        =      -1.4866285451976777 [Eh]
	 Total Energy              =    -310.2102807578487500 [Eh]

	 ================> DF-SCS-MP2 Energies <==================
	-----------------------------------------------------------
	 SCS Same-Spin Scale       =       0.3333333333333333 [-]
	 SCS Opposite-Spin Scale   =       1.2000000000000000 [-]
	 SCS Same-Spin Energy      =      -0.1134025951144925 [Eh]
	 SCS Opposite-Spin Energy  =      -1.3757049118250400 [Eh]
	 SCS Correlation Energy    =      -1.4891075069395325 [Eh]
	 SCS Total Energy          =    -310.2127597195906219 [Eh]
	-----------------------------------------------------------

  Dipole Moment: [D]
     X:    -0.0925      Y:     0.2245      Z:    -0.0015     Total:     0.2428

*** Psi4 exiting successfully. Buy a developer a beer!
