                               Psi4 1.3.2 release

  ==> Input File <==

--------------------------------------------------------------------------
#psi4
#
memory 32 gb

molecule  {
0 1
  C       -3.3721060    -0.3925950    -0.0575320
  C        3.3720920    -0.3929730     0.0571420
  C       -3.9415050     1.0253280     0.0313370
  C        3.9413990     1.0251120    -0.0302390
  C       -1.9137375    -0.3737516     0.0344729
  C        1.9110920    -0.4103270     0.0325030
  C       -0.6837130    -0.4127480    -0.0120990
  C        0.6837810    -0.4128680     0.0116400
  H       -3.7516860    -0.9979840     0.7738320
  H       -3.7747347    -0.8657789    -0.9607151
  H        3.7518700    -0.9975380    -0.7747680
  H        3.7209340    -0.8772010     0.9767210
  H       -3.5935250     1.6324230    -0.8070360
  H       -3.6247440     1.5093170     0.9575960
  H       -5.0347610     1.0001480     0.0102760
  H        3.6246290     1.5100350    -0.9560070
  H        3.5933130     1.6313650     0.8087280
  H        5.0346230     0.9999160    -0.0090680
units angstrom
no_reorient  #important for SAPT in psi4, default
symmetry c1  #important for SAPT in psi4, default
}

set PROPERTIES_ORIGIN ["COM"]
properties('MP2/aug-cc-pvtz', properties = ['dipole'])
--------------------------------------------------------------------------

    Molecular point group: c1
  Charge       = 0
  Multiplicity = 1
  Basis Set: AUG-CC-PVTZ
    Blend: AUG-CC-PVTZ
  Basis Set: (AUG-CC-PVTZ AUX)
    Blend: AUG-CC-PVTZ-JKFIT

    Orbital Energies [Eh]
    ---------------------

    Doubly Occupied:

       1A    -11.257553     2A    -11.256803     3A    -11.247466
       4A    -11.246535     5A    -11.243309     6A    -11.241424
       7A    -11.227429     8A    -11.225858     9A     -1.094336
      10A     -1.079627    11A     -1.032853    12A     -0.973684
      13A     -0.889072    14A     -0.866866    15A     -0.786994
      16A     -0.660947    17A     -0.649034    18A     -0.630641
      19A     -0.627074    20A     -0.555738    21A     -0.551054
      22A     -0.525993    23A     -0.525873    24A     -0.517815
      25A     -0.512377    26A     -0.451797    27A     -0.450804
      28A     -0.328969    29A     -0.328130

  @DF-RHF Final Energy:  -308.75955271734881

   => Energetics <=

    Nuclear Repulsion Energy =            288.3306325774173047
    One-Electron Energy =                -986.2082562618876409
    Two-Electron Energy =                 389.1180709671215254
    Total Energy =                       -308.7595527173488108
  Basis Set: (AUG-CC-PVTZ AUX)
    Blend: AUG-CC-PVTZ-RI
    Molecular point group: c1

    Geometry (in Angstrom), charge = 0, multiplicity = 1:

       Center              X                  Y                   Z               Mass
    ------------   -----------------  -----------------  -----------------  -----------------
         C           -3.371287030128    -0.396765443414    -0.065322576735    12.000000000000
         C            3.372910969872    -0.397143443414     0.049351423265    12.000000000000
         C           -3.940686030128     1.021157556586     0.023546423265    12.000000000000
         C            3.942217969872     1.020941556586    -0.038029576735    12.000000000000
         C           -1.912918530128    -0.377922043414     0.026682323265    12.000000000000
         C            1.911910969872    -0.414497443414     0.024712423265    12.000000000000
         C           -0.682894030128    -0.416918443414    -0.019889576735    12.000000000000
         C            0.684599969872    -0.417038443414     0.003849423265    12.000000000000
         H           -3.750867030128    -1.002154443414     0.766041423265     1.007825032230
         H           -3.773915730128    -0.869949343414    -0.968505676735     1.007825032230
         H            3.752688969872    -1.001708443414    -0.782558576735     1.007825032230
         H            3.721752969872    -0.881371443414     0.968930423265     1.007825032230
         H           -3.592706030128     1.628252556586    -0.814826576735     1.007825032230
         H           -3.623925030128     1.505146556586     0.949805423265     1.007825032230
         H           -5.033942030128     0.995977556586     0.002485423265     1.007825032230
         H            3.625447969872     1.505864556586    -0.963797576735     1.007825032230
         H            3.594131969872     1.627194556586     0.800937423265     1.007825032230
         H            5.035441969872     0.995745556586    -0.016858576735     1.007825032230

  Basis Set: AUG-CC-PVTZ
    Blend: AUG-CC-PVTZ
  Basis Set: (AUG-CC-PVTZ AUX)
    Blend: AUG-CC-PVTZ-JKFIT
	 Reference Energy          =    -308.7595527173488108 [Eh]
	 Singles Energy            =      -0.0000000000000000 [Eh]
	 Same-Spin Energy          =      -0.3336369384475744 [Eh]
	 Opposite-Spin Energy      =      -1.1363983160727424 [Eh]
	 Correlation Energy        =      -1.4700352545203168 [Eh]
	 Total Energy              =    -310.2295879718691367 [Eh]

	 ================> DF-SCS-MP2 Energies <==================
	-----------------------------------------------------------
	 SCS Same-Spin Scale       =       0.3333333333333333 [-]
	 SCS Opposite-Spin Scale   =       1.2000000000000000 [-]
	 SCS Same-Spin Energy      =      -0.1112123128158581 [Eh]
	 SCS Opposite-Spin Energy  =      -1.3636779792872908 [Eh]
	 SCS Correlation Energy    =      -1.4748902921031490 [Eh]
	 SCS Total Energy          =    -310.2344430094519794 [Eh]
	-----------------------------------------------------------

  Dipole Moment: [D]
     X:     0.0586      Y:     0.1911      Z:    -0.0385     Total:     0.2036

*** Psi4 exiting successfully. Buy a developer a beer!
