                               Psi4 1.3.2 release

  ==> Input File <==

--------------------------------------------------------------------------
#psi4
#
memory 32 gb

molecule  {
0 1
  C       -3.3721060    -0.3925950    -0.0575320
  C        3.3720920    -0.3929730     0.0571420
  C       -3.9662086     1.0152275     0.0301970
  C        3.9413990     1.0251120    -0.0302390
  C       -1.9115156    -0.4352056    -0.0347581
  C        1.9110920    -0.4103270     0.0325030
  C       -0.6837130    -0.4127480    -0.0120990
  C        0.6837810    -0.4128680     0.0116400
  H       -3.7516860    -0.9979840     0.7738320
  H       -3.7208300    -0.8759060    -0.9776160
  H        3.7518700    -0.9975380    -0.7747680
  H        3.7209340    -0.8772010     0.9767210
  H       -3.5935250     1.6324230    -0.8070360
  H       -3.6247440     1.5093170     0.9575960
  H       -5.0347610     1.0001480     0.0102760
  H        3.6246290     1.5100350    -0.9560070
  H        3.5933130     1.6313650     0.8087280
  H        5.0346230     0.9999160    -0.0090680
units angstrom
no_reorient  #important for SAPT in psi4, default
symmetry c1  #important for SAPT in psi4, default
}

set PROPERTIES_ORIGIN ["COM"]
properties('MP2/aug-cc-pvtz', properties = ['dipole'])
--------------------------------------------------------------------------

    Molecular point group: c1
  Charge       = 0
  Multiplicity = 1
  Basis Set: AUG-CC-PVTZ
    Blend: AUG-CC-PVTZ
  Basis Set: (AUG-CC-PVTZ AUX)
    Blend: AUG-CC-PVTZ-JKFIT

    Orbital Energies [Eh]
    ---------------------

    Doubly Occupied:

       1A    -11.257229     2A    -11.256978     3A    -11.246358
       4A    -11.245943     5A    -11.241969     6A    -11.240802
       7A    -11.227548     8A    -11.227280     9A     -1.093918
      10A     -1.079076    11A     -1.032538    12A     -0.974149
      13A     -0.890673    14A     -0.868433    15A     -0.786264
      16A     -0.656293    17A     -0.646400    18A     -0.630431
      19A     -0.627633    20A     -0.561506    21A     -0.554923
      22A     -0.526303    23A     -0.525591    24A     -0.517216
      25A     -0.510160    26A     -0.451756    27A     -0.450792
      28A     -0.329164    29A     -0.327849

  @DF-RHF Final Energy:  -308.76142550906701

   => Energetics <=

    Nuclear Repulsion Energy =            288.1552372509387396
    One-Electron Energy =                -985.8629727652231622
    Two-Electron Energy =                 388.9463100052174127
    Total Energy =                       -308.7614255090670099
  Basis Set: (AUG-CC-PVTZ AUX)
    Blend: AUG-CC-PVTZ-RI
    Molecular point group: c1

    Geometry (in Angstrom), charge = 0, multiplicity = 1:

       Center              X                  Y                   Z               Mass
    ------------   -----------------  -----------------  -----------------  -----------------
         C           -3.369255945591    -0.388574694205    -0.057201353511    12.000000000000
         C            3.374942054409    -0.388952694205     0.057472646489    12.000000000000
         C           -3.963358545591     1.019247805795     0.030527646489    12.000000000000
         C            3.944249054409     1.029132305795    -0.029908353511    12.000000000000
         C           -1.908665545591    -0.431185294205    -0.034427453511    12.000000000000
         C            1.913942054409    -0.406306694205     0.032833646489    12.000000000000
         C           -0.680862945591    -0.408727694205    -0.011768353511    12.000000000000
         C            0.686631054409    -0.408847694205     0.011970646489    12.000000000000
         H           -3.748835945591    -0.993963694205     0.774162646489     1.007825032230
         H           -3.717979945591    -0.871885694205    -0.977285353511     1.007825032230
         H            3.754720054409    -0.993517694205    -0.774437353511     1.007825032230
         H            3.723784054409    -0.873180694205     0.977051646489     1.007825032230
         H           -3.590674945591     1.636443305795    -0.806705353511     1.007825032230
         H           -3.621893945591     1.513337305795     0.957926646489     1.007825032230
         H           -5.031910945591     1.004168305795     0.010606646489     1.007825032230
         H            3.627479054409     1.514055305795    -0.955676353511     1.007825032230
         H            3.596163054409     1.635385305795     0.809058646489     1.007825032230
         H            5.037473054409     1.003936305795    -0.008737353511     1.007825032230

  Basis Set: AUG-CC-PVTZ
    Blend: AUG-CC-PVTZ
  Basis Set: (AUG-CC-PVTZ AUX)
    Blend: AUG-CC-PVTZ-JKFIT
	 Reference Energy          =    -308.7614255090670099 [Eh]
	 Singles Energy            =      -0.0000000000000000 [Eh]
	 Same-Spin Energy          =      -0.3333163475199951 [Eh]
	 Opposite-Spin Energy      =      -1.1358793267366800 [Eh]
	 Correlation Energy        =      -1.4691956742566750 [Eh]
	 Total Energy              =    -310.2306211833237057 [Eh]

	 ================> DF-SCS-MP2 Energies <==================
	-----------------------------------------------------------
	 SCS Same-Spin Scale       =       0.3333333333333333 [-]
	 SCS Opposite-Spin Scale   =       1.2000000000000000 [-]
	 SCS Same-Spin Energy      =      -0.1111054491733317 [Eh]
	 SCS Opposite-Spin Energy  =      -1.3630551920840159 [Eh]
	 SCS Correlation Energy    =      -1.4741606412573476 [Eh]
	 SCS Total Energy          =    -310.2355861503243659 [Eh]
	-----------------------------------------------------------

  Dipole Moment: [D]
     X:     0.0058      Y:     0.2418      Z:     0.0014     Total:     0.2419

*** Psi4 exiting successfully. Buy a developer a beer!
