                               Psi4 1.3.2 release

  ==> Input File <==

--------------------------------------------------------------------------
#psi4
#
memory 32 gb

molecule  {
0 1
  C       -3.3721060    -0.3925950    -0.0575320
  C        3.3720920    -0.3929730     0.0571420
  C       -3.9538789     1.0203316     0.0307704
  C        3.9413990     1.0251120    -0.0302390
  C       -1.9112142    -0.4224874    -0.0338657
  C        1.9110920    -0.4103270     0.0325030
  C       -0.6837130    -0.4127480    -0.0120990
  C        0.6837810    -0.4128680     0.0116400
  H       -3.7516860    -0.9979840     0.7738320
  H       -3.7208300    -0.8759060    -0.9776160
  H        3.7518700    -0.9975380    -0.7747680
  H        3.7209340    -0.8772010     0.9767210
  H       -3.5935250     1.6324230    -0.8070360
  H       -3.6247440     1.5093170     0.9575960
  H       -5.0347610     1.0001480     0.0102760
  H        3.6246290     1.5100350    -0.9560070
  H        3.5933130     1.6313650     0.8087280
  H        5.0346230     0.9999160    -0.0090680
units angstrom
no_reorient  #important for SAPT in psi4, default
symmetry c1  #important for SAPT in psi4, default
}

set PROPERTIES_ORIGIN ["COM"]
properties('MP2/aug-cc-pvtz', properties = ['dipole'])
--------------------------------------------------------------------------

    Molecular point group: c1
  Charge       = 0
  Multiplicity = 1
  Basis Set: AUG-CC-PVTZ
    Blend: AUG-CC-PVTZ
  Basis Set: (AUG-CC-PVTZ AUX)
    Blend: AUG-CC-PVTZ-JKFIT

    Orbital Energies [Eh]
    ---------------------

    Doubly Occupied:

       1A    -11.257160     2A    -11.257031     3A    -11.246017
       4A    -11.245791     5A    -11.241707     6A    -11.240609
       7A    -11.227320     8A    -11.227212     9A     -1.093963
      10A     -1.079196    11A     -1.032487    12A     -0.973979
      13A     -0.890289    14A     -0.868219    15A     -0.786243
      16A     -0.656462    17A     -0.646465    18A     -0.630475
      19A     -0.628666    20A     -0.558165    21A     -0.554598
      22A     -0.526232    23A     -0.525614    24A     -0.517574
      25A     -0.512470    26A     -0.451739    27A     -0.450868
      28A     -0.329000    29A     -0.327897

  @DF-RHF Final Energy:  -308.76223537212945

   => Energetics <=

    Nuclear Repulsion Energy =            288.2463197374347033
    One-Electron Energy =                -986.0502117885872622
    Two-Electron Energy =                 389.0416566790231627
    Total Energy =                       -308.7622353721294530
  Basis Set: (AUG-CC-PVTZ AUX)
    Blend: AUG-CC-PVTZ-RI
    Molecular point group: c1

    Geometry (in Angstrom), charge = 0, multiplicity = 1:

       Center              X                  Y                   Z               Mass
    ------------   -----------------  -----------------  -----------------  -----------------
         C           -3.370684826625    -0.390590824744    -0.057367170725    12.000000000000
         C            3.373513173375    -0.390968824744     0.057306829275    12.000000000000
         C           -3.952457726625     1.022335775256     0.030935229275    12.000000000000
         C            3.942820173375     1.027116175256    -0.030074170725    12.000000000000
         C           -1.909793026625    -0.420483224744    -0.033700870725    12.000000000000
         C            1.912513173375    -0.408322824744     0.032667829275    12.000000000000
         C           -0.682291826625    -0.410743824744    -0.011934170725    12.000000000000
         C            0.685202173375    -0.410863824744     0.011804829275    12.000000000000
         H           -3.750264826625    -0.995979824744     0.773996829275     1.007825032230
         H           -3.719408826625    -0.873901824744    -0.977451170725     1.007825032230
         H            3.753291173375    -0.995533824744    -0.774603170725     1.007825032230
         H            3.722355173375    -0.875196824744     0.976885829275     1.007825032230
         H           -3.592103826625     1.634427175256    -0.806871170725     1.007825032230
         H           -3.623322826625     1.511321175256     0.957760829275     1.007825032230
         H           -5.033339826625     1.002152175256     0.010440829275     1.007825032230
         H            3.626050173375     1.512039175256    -0.955842170725     1.007825032230
         H            3.594734173375     1.633369175256     0.808892829275     1.007825032230
         H            5.036044173375     1.001920175256    -0.008903170725     1.007825032230

  Basis Set: AUG-CC-PVTZ
    Blend: AUG-CC-PVTZ
  Basis Set: (AUG-CC-PVTZ AUX)
    Blend: AUG-CC-PVTZ-JKFIT
	 Reference Energy          =    -308.7622353721294530 [Eh]
	 Singles Energy            =      -0.0000000000000000 [Eh]
	 Same-Spin Energy          =      -0.3332858899120371 [Eh]
	 Opposite-Spin Energy      =      -1.1357769788409051 [Eh]
	 Correlation Energy        =      -1.4690628687529421 [Eh]
	 Total Energy              =    -310.2312982408823814 [Eh]

	 ================> DF-SCS-MP2 Energies <==================
	-----------------------------------------------------------
	 SCS Same-Spin Scale       =       0.3333333333333333 [-]
	 SCS Opposite-Spin Scale   =       1.2000000000000000 [-]
	 SCS Same-Spin Energy      =      -0.1110952966373457 [Eh]
	 SCS Opposite-Spin Energy  =      -1.3629323746090860 [Eh]
	 SCS Correlation Energy    =      -1.4740276712464317 [Eh]
	 SCS Total Energy          =    -310.2362630433758568 [Eh]
	-----------------------------------------------------------

  Dipole Moment: [D]
     X:     0.0017      Y:     0.2341      Z:     0.0008     Total:     0.2341

*** Psi4 exiting successfully. Buy a developer a beer!
