                               Psi4 1.4a3.dev225

  ==> Input File <==

--------------------------------------------------------------------------
#psi4
#
memory 32 gb

molecule  {
0 1
  C       -3.3104600     0.6645600    -0.0001290
  C        3.3104610    -0.6645590    -0.0001300
  C       -4.1189600    -0.6381980     0.0003020
  C        4.1189570     0.6382020     0.0003020
  C       -1.9171787     0.4307857    -0.0001416
  C        1.8678690    -0.4225150    -0.0001410
  C       -0.6717070     0.1376470    -0.0001380
  C        0.6717080    -0.1376500    -0.0001380
  H       -3.5746830     1.2664600    -0.8780670
  H       -3.5745810     1.2669770     0.8774850
  H        3.5746860    -1.2664580    -0.8780680
  H        3.5745850    -1.2669760     0.8774840
  H       -3.8858290    -1.2341430     0.8855450
  H       -3.8859300    -1.2346660    -0.8846160
  H       -5.1908980    -0.4200070     0.0002980
  H        3.8859240     1.2346690    -0.8846160
  H        3.8858250     1.2341450     0.8855460
  H        5.1908960     0.4200140     0.0002970
units angstrom
no_reorient  #important for SAPT in psi4, default
symmetry c1  #important for SAPT in psi4, default
}

set PROPERTIES_ORIGIN ["COM"]
properties('MP2/aug-cc-pvtz', properties = ['dipole'])
--------------------------------------------------------------------------

    Molecular point group: c1
  Charge       = 0
  Multiplicity = 1
  Basis Set: AUG-CC-PVTZ
    Blend: AUG-CC-PVTZ
  Basis Set: (AUG-CC-PVTZ AUX)
    Blend: AUG-CC-PVTZ-JKFIT

    Orbital Energies [Eh]
    ---------------------

    Doubly Occupied:

       1A    -11.258622     2A    -11.257920     3A    -11.255389
       4A    -11.254382     5A    -11.247392     6A    -11.243365
       7A    -11.228497     8A    -11.227571     9A     -1.096707
      10A     -1.083116    11A     -1.029884    12A     -0.965927
      13A     -0.894815    14A     -0.868808    15A     -0.783552
      16A     -0.661544    17A     -0.647403    18A     -0.633488
      19A     -0.629598    20A     -0.560105    21A     -0.553595
      22A     -0.528410    23A     -0.525517    24A     -0.519480
      25A     -0.515201    26A     -0.446330    27A     -0.446019
      28A     -0.321385    29A     -0.320604

  @DF-RHF Final Energy:  -308.74731561847915

   => Energetics <=

    Nuclear Repulsion Energy =            287.8210377067431409
    One-Electron Energy =                -985.1274542212189544
    Two-Electron Energy =                 388.5591008959966643
    Total Energy =                       -308.7473156184791492
  Basis Set: (AUG-CC-PVTZ AUX)
    Blend: AUG-CC-PVTZ-RI
    Molecular point group: c1

    Geometry (in Angstrom), charge = 0, multiplicity = 1:

       Center              X                  Y                   Z               Mass
    ------------   -----------------  -----------------  -----------------  -----------------
         C           -3.304881727005     0.663624016261    -0.000117073697    12.000000000000
         C            3.316039272995    -0.665494983739    -0.000118073697    12.000000000000
         C           -4.113381727005    -0.639133983739     0.000313926303    12.000000000000
         C            4.124535272995     0.637266016261     0.000313926303    12.000000000000
         C           -1.911600427005     0.429849716261    -0.000129673697    12.000000000000
         C            1.873447272995    -0.423450983739    -0.000129073697    12.000000000000
         C           -0.666128727005     0.136711016261    -0.000126073697    12.000000000000
         C            0.677286272995    -0.138585983739    -0.000126073697    12.000000000000
         H           -3.569104727005     1.265524016261    -0.878055073697     1.007825032230
         H           -3.569002727005     1.266041016261     0.877496926303     1.007825032230
         H            3.580264272995    -1.267393983739    -0.878056073697     1.007825032230
         H            3.580163272995    -1.267911983739     0.877495926303     1.007825032230
         H           -3.880250727005    -1.235078983739     0.885556926303     1.007825032230
         H           -3.880351727005    -1.235601983739    -0.884604073697     1.007825032230
         H           -5.185319727005    -0.420942983739     0.000309926303     1.007825032230
         H            3.891502272995     1.233733016261    -0.884604073697     1.007825032230
         H            3.891403272995     1.233209016261     0.885557926303     1.007825032230
         H            5.196474272995     0.419078016261     0.000308926303     1.007825032230

  Basis Set: AUG-CC-PVTZ
    Blend: AUG-CC-PVTZ
  Basis Set: (AUG-CC-PVTZ AUX)
    Blend: AUG-CC-PVTZ-JKFIT
	 Reference Energy          =    -308.7473156184791492 [Eh]
	 Singles Energy            =      -0.0000000000000000 [Eh]
	 Same-Spin Energy          =      -0.3366975721018758 [Eh]
	 Opposite-Spin Energy      =      -1.1413160592636400 [Eh]
	 Correlation Energy        =      -1.4780136313655159 [Eh]
	 Total Energy              =    -310.2253292498446626 [Eh]

	 ================> DF-SCS-MP2 Energies <==================
	-----------------------------------------------------------
	 SCS Same-Spin Scale       =       0.3333333333333333 [-]
	 SCS Opposite-Spin Scale   =       1.2000000000000000 [-]
	 SCS Same-Spin Energy      =      -0.1122325240339586 [Eh]
	 SCS Opposite-Spin Energy  =      -1.3695792711163679 [Eh]
	 SCS Correlation Energy    =      -1.4818117951503265 [Eh]
	 SCS Total Energy          =    -310.2291274136294987 [Eh]
	-----------------------------------------------------------

  Dipole Moment: [D]
     X:    -0.0304      Y:     0.0100      Z:     0.0001     Total:     0.0320

*** Psi4 exiting successfully. Buy a developer a beer!
