                               Psi4 1.3.2 release

  ==> Input File <==

--------------------------------------------------------------------------
#psi4
#
memory 32 gb

molecule  {
0 1
  C       -3.3657127    -0.3892601    -0.0687749
  C        3.3720920    -0.3929730     0.0571420
  C       -3.9415050     1.0253280     0.0313370
  C        3.9413990     1.0251120    -0.0302390
  C       -1.9110240    -0.4097670    -0.0329750
  C        1.9110920    -0.4103270     0.0325030
  C       -0.6837130    -0.4127480    -0.0120990
  C        0.6837810    -0.4128680     0.0116400
  H       -3.7516860    -0.9979840     0.7738320
  H       -3.7208300    -0.8759060    -0.9776160
  H        3.7518700    -0.9975380    -0.7747680
  H        3.7209340    -0.8772010     0.9767210
  H       -3.5886092     1.6249600    -0.8103457
  H       -3.6247440     1.5093170     0.9575960
  H       -5.0347610     1.0001480     0.0102760
  H        3.6246290     1.5100350    -0.9560070
  H        3.5933130     1.6313650     0.8087280
  H        5.0346230     0.9999160    -0.0090680
units angstrom
no_reorient  #important for SAPT in psi4, default
symmetry c1  #important for SAPT in psi4, default
}

set PROPERTIES_ORIGIN ["COM"]
properties('MP2/aug-cc-pvtz', properties = ['dipole'])
--------------------------------------------------------------------------

    Molecular point group: c1
  Charge       = 0
  Multiplicity = 1
  Basis Set: AUG-CC-PVTZ
    Blend: AUG-CC-PVTZ
  Basis Set: (AUG-CC-PVTZ AUX)
    Blend: AUG-CC-PVTZ-JKFIT

    Orbital Energies [Eh]
    ---------------------

    Doubly Occupied:

       1A    -11.257166     2A    -11.256939     3A    -11.245849
       4A    -11.245624     5A    -11.241645     6A    -11.240572
       7A    -11.227205     8A    -11.227188     9A     -1.094408
      10A     -1.079719    11A     -1.032492    12A     -0.973902
      13A     -0.890193    14A     -0.868021    15A     -0.786165
      16A     -0.657314    17A     -0.647142    18A     -0.630548
      19A     -0.629014    20A     -0.556599    21A     -0.554012
      22A     -0.525635    23A     -0.525471    24A     -0.518151
      25A     -0.513840    26A     -0.451676    27A     -0.450629
      28A     -0.328866    29A     -0.327813

  @DF-RHF Final Energy:  -308.76211714855754

   => Energetics <=

    Nuclear Repulsion Energy =            288.4187561195044509
    One-Electron Energy =                -986.3941484249961604
    Two-Electron Energy =                 389.2132751569341735
    Total Energy =                       -308.7621171485575360
  Basis Set: (AUG-CC-PVTZ AUX)
    Blend: AUG-CC-PVTZ-RI
    Molecular point group: c1

    Geometry (in Angstrom), charge = 0, multiplicity = 1:

       Center              X                  Y                   Z               Mass
    ------------   -----------------  -----------------  -----------------  -----------------
         C           -3.366482768143    -0.389566473806    -0.067471639443    12.000000000000
         C            3.371321931857    -0.393279373806     0.058445260557    12.000000000000
         C           -3.942275068143     1.025021626194     0.032640260557    12.000000000000
         C            3.940628931857     1.024805626194    -0.028935739443    12.000000000000
         C           -1.911794068143    -0.410073373806    -0.031671739443    12.000000000000
         C            1.910321931857    -0.410633373806     0.033806260557    12.000000000000
         C           -0.684483068143    -0.413054373806    -0.010795739443    12.000000000000
         C            0.683010931857    -0.413174373806     0.012943260557    12.000000000000
         H           -3.752456068143    -0.998290373806     0.775135260557     1.007825032230
         H           -3.721600068143    -0.876212373806    -0.976312739443     1.007825032230
         H            3.751099931857    -0.997844373806    -0.773464739443     1.007825032230
         H            3.720163931857    -0.877507373806     0.978024260557     1.007825032230
         H           -3.589379268143     1.624653626194    -0.809042439443     1.007825032230
         H           -3.625514068143     1.509010626194     0.958899260557     1.007825032230
         H           -5.035531068143     0.999841626194     0.011579260557     1.007825032230
         H            3.623858931857     1.509728626194    -0.954703739443     1.007825032230
         H            3.592542931857     1.631058626194     0.810031260557     1.007825032230
         H            5.033852931857     0.999609626194    -0.007764739443     1.007825032230

  Basis Set: AUG-CC-PVTZ
    Blend: AUG-CC-PVTZ
  Basis Set: (AUG-CC-PVTZ AUX)
    Blend: AUG-CC-PVTZ-JKFIT
	 Reference Energy          =    -308.7621171485575360 [Eh]
	 Singles Energy            =      -0.0000000000000000 [Eh]
	 Same-Spin Energy          =      -0.3333829982120917 [Eh]
	 Opposite-Spin Energy      =      -1.1358370449600583 [Eh]
	 Correlation Energy        =      -1.4692200431721500 [Eh]
	 Total Energy              =    -310.2313371917296649 [Eh]

	 ================> DF-SCS-MP2 Energies <==================
	-----------------------------------------------------------
	 SCS Same-Spin Scale       =       0.3333333333333333 [-]
	 SCS Opposite-Spin Scale   =       1.2000000000000000 [-]
	 SCS Same-Spin Energy      =      -0.1111276660706972 [Eh]
	 SCS Opposite-Spin Energy  =      -1.3630044539520700 [Eh]
	 SCS Correlation Energy    =      -1.4741321200227673 [Eh]
	 SCS Total Energy          =    -310.2362492685803090 [Eh]
	-----------------------------------------------------------

  Dipole Moment: [D]
     X:     0.0086      Y:     0.2261      Z:    -0.0075     Total:     0.2264

*** Psi4 exiting successfully. Buy a developer a beer!
