                               Psi4 1.3.2 release

  ==> Input File <==

--------------------------------------------------------------------------
#psi4
#
memory 32 gb

molecule  {
0 1
  C       -3.3721060    -0.3925950    -0.0575320
  C        3.3720920    -0.3929730     0.0571420
  C       -3.9415050     1.0253280     0.0313370
  C        3.9413990     1.0251120    -0.0302390
  C       -1.9110240    -0.4097670    -0.0329750
  C        1.9110920    -0.4103270     0.0325030
  C       -0.6837130    -0.4127480    -0.0120990
  C        0.6837810    -0.4128680     0.0116400
  H       -3.7516860    -0.9979840     0.7738320
  H       -3.6572084    -0.7877303    -0.8097549
  H        3.7518700    -0.9975380    -0.7747680
  H        3.7209340    -0.8772010     0.9767210
  H       -3.5935250     1.6324230    -0.8070360
  H       -3.6247440     1.5093170     0.9575960
  H       -5.0347610     1.0001480     0.0102760
  H        3.6246290     1.5100350    -0.9560070
  H        3.5933130     1.6313650     0.8087280
  H        5.0346230     0.9999160    -0.0090680
units angstrom
no_reorient  #important for SAPT in psi4, default
symmetry c1  #important for SAPT in psi4, default
}

set PROPERTIES_ORIGIN ["COM"]
properties('MP2/aug-cc-pvtz', properties = ['dipole'])
--------------------------------------------------------------------------

    Molecular point group: c1
  Charge       = 0
  Multiplicity = 1
  Basis Set: AUG-CC-PVTZ
    Blend: AUG-CC-PVTZ
  Basis Set: (AUG-CC-PVTZ AUX)
    Blend: AUG-CC-PVTZ-JKFIT

    Orbital Energies [Eh]
    ---------------------

    Doubly Occupied:

       1A    -11.256938     2A    -11.245427     3A    -11.244889
       4A    -11.241099     5A    -11.239966     6A    -11.233085
       7A    -11.227014     8A    -11.226080     9A     -1.100081
      10A     -1.084154    11A     -1.035399    12A     -0.974028
      13A     -0.895630    14A     -0.874289    15A     -0.790504
      16A     -0.673372    17A     -0.650715    18A     -0.639042
      19A     -0.629952    20A     -0.555774    21A     -0.553124
      22A     -0.532716    23A     -0.525418    24A     -0.520264
      25A     -0.515682    26A     -0.452992    27A     -0.451121
      28A     -0.329124    29A     -0.328145

  @DF-RHF Final Energy:  -308.72942614814679

   => Energetics <=

    Nuclear Repulsion Energy =            289.3350998785504657
    One-Electron Energy =                -988.0770092433613172
    Two-Electron Energy =                 390.0124832166641227
    Total Energy =                       -308.7294261481467856
  Basis Set: (AUG-CC-PVTZ AUX)
    Blend: AUG-CC-PVTZ-RI
    Molecular point group: c1

    Geometry (in Angstrom), charge = 0, multiplicity = 1:

       Center              X                  Y                   Z               Mass
    ------------   -----------------  -----------------  -----------------  -----------------
         C           -3.372710582521    -0.393432757721    -0.059126836047    12.000000000000
         C            3.371487417479    -0.393810757721     0.055547163953    12.000000000000
         C           -3.942109582521     1.024490242279     0.029742163953    12.000000000000
         C            3.940794417479     1.024274242279    -0.031833836047    12.000000000000
         C           -1.911628582521    -0.410604757721    -0.034569836047    12.000000000000
         C            1.910487417479    -0.411164757721     0.030908163953    12.000000000000
         C           -0.684317582521    -0.413585757721    -0.013693836047    12.000000000000
         C            0.683176417479    -0.413705757721     0.010045163953    12.000000000000
         H           -3.752290582521    -0.998821757721     0.772237163953     1.007825032230
         H           -3.657812982521    -0.788568057721    -0.811349736047     1.007825032230
         H            3.751265417479    -0.998375757721    -0.776362836047     1.007825032230
         H            3.720329417479    -0.878038757721     0.975126163953     1.007825032230
         H           -3.594129582521     1.631585242279    -0.808630836047     1.007825032230
         H           -3.625348582521     1.508479242279     0.956001163953     1.007825032230
         H           -5.035365582521     0.999310242279     0.008681163953     1.007825032230
         H            3.624024417479     1.509197242279    -0.957601836047     1.007825032230
         H            3.592708417479     1.630527242279     0.807133163953     1.007825032230
         H            5.034018417479     0.999078242279    -0.010662836047     1.007825032230

  Basis Set: AUG-CC-PVTZ
    Blend: AUG-CC-PVTZ
  Basis Set: (AUG-CC-PVTZ AUX)
    Blend: AUG-CC-PVTZ-JKFIT
	 Reference Energy          =    -308.7294261481467856 [Eh]
	 Singles Energy            =      -0.0000000000000000 [Eh]
	 Same-Spin Energy          =      -0.3332349560839987 [Eh]
	 Opposite-Spin Energy      =      -1.1351682808465964 [Eh]
	 Correlation Energy        =      -1.4684032369305950 [Eh]
	 Total Energy              =    -310.1978293850773980 [Eh]

	 ================> DF-SCS-MP2 Energies <==================
	-----------------------------------------------------------
	 SCS Same-Spin Scale       =       0.3333333333333333 [-]
	 SCS Opposite-Spin Scale   =       1.2000000000000000 [-]
	 SCS Same-Spin Energy      =      -0.1110783186946662 [Eh]
	 SCS Opposite-Spin Energy  =      -1.3622019370159155 [Eh]
	 SCS Correlation Energy    =      -1.4732802557105817 [Eh]
	 SCS Total Energy          =    -310.2027064038573485 [Eh]
	-----------------------------------------------------------

  Dipole Moment: [D]
     X:    -0.0383      Y:     0.1932      Z:    -0.0215     Total:     0.1981

*** Psi4 exiting successfully. Buy a developer a beer!
