                               Psi4 1.3.2 release

  ==> Input File <==

--------------------------------------------------------------------------
#psi4
#
memory 32 gb

molecule  {
0 1
  C       -3.3721060    -0.3925950    -0.0575320
  C        3.3720920    -0.3929730     0.0571420
  C       -3.9415050     1.0253280     0.0313370
  C        3.9413990     1.0251120    -0.0302390
  C       -1.9114398    -0.4337572    -0.0779891
  C        1.9110920    -0.4103270     0.0325030
  C       -0.6837130    -0.4127480    -0.0120990
  C        0.6837810    -0.4128680     0.0116400
  H       -3.7516860    -0.9979840     0.7738320
  H       -3.6843533    -0.8819230    -0.9874848
  H        3.7518700    -0.9975380    -0.7747680
  H        3.7209340    -0.8772010     0.9767210
  H       -3.5935250     1.6324230    -0.8070360
  H       -3.6247440     1.5093170     0.9575960
  H       -5.0347610     1.0001480     0.0102760
  H        3.6246290     1.5100350    -0.9560070
  H        3.5933130     1.6313650     0.8087280
  H        5.0346230     0.9999160    -0.0090680
units angstrom
no_reorient  #important for SAPT in psi4, default
symmetry c1  #important for SAPT in psi4, default
}

set PROPERTIES_ORIGIN ["COM"]
properties('MP2/aug-cc-pvtz', properties = ['dipole'])
--------------------------------------------------------------------------

    Molecular point group: c1
  Charge       = 0
  Multiplicity = 1
  Basis Set: AUG-CC-PVTZ
    Blend: AUG-CC-PVTZ
  Basis Set: (AUG-CC-PVTZ AUX)
    Blend: AUG-CC-PVTZ-JKFIT

    Orbital Energies [Eh]
    ---------------------

    Doubly Occupied:

       1A    -11.257212     2A    -11.257004     3A    -11.245949
       4A    -11.245516     5A    -11.241565     6A    -11.240439
       7A    -11.227912     8A    -11.227105     9A     -1.093890
      10A     -1.079283    11A     -1.032141    12A     -0.973401
      13A     -0.890859    14A     -0.868599    15A     -0.785713
      16A     -0.655113    17A     -0.644970    18A     -0.630926
      19A     -0.629556    20A     -0.557521    21A     -0.554236
      22A     -0.525522    23A     -0.524933    24A     -0.519092
      25A     -0.514697    26A     -0.451337    27A     -0.450470
      28A     -0.328484    29A     -0.327184

  @DF-RHF Final Energy:  -308.76137798058733

   => Energetics <=

    Nuclear Repulsion Energy =            288.2689064002400983
    One-Electron Energy =                -986.0993052144732474
    Two-Electron Energy =                 389.0690208336458227
    Total Energy =                       -308.7613779805873264
  Basis Set: (AUG-CC-PVTZ AUX)
    Blend: AUG-CC-PVTZ-RI
    Molecular point group: c1

    Geometry (in Angstrom), charge = 0, multiplicity = 1:

       Center              X                  Y                   Z               Mass
    ------------   -----------------  -----------------  -----------------  -----------------
         C           -3.372405648102    -0.389823986274    -0.052346088439    12.000000000000
         C            3.371792351898    -0.390201986274     0.062327911561    12.000000000000
         C           -3.941804648102     1.028099013726     0.036522911561    12.000000000000
         C            3.941099351898     1.027883013726    -0.025053088439    12.000000000000
         C           -1.911739448102    -0.430986186274    -0.072803188439    12.000000000000
         C            1.910792351898    -0.407555986274     0.037688911561    12.000000000000
         C           -0.684012648102    -0.409976986274    -0.006913088439    12.000000000000
         C            0.683481351898    -0.410096986274     0.016825911561    12.000000000000
         H           -3.751985648102    -0.995212986274     0.779017911561     1.007825032230
         H           -3.684652948102    -0.879151986274    -0.982298888439     1.007825032230
         H            3.751570351898    -0.994766986274    -0.769582088439     1.007825032230
         H            3.720634351898    -0.874429986274     0.981906911561     1.007825032230
         H           -3.593824648102     1.635194013726    -0.801850088439     1.007825032230
         H           -3.625043648102     1.512088013726     0.962781911561     1.007825032230
         H           -5.035060648102     1.002919013726     0.015461911561     1.007825032230
         H            3.624329351898     1.512806013726    -0.950821088439     1.007825032230
         H            3.593013351898     1.634136013726     0.813913911561     1.007825032230
         H            5.034323351898     1.002687013726    -0.003882088439     1.007825032230

  Basis Set: AUG-CC-PVTZ
    Blend: AUG-CC-PVTZ
  Basis Set: (AUG-CC-PVTZ AUX)
    Blend: AUG-CC-PVTZ-JKFIT
	 Reference Energy          =    -308.7613779805873264 [Eh]
	 Singles Energy            =      -0.0000000000000000 [Eh]
	 Same-Spin Energy          =      -0.3334005060025359 [Eh]
	 Opposite-Spin Energy      =      -1.1360130833098485 [Eh]
	 Correlation Energy        =      -1.4694135893123845 [Eh]
	 Total Energy              =    -310.2307915698997363 [Eh]

	 ================> DF-SCS-MP2 Energies <==================
	-----------------------------------------------------------
	 SCS Same-Spin Scale       =       0.3333333333333333 [-]
	 SCS Opposite-Spin Scale   =       1.2000000000000000 [-]
	 SCS Same-Spin Energy      =      -0.1111335020008453 [Eh]
	 SCS Opposite-Spin Energy  =      -1.3632156999718181 [Eh]
	 SCS Correlation Energy    =      -1.4743492019726634 [Eh]
	 SCS Total Energy          =    -310.2357271825599696 [Eh]
	-----------------------------------------------------------

  Dipole Moment: [D]
     X:    -0.0110      Y:     0.2492      Z:     0.0271     Total:     0.2509

*** Psi4 exiting successfully. Buy a developer a beer!
