                               Psi4 1.3.2 release

  ==> Input File <==

--------------------------------------------------------------------------
#psi4
#
memory 32 gb

molecule  {
0 1
  C       -3.3721060    -0.3925950    -0.0575320
  C        3.3720920    -0.3929730     0.0571420
  C       -3.9415050     1.0253280     0.0313370
  C        3.9413990     1.0251120    -0.0302390
  C       -1.9110240    -0.4097670    -0.0329750
  C        1.9110920    -0.4103270     0.0325030
  C       -0.7836982    -0.4125051    -0.0137997
  C        0.6837810    -0.4128680     0.0116400
  H       -3.7516860    -0.9979840     0.7738320
  H       -3.7208300    -0.8759060    -0.9776160
  H        3.7518700    -0.9975380    -0.7747680
  H        3.7209340    -0.8772010     0.9767210
  H       -3.5935250     1.6324230    -0.8070360
  H       -3.6247440     1.5093170     0.9575960
  H       -5.0347610     1.0001480     0.0102760
  H        3.6246290     1.5100350    -0.9560070
  H        3.5933130     1.6313650     0.8087280
  H        5.0346230     0.9999160    -0.0090680
units angstrom
no_reorient  #important for SAPT in psi4, default
symmetry c1  #important for SAPT in psi4, default
}

set PROPERTIES_ORIGIN ["COM"]
properties('MP2/aug-cc-pvtz', properties = ['dipole'])
--------------------------------------------------------------------------

    Molecular point group: c1
  Charge       = 0
  Multiplicity = 1
  Basis Set: AUG-CC-PVTZ
    Blend: AUG-CC-PVTZ
  Basis Set: (AUG-CC-PVTZ AUX)
    Blend: AUG-CC-PVTZ-JKFIT

    Orbital Energies [Eh]
    ---------------------

    Doubly Occupied:

       1A    -11.256706     2A    -11.251731     3A    -11.250962
       4A    -11.243751     5A    -11.226949     6A    -11.225543
       7A    -11.225332     8A    -11.213730     9A     -1.096554
      10A     -1.080491    11A     -1.028450    12A     -0.985595
      13A     -0.882601    14A     -0.869425    15A     -0.759175
      16A     -0.654725    17A     -0.643718    18A     -0.630058
      19A     -0.628134    20A     -0.555405    21A     -0.552801
      22A     -0.525229    23A     -0.523432    24A     -0.518116
      25A     -0.513790    26A     -0.450865    27A     -0.449880
      28A     -0.349342    29A     -0.348501

  @DF-RHF Final Energy:  -308.75302320195692

   => Energetics <=

    Nuclear Repulsion Energy =            288.7669128142755426
    One-Electron Energy =                -987.1578916023079273
    Two-Electron Energy =                 389.6379555860754635
    Total Energy =                       -308.7530232019569212
  Basis Set: (AUG-CC-PVTZ AUX)
    Blend: AUG-CC-PVTZ-RI
    Molecular point group: c1

    Geometry (in Angstrom), charge = 0, multiplicity = 1:

       Center              X                  Y                   Z               Mass
    ------------   -----------------  -----------------  -----------------  -----------------
         C           -3.360795398803    -0.392622498526    -0.057339636334    12.000000000000
         C            3.383402601197    -0.393000498526     0.057334363666    12.000000000000
         C           -3.930194398803     1.025300501474     0.031529363666    12.000000000000
         C            3.952709601197     1.025084501474    -0.030046636334    12.000000000000
         C           -1.899713398803    -0.409794498526    -0.032782636334    12.000000000000
         C            1.922402601197    -0.410354498526     0.032695363666    12.000000000000
         C           -0.772387598803    -0.412532598526    -0.013607336334    12.000000000000
         C            0.695091601197    -0.412895498526     0.011832363666    12.000000000000
         H           -3.740375398803    -0.998011498526     0.774024363666     1.007825032230
         H           -3.709519398803    -0.875933498526    -0.977423636334     1.007825032230
         H            3.763180601197    -0.997565498526    -0.774575636334     1.007825032230
         H            3.732244601197    -0.877228498526     0.976913363666     1.007825032230
         H           -3.582214398803     1.632395501474    -0.806843636334     1.007825032230
         H           -3.613433398803     1.509289501474     0.957788363666     1.007825032230
         H           -5.023450398803     1.000120501474     0.010468363666     1.007825032230
         H            3.635939601197     1.510007501474    -0.955814636334     1.007825032230
         H            3.604623601197     1.631337501474     0.808920363666     1.007825032230
         H            5.045933601197     0.999888501474    -0.008875636334     1.007825032230

  Basis Set: AUG-CC-PVTZ
    Blend: AUG-CC-PVTZ
  Basis Set: (AUG-CC-PVTZ AUX)
    Blend: AUG-CC-PVTZ-JKFIT
	 Reference Energy          =    -308.7530232019569212 [Eh]
	 Singles Energy            =      -0.0000000000000000 [Eh]
	 Same-Spin Energy          =      -0.3269492217140882 [Eh]
	 Opposite-Spin Energy      =      -1.1262993399930086 [Eh]
	 Correlation Energy        =      -1.4532485617070967 [Eh]
	 Total Energy              =    -310.2062717636640059 [Eh]

	 ================> DF-SCS-MP2 Energies <==================
	-----------------------------------------------------------
	 SCS Same-Spin Scale       =       0.3333333333333333 [-]
	 SCS Opposite-Spin Scale   =       1.2000000000000000 [-]
	 SCS Same-Spin Energy      =      -0.1089830739046961 [Eh]
	 SCS Opposite-Spin Energy  =      -1.3515592079916103 [Eh]
	 SCS Correlation Energy    =      -1.4605422818963065 [Eh]
	 SCS Total Energy          =    -310.2135654838532446 [Eh]
	-----------------------------------------------------------

  Dipole Moment: [D]
     X:     0.0489      Y:     0.2131      Z:     0.0003     Total:     0.2186

*** Psi4 exiting successfully. Buy a developer a beer!
