                               Psi4 1.3.2 release

  ==> Input File <==

--------------------------------------------------------------------------
#psi4
#
memory 32 gb

molecule  {
0 1
  C       -3.3721060    -0.3925950    -0.0575320
  C        3.3720920    -0.3929730     0.0571420
  C       -3.9415050     1.0253280     0.0313370
  C        3.9413990     1.0251120    -0.0302390
  C       -1.9110240    -0.4097670    -0.0329750
  C        1.9110920    -0.4103270     0.0325030
  C       -0.4837425    -0.4132337    -0.0086976
  C        0.6837810    -0.4128680     0.0116400
  H       -3.7516860    -0.9979840     0.7738320
  H       -3.7208300    -0.8759060    -0.9776160
  H        3.7518700    -0.9975380    -0.7747680
  H        3.7209340    -0.8772010     0.9767210
  H       -3.5935250     1.6324230    -0.8070360
  H       -3.6247440     1.5093170     0.9575960
  H       -5.0347610     1.0001480     0.0102760
  H        3.6246290     1.5100350    -0.9560070
  H        3.5933130     1.6313650     0.8087280
  H        5.0346230     0.9999160    -0.0090680
units angstrom
no_reorient  #important for SAPT in psi4, default
symmetry c1  #important for SAPT in psi4, default
}

set PROPERTIES_ORIGIN ["COM"]
properties('MP2/aug-cc-pvtz', properties = ['dipole'])
--------------------------------------------------------------------------

    Molecular point group: c1
  Charge       = 0
  Multiplicity = 1
  Basis Set: AUG-CC-PVTZ
    Blend: AUG-CC-PVTZ
  Basis Set: (AUG-CC-PVTZ AUX)
    Blend: AUG-CC-PVTZ-JKFIT

    Orbital Energies [Eh]
    ---------------------

    Doubly Occupied:

       1A    -11.294731     2A    -11.265133     3A    -11.259477
       4A    -11.259124     5A    -11.250383     6A    -11.229149
       7A    -11.228558     8A    -11.216545     9A     -1.111617
      10A     -1.078613    11A     -1.057737    12A     -0.948290
      13A     -0.905840    14A     -0.862118    15A     -0.800827
      16A     -0.657564    17A     -0.646692    18A     -0.633077
      19A     -0.631567    20A     -0.559073    21A     -0.555027
      22A     -0.527910    23A     -0.527435    24A     -0.521901
      25A     -0.515523    26A     -0.473816    27A     -0.472512
      28A     -0.283144    29A     -0.282137

  @DF-RHF Final Energy:  -308.62948060281656

   => Energetics <=

    Nuclear Repulsion Energy =            288.7301281104959685
    One-Electron Energy =                -986.6081740471636294
    Two-Electron Energy =                 389.2485653338510474
    Total Energy =                       -308.6294806028165567
  Basis Set: (AUG-CC-PVTZ AUX)
    Blend: AUG-CC-PVTZ-RI
    Molecular point group: c1

    Geometry (in Angstrom), charge = 0, multiplicity = 1:

       Center              X                  Y                   Z               Mass
    ------------   -----------------  -----------------  -----------------  -----------------
         C           -3.394727598751    -0.392540076352    -0.057916806488    12.000000000000
         C            3.349470401249    -0.392918076352     0.056757193512    12.000000000000
         C           -3.964126598751     1.025382923648     0.030952193512    12.000000000000
         C            3.918777401249     1.025166923648    -0.030623806488    12.000000000000
         C           -1.933645598751    -0.409712076352    -0.033359806488    12.000000000000
         C            1.888470401249    -0.410272076352     0.032118193512    12.000000000000
         C           -0.506364098751    -0.413178776352    -0.009082406488    12.000000000000
         C            0.661159401249    -0.412813076352     0.011255193512    12.000000000000
         H           -3.774307598751    -0.997929076352     0.773447193512     1.007825032230
         H           -3.743451598751    -0.875851076352    -0.978000806488     1.007825032230
         H            3.729248401249    -0.997483076352    -0.775152806488     1.007825032230
         H            3.698312401249    -0.877146076352     0.976336193512     1.007825032230
         H           -3.616146598751     1.632477923648    -0.807420806488     1.007825032230
         H           -3.647365598751     1.509371923648     0.957211193512     1.007825032230
         H           -5.057382598751     1.000202923648     0.009891193512     1.007825032230
         H            3.602007401249     1.510089923648    -0.956391806488     1.007825032230
         H            3.570691401249     1.631419923648     0.808343193512     1.007825032230
         H            5.012001401249     0.999970923648    -0.009452806488     1.007825032230

  Basis Set: AUG-CC-PVTZ
    Blend: AUG-CC-PVTZ
  Basis Set: (AUG-CC-PVTZ AUX)
    Blend: AUG-CC-PVTZ-JKFIT
	 Reference Energy          =    -308.6294806028165567 [Eh]
	 Singles Energy            =      -0.0000000000000000 [Eh]
	 Same-Spin Energy          =      -0.3521534332602811 [Eh]
	 Opposite-Spin Energy      =      -1.1653359660692446 [Eh]
	 Correlation Energy        =      -1.5174893993295258 [Eh]
	 Total Energy              =    -310.1469700021460767 [Eh]

	 ================> DF-SCS-MP2 Energies <==================
	-----------------------------------------------------------
	 SCS Same-Spin Scale       =       0.3333333333333333 [-]
	 SCS Opposite-Spin Scale   =       1.2000000000000000 [-]
	 SCS Same-Spin Energy      =      -0.1173844777534270 [Eh]
	 SCS Opposite-Spin Energy  =      -1.3984031592830934 [Eh]
	 SCS Correlation Energy    =      -1.5157876370365204 [Eh]
	 SCS Total Energy          =    -310.1452682398530669 [Eh]
	-----------------------------------------------------------

  Dipole Moment: [D]
     X:     0.0945      Y:     0.2352      Z:     0.0029     Total:     0.2535

*** Psi4 exiting successfully. Buy a developer a beer!
