                               Psi4 1.3.2 release

  ==> Input File <==

--------------------------------------------------------------------------
#psi4
#
memory 32 gb

molecule  {
0 1
  C       -3.3721060    -0.3925950    -0.0575320
  C        3.3720920    -0.3929730     0.0571420
  C       -3.9415050     1.0253280     0.0313370
  C        3.9413990     1.0251120    -0.0302390
  C       -1.9110240    -0.4097670    -0.0329750
  C        2.0110707    -0.4091394     0.0341891
  C       -0.6837130    -0.4127480    -0.0120990
  C        0.6837810    -0.4128680     0.0116400
  H       -3.7516860    -0.9979840     0.7738320
  H       -3.7208300    -0.8759060    -0.9776160
  H        3.7518700    -0.9975380    -0.7747680
  H        3.7209340    -0.8772010     0.9767210
  H       -3.5935250     1.6324230    -0.8070360
  H       -3.6247440     1.5093170     0.9575960
  H       -5.0347610     1.0001480     0.0102760
  H        3.6246290     1.5100350    -0.9560070
  H        3.5933130     1.6313650     0.8087280
  H        5.0346230     0.9999160    -0.0090680
units angstrom
no_reorient  #important for SAPT in psi4, default
symmetry c1  #important for SAPT in psi4, default
}

set PROPERTIES_ORIGIN ["COM"]
properties('MP2/aug-cc-pvtz', properties = ['dipole'])
--------------------------------------------------------------------------

    Molecular point group: c1
  Charge       = 0
  Multiplicity = 1
  Basis Set: AUG-CC-PVTZ
    Blend: AUG-CC-PVTZ
  Basis Set: (AUG-CC-PVTZ AUX)
    Blend: AUG-CC-PVTZ-JKFIT

    Orbital Energies [Eh]
    ---------------------

    Doubly Occupied:

       1A    -11.268743     2A    -11.266135     3A    -11.257357
       4A    -11.250871     5A    -11.246908     6A    -11.243118
       7A    -11.229764     8A    -11.227174     9A     -1.106168
      10A     -1.086127    11A     -1.029424    12A     -0.960035
      13A     -0.900936    14A     -0.867928    15A     -0.780720
      16A     -0.668381    17A     -0.649548    18A     -0.638882
      19A     -0.630187    20A     -0.564653    21A     -0.554815
      22A     -0.530965    23A     -0.525629    24A     -0.521894
      25A     -0.515746    26A     -0.443196    27A     -0.442798
      28A     -0.313519    29A     -0.312539

  @DF-RHF Final Energy:  -308.72364180430804

   => Energetics <=

    Nuclear Repulsion Energy =            288.0339368892830976
    One-Electron Energy =                -985.4468341843364669
    Two-Electron Energy =                 388.6892554907453814
    Total Energy =                       -308.7236418043080448
  Basis Set: (AUG-CC-PVTZ AUX)
    Blend: AUG-CC-PVTZ-RI
    Molecular point group: c1

    Geometry (in Angstrom), charge = 0, multiplicity = 1:

       Center              X                  Y                   Z               Mass
    ------------   -----------------  -----------------  -----------------  -----------------
         C           -3.383416122587    -0.392729366805    -0.057722764826    12.000000000000
         C            3.360781877413    -0.393107366805     0.056951235174    12.000000000000
         C           -3.952815122587     1.025193633195     0.031146235174    12.000000000000
         C            3.930088877413     1.024977633195    -0.030429764826    12.000000000000
         C           -1.922334122587    -0.409901366805    -0.033165764826    12.000000000000
         C            1.999760577413    -0.409273766805     0.033998335174    12.000000000000
         C           -0.695023122587    -0.412882366805    -0.012289764826    12.000000000000
         C            0.672470877413    -0.413002366805     0.011449235174    12.000000000000
         H           -3.762996122587    -0.998118366805     0.773641235174     1.007825032230
         H           -3.732140122587    -0.876040366805    -0.977806764826     1.007825032230
         H            3.740559877413    -0.997672366805    -0.774958764826     1.007825032230
         H            3.709623877413    -0.877335366805     0.976530235174     1.007825032230
         H           -3.604835122587     1.632288633195    -0.807226764826     1.007825032230
         H           -3.636054122587     1.509182633195     0.957405235174     1.007825032230
         H           -5.046071122587     1.000013633195     0.010085235174     1.007825032230
         H            3.613318877413     1.509900633195    -0.956197764826     1.007825032230
         H            3.582002877413     1.631230633195     0.808537235174     1.007825032230
         H            5.023312877413     0.999781633195    -0.009258764826     1.007825032230

  Basis Set: AUG-CC-PVTZ
    Blend: AUG-CC-PVTZ
  Basis Set: (AUG-CC-PVTZ AUX)
    Blend: AUG-CC-PVTZ-JKFIT
	 Reference Energy          =    -308.7236418043080448 [Eh]
	 Singles Energy            =      -0.0000000000000000 [Eh]
	 Same-Spin Energy          =      -0.3402081411909746 [Eh]
	 Opposite-Spin Energy      =      -1.1464210985042393 [Eh]
	 Correlation Energy        =      -1.4866292396952139 [Eh]
	 Total Energy              =    -310.2102710440032638 [Eh]

	 ================> DF-SCS-MP2 Energies <==================
	-----------------------------------------------------------
	 SCS Same-Spin Scale       =       0.3333333333333333 [-]
	 SCS Opposite-Spin Scale   =       1.2000000000000000 [-]
	 SCS Same-Spin Energy      =      -0.1134027137303249 [Eh]
	 SCS Opposite-Spin Energy  =      -1.3757053182050871 [Eh]
	 SCS Correlation Energy    =      -1.4891080319354120 [Eh]
	 SCS Total Energy          =    -310.2127498362434608 [Eh]
	-----------------------------------------------------------

  Dipole Moment: [D]
     X:     0.0926      Y:     0.2245      Z:     0.0020     Total:     0.2428

*** Psi4 exiting successfully. Buy a developer a beer!
