                               Psi4 1.3.2 release

  ==> Input File <==

--------------------------------------------------------------------------
#psi4
#
memory 32 gb

molecule  {
0 1
  C       -3.3850222    -0.3989407    -0.0350267
  C        3.3720920    -0.3929730     0.0571420
  C       -3.9415050     1.0253280     0.0313370
  C        3.9413990     1.0251120    -0.0302390
  C       -1.9110240    -0.4097670    -0.0329750
  C        1.9110920    -0.4103270     0.0325030
  C       -0.6837130    -0.4127480    -0.0120990
  C        0.6837810    -0.4128680     0.0116400
  H       -3.7516860    -0.9979840     0.7738320
  H       -3.7208300    -0.8759060    -0.9776160
  H        3.7518700    -0.9975380    -0.7747680
  H        3.7209340    -0.8772010     0.9767210
  H       -3.6034358     1.6472097    -0.8002254
  H       -3.6247440     1.5093170     0.9575960
  H       -5.0347610     1.0001480     0.0102760
  H        3.6246290     1.5100350    -0.9560070
  H        3.5933130     1.6313650     0.8087280
  H        5.0346230     0.9999160    -0.0090680
units angstrom
no_reorient  #important for SAPT in psi4, default
symmetry c1  #important for SAPT in psi4, default
}

set PROPERTIES_ORIGIN ["COM"]
properties('MP2/aug-cc-pvtz', properties = ['dipole'])
--------------------------------------------------------------------------

    Molecular point group: c1
  Charge       = 0
  Multiplicity = 1
  Basis Set: AUG-CC-PVTZ
    Blend: AUG-CC-PVTZ
  Basis Set: (AUG-CC-PVTZ AUX)
    Blend: AUG-CC-PVTZ-JKFIT

    Orbital Energies [Eh]
    ---------------------

    Doubly Occupied:

       1A    -11.257637     2A    -11.256982     3A    -11.245860
       4A    -11.245480     5A    -11.241281     6A    -11.240176
       7A    -11.227172     8A    -11.227056     9A     -1.093332
      10A     -1.078586    11A     -1.032395    12A     -0.973616
      13A     -0.889528    14A     -0.868140    15A     -0.786422
      16A     -0.655918    17A     -0.645862    18A     -0.631090
      19A     -0.629651    20A     -0.555803    21A     -0.553021
      22A     -0.526980    23A     -0.525421    24A     -0.518026
      25A     -0.513882    26A     -0.452146    27A     -0.450806
      28A     -0.328955    29A     -0.327842

  @DF-RHF Final Energy:  -308.76192753335249

   => Energetics <=

    Nuclear Repulsion Energy =            288.1667286135617019
    One-Electron Energy =                -985.8991745796695341
    Two-Electron Energy =                 388.9705184327553980
    Total Energy =                       -308.7619275333524911
  Basis Set: (AUG-CC-PVTZ AUX)
    Blend: AUG-CC-PVTZ-RI
    Molecular point group: c1

    Geometry (in Angstrom), charge = 0, multiplicity = 1:

       Center              X                  Y                   Z               Mass
    ------------   -----------------  -----------------  -----------------  -----------------
         C           -3.383467035422    -0.398363354523    -0.037637322736    12.000000000000
         C            3.373647164578    -0.392395654523     0.054531377264    12.000000000000
         C           -3.939949835422     1.025905345477     0.028726377264    12.000000000000
         C            3.942954164578     1.025689345477    -0.032849622736    12.000000000000
         C           -1.909468835422    -0.409189654523    -0.035585622736    12.000000000000
         C            1.912647164578    -0.409749654523     0.029892377264    12.000000000000
         C           -0.682157835422    -0.412170654523    -0.014709622736    12.000000000000
         C            0.685336164578    -0.412290654523     0.009029377264    12.000000000000
         H           -3.750130835422    -0.997406654523     0.771221377264     1.007825032230
         H           -3.719274835422    -0.875328654523    -0.980226622736     1.007825032230
         H            3.753425164578    -0.996960654523    -0.777378622736     1.007825032230
         H            3.722489164578    -0.876623654523     0.974110377264     1.007825032230
         H           -3.601880635422     1.647787045477    -0.802836022736     1.007825032230
         H           -3.623188835422     1.509894345477     0.954985377264     1.007825032230
         H           -5.033205835422     1.000725345477     0.007665377264     1.007825032230
         H            3.626184164578     1.510612345477    -0.958617622736     1.007825032230
         H            3.594868164578     1.631942345477     0.806117377264     1.007825032230
         H            5.036178164578     1.000493345477    -0.011678622736     1.007825032230

  Basis Set: AUG-CC-PVTZ
    Blend: AUG-CC-PVTZ
  Basis Set: (AUG-CC-PVTZ AUX)
    Blend: AUG-CC-PVTZ-JKFIT
	 Reference Energy          =    -308.7619275333524911 [Eh]
	 Singles Energy            =      -0.0000000000000000 [Eh]
	 Same-Spin Energy          =      -0.3331016587106236 [Eh]
	 Opposite-Spin Energy      =      -1.1355972994287202 [Eh]
	 Correlation Energy        =      -1.4686989581393437 [Eh]
	 Total Energy              =    -310.2306264914918188 [Eh]

	 ================> DF-SCS-MP2 Energies <==================
	-----------------------------------------------------------
	 SCS Same-Spin Scale       =       0.3333333333333333 [-]
	 SCS Opposite-Spin Scale   =       1.2000000000000000 [-]
	 SCS Same-Spin Energy      =      -0.1110338862368745 [Eh]
	 SCS Opposite-Spin Energy  =      -1.3627167593144642 [Eh]
	 SCS Correlation Energy    =      -1.4737506455513387 [Eh]
	 SCS Total Energy          =    -310.2356781789038109 [Eh]
	-----------------------------------------------------------

  Dipole Moment: [D]
     X:    -0.0177      Y:     0.2271      Z:     0.0152     Total:     0.2283

*** Psi4 exiting successfully. Buy a developer a beer!
