                               Psi4 1.3.2 release

  ==> Input File <==

--------------------------------------------------------------------------
#psi4
#
memory 32 gb

molecule  {
0 1
  C       -3.3721060    -0.3925950    -0.0575320
  C        3.3720920    -0.3929730     0.0571420
  C       -3.9785399     1.0125729    -0.0385678
  C        3.9413990     1.0251120    -0.0302390
  C       -1.9110240    -0.4097670    -0.0329750
  C        1.9110920    -0.4103270     0.0325030
  C       -0.6837130    -0.4127480    -0.0120990
  C        0.6837810    -0.4128680     0.0116400
  H       -3.7516860    -0.9979840     0.7738320
  H       -3.7496104    -0.8278605    -0.9901556
  H        3.7518700    -0.9975380    -0.7747680
  H        3.7209340    -0.8772010     0.9767210
  H       -3.5935250     1.6324230    -0.8070360
  H       -3.6247440     1.5093170     0.9575960
  H       -5.0347610     1.0001480     0.0102760
  H        3.6246290     1.5100350    -0.9560070
  H        3.5933130     1.6313650     0.8087280
  H        5.0346230     0.9999160    -0.0090680
units angstrom
no_reorient  #important for SAPT in psi4, default
symmetry c1  #important for SAPT in psi4, default
}

set PROPERTIES_ORIGIN ["COM"]
properties('MP2/aug-cc-pvtz', properties = ['dipole'])
--------------------------------------------------------------------------

    Molecular point group: c1
  Charge       = 0
  Multiplicity = 1
  Basis Set: AUG-CC-PVTZ
    Blend: AUG-CC-PVTZ
  Basis Set: (AUG-CC-PVTZ AUX)
    Blend: AUG-CC-PVTZ-JKFIT

    Orbital Energies [Eh]
    ---------------------

    Doubly Occupied:

       1A    -11.257487     2A    -11.257271     3A    -11.246810
       4A    -11.246418     5A    -11.242517     6A    -11.241231
       7A    -11.227502     8A    -11.227449     9A     -1.094317
      10A     -1.079496    11A     -1.033242    12A     -0.974848
      13A     -0.890183    14A     -0.867862    15A     -0.786781
      16A     -0.658866    17A     -0.648550    18A     -0.630718
      19A     -0.628565    20A     -0.562477    21A     -0.555269
      22A     -0.537574    23A     -0.525911    24A     -0.516837
      25A     -0.492644    26A     -0.452715    27A     -0.449882
      28A     -0.329698    29A     -0.328503

  @DF-RHF Final Energy:  -308.75496929209430

   => Energetics <=

    Nuclear Repulsion Energy =            288.1678128706893176
    One-Electron Energy =                -985.8623170007361978
    Two-Electron Energy =                 388.9395348379525785
    Total Energy =                       -308.7549692920943016
  Basis Set: (AUG-CC-PVTZ AUX)
    Blend: AUG-CC-PVTZ-RI
    Molecular point group: c1

    Geometry (in Angstrom), charge = 0, multiplicity = 1:

       Center              X                  Y                   Z               Mass
    ------------   -----------------  -----------------  -----------------  -----------------
         C           -3.367643154967    -0.391608581516    -0.049504977295    12.000000000000
         C            3.376554845033    -0.391986581516     0.065169022705    12.000000000000
         C           -3.974077054967     1.013559318484    -0.030540777295    12.000000000000
         C            3.945861845033     1.026098418484    -0.022211977295    12.000000000000
         C           -1.906561154967    -0.408780581516    -0.024947977295    12.000000000000
         C            1.915554845033    -0.409340581516     0.040530022705    12.000000000000
         C           -0.679250154967    -0.411761581516    -0.004071977295    12.000000000000
         C            0.688243845033    -0.411881581516     0.019667022705    12.000000000000
         H           -3.747223154967    -0.996997581516     0.781859022705     1.007825032230
         H           -3.745147554967    -0.826874081516    -0.982128577295     1.007825032230
         H            3.756332845033    -0.996551581516    -0.766740977295     1.007825032230
         H            3.725396845033    -0.876214581516     0.984748022705     1.007825032230
         H           -3.589062154967     1.633409418484    -0.799008977295     1.007825032230
         H           -3.620281154967     1.510303418484     0.965623022705     1.007825032230
         H           -5.030298154967     1.001134418484     0.018303022705     1.007825032230
         H            3.629091845033     1.511021418484    -0.947979977295     1.007825032230
         H            3.597775845033     1.632351418484     0.816755022705     1.007825032230
         H            5.039085845033     1.000902418484    -0.001040977295     1.007825032230

  Basis Set: AUG-CC-PVTZ
    Blend: AUG-CC-PVTZ
  Basis Set: (AUG-CC-PVTZ AUX)
    Blend: AUG-CC-PVTZ-JKFIT
	 Reference Energy          =    -308.7549692920943016 [Eh]
	 Singles Energy            =      -0.0000000000000000 [Eh]
	 Same-Spin Energy          =      -0.3334334498856870 [Eh]
	 Opposite-Spin Energy      =      -1.1361925114423976 [Eh]
	 Correlation Energy        =      -1.4696259613280847 [Eh]
	 Total Energy              =    -310.2245952534223647 [Eh]

	 ================> DF-SCS-MP2 Energies <==================
	-----------------------------------------------------------
	 SCS Same-Spin Scale       =       0.3333333333333333 [-]
	 SCS Opposite-Spin Scale   =       1.2000000000000000 [-]
	 SCS Same-Spin Energy      =      -0.1111444832952290 [Eh]
	 SCS Opposite-Spin Energy  =      -1.3634310137308772 [Eh]
	 SCS Correlation Energy    =      -1.4745754970261062 [Eh]
	 SCS Total Energy          =    -310.2295447891203821 [Eh]
	-----------------------------------------------------------

  Dipole Moment: [D]
     X:     0.0376      Y:     0.2195      Z:    -0.0389     Total:     0.2261

*** Psi4 exiting successfully. Buy a developer a beer!
