                               Psi4 1.3.2 release

  ==> Input File <==

--------------------------------------------------------------------------
#psi4
#
memory 32 gb

molecule  {
0 1
  C       -3.3721060    -0.3925950    -0.0575320
  C        3.3720920    -0.3929730     0.0571420
  C       -3.9415050     1.0253280     0.0313370
  C        3.9413990     1.0251120    -0.0302390
  C       -1.9110240    -0.4097670    -0.0329750
  C        1.9110920    -0.4103270     0.0325030
  C       -0.6837130    -0.4127480    -0.0120990
  C        0.4838103    -0.4132820     0.0082407
  H       -3.7516860    -0.9979840     0.7738320
  H       -3.7208300    -0.8759060    -0.9776160
  H        3.7518700    -0.9975380    -0.7747680
  H        3.7209340    -0.8772010     0.9767210
  H       -3.5935250     1.6324230    -0.8070360
  H       -3.6247440     1.5093170     0.9575960
  H       -5.0347610     1.0001480     0.0102760
  H        3.6246290     1.5100350    -0.9560070
  H        3.5933130     1.6313650     0.8087280
  H        5.0346230     0.9999160    -0.0090680
units angstrom
no_reorient  #important for SAPT in psi4, default
symmetry c1  #important for SAPT in psi4, default
}

set PROPERTIES_ORIGIN ["COM"]
properties('MP2/aug-cc-pvtz', properties = ['dipole'])
--------------------------------------------------------------------------

    Molecular point group: c1
  Charge       = 0
  Multiplicity = 1
  Basis Set: AUG-CC-PVTZ
    Blend: AUG-CC-PVTZ
  Basis Set: (AUG-CC-PVTZ AUX)
    Blend: AUG-CC-PVTZ-JKFIT

    Orbital Energies [Eh]
    ---------------------

    Doubly Occupied:

       1A    -11.294729     2A    -11.265130     3A    -11.259481
       4A    -11.259124     5A    -11.250386     6A    -11.229150
       7A    -11.228556     8A    -11.216545     9A     -1.111614
      10A     -1.078614    11A     -1.057738    12A     -0.948290
      13A     -0.905845    14A     -0.862114    15A     -0.800828
      16A     -0.657554    17A     -0.646700    18A     -0.633070
      19A     -0.631573    20A     -0.559071    21A     -0.555029
      22A     -0.527923    23A     -0.527420    24A     -0.521904
      25A     -0.515518    26A     -0.473817    27A     -0.472515
      28A     -0.283144    29A     -0.282136

  @DF-RHF Final Energy:  -308.62948087944613

   => Energetics <=

    Nuclear Repulsion Energy =            288.7300932291155959
    One-Electron Energy =                -986.6081105041855608
    Two-Electron Energy =                 389.2485363956238302
    Total Energy =                       -308.6294808794461346
  Basis Set: (AUG-CC-PVTZ AUX)
    Blend: AUG-CC-PVTZ-RI
    Molecular point group: c1

    Geometry (in Angstrom), charge = 0, multiplicity = 1:

       Center              X                  Y                   Z               Mass
    ------------   -----------------  -----------------  -----------------  -----------------
         C           -3.349484635321    -0.392548187346    -0.057147483844    12.000000000000
         C            3.394713364679    -0.392926187346     0.057526516156    12.000000000000
         C           -3.918883635321     1.025374812654     0.031721516156    12.000000000000
         C            3.964020364679     1.025158812654    -0.029854483844    12.000000000000
         C           -1.888402635321    -0.409720187346    -0.032590483844    12.000000000000
         C            1.933713364679    -0.410280187346     0.032887516156    12.000000000000
         C           -0.661091635321    -0.412701187346    -0.011714483844    12.000000000000
         C            0.506431664679    -0.413235187346     0.008625216156    12.000000000000
         H           -3.729064635321    -0.997937187346     0.774216516156     1.007825032230
         H           -3.698208635321    -0.875859187346    -0.977231483844     1.007825032230
         H            3.774491364679    -0.997491187346    -0.774383483844     1.007825032230
         H            3.743555364679    -0.877154187346     0.977105516156     1.007825032230
         H           -3.570903635321     1.632469812654    -0.806651483844     1.007825032230
         H           -3.602122635321     1.509363812654     0.957980516156     1.007825032230
         H           -5.012139635321     1.000194812654     0.010660516156     1.007825032230
         H            3.647250364679     1.510081812654    -0.955622483844     1.007825032230
         H            3.615934364679     1.631411812654     0.809112516156     1.007825032230
         H            5.057244364679     0.999962812654    -0.008683483844     1.007825032230

  Basis Set: AUG-CC-PVTZ
    Blend: AUG-CC-PVTZ
  Basis Set: (AUG-CC-PVTZ AUX)
    Blend: AUG-CC-PVTZ-JKFIT
	 Reference Energy          =    -308.6294808794461346 [Eh]
	 Singles Energy            =      -0.0000000000000000 [Eh]
	 Same-Spin Energy          =      -0.3521534307611779 [Eh]
	 Opposite-Spin Energy      =      -1.1653359923306719 [Eh]
	 Correlation Energy        =      -1.5174894230918499 [Eh]
	 Total Energy              =    -310.1469703025379658 [Eh]

	 ================> DF-SCS-MP2 Energies <==================
	-----------------------------------------------------------
	 SCS Same-Spin Scale       =       0.3333333333333333 [-]
	 SCS Opposite-Spin Scale   =       1.2000000000000000 [-]
	 SCS Same-Spin Energy      =      -0.1173844769203926 [Eh]
	 SCS Opposite-Spin Energy  =      -1.3984031907968062 [Eh]
	 SCS Correlation Energy    =      -1.5157876677171989 [Eh]
	 SCS Total Energy          =    -310.1452685471633117 [Eh]
	-----------------------------------------------------------

  Dipole Moment: [D]
     X:    -0.0945      Y:     0.2352      Z:    -0.0024     Total:     0.2535

*** Psi4 exiting successfully. Buy a developer a beer!
