                               Psi4 1.3.2 release

  ==> Input File <==

--------------------------------------------------------------------------
#psi4
#
memory 32 gb

molecule  {
0 1
  C       -3.3721060    -0.3925950    -0.0575320
  C        3.3720920    -0.3929730     0.0571420
  C       -3.9415050     1.0253280     0.0313370
  C        3.9413990     1.0251120    -0.0302390
  C       -1.9110240    -0.4097670    -0.0329750
  C        1.9110920    -0.4103270     0.0325030
  C       -0.6837130    -0.4127480    -0.0120990
  C        0.5837957    -0.4130750     0.0099404
  H       -3.7516860    -0.9979840     0.7738320
  H       -3.7208300    -0.8759060    -0.9776160
  H        3.7518700    -0.9975380    -0.7747680
  H        3.7209340    -0.8772010     0.9767210
  H       -3.5935250     1.6324230    -0.8070360
  H       -3.6247440     1.5093170     0.9575960
  H       -5.0347610     1.0001480     0.0102760
  H        3.6246290     1.5100350    -0.9560070
  H        3.5933130     1.6313650     0.8087280
  H        5.0346230     0.9999160    -0.0090680
units angstrom
no_reorient  #important for SAPT in psi4, default
symmetry c1  #important for SAPT in psi4, default
}

set PROPERTIES_ORIGIN ["COM"]
properties('MP2/aug-cc-pvtz', properties = ['dipole'])
--------------------------------------------------------------------------

    Molecular point group: c1
  Charge       = 0
  Multiplicity = 1
  Basis Set: AUG-CC-PVTZ
    Blend: AUG-CC-PVTZ
  Basis Set: (AUG-CC-PVTZ AUX)
    Blend: AUG-CC-PVTZ-JKFIT

    Orbital Energies [Eh]
    ---------------------

    Doubly Occupied:

       1A    -11.272478     2A    -11.261669     3A    -11.257950
       4A    -11.253876     5A    -11.247064     6A    -11.230079
       7A    -11.228532     8A    -11.227631     9A     -1.098696
      10A     -1.078727    11A     -1.044095    12A     -0.958562
      13A     -0.898850    14A     -0.864853    15A     -0.801219
      16A     -0.657408    17A     -0.647829    18A     -0.632059
      19A     -0.630476    20A     -0.557347    21A     -0.554479
      22A     -0.527182    23A     -0.526227    24A     -0.519610
      25A     -0.514921    26A     -0.459690    27A     -0.458882
      28A     -0.306228    29A     -0.305293

  @DF-RHF Final Energy:  -308.71966419347319

   => Energetics <=

    Nuclear Repulsion Energy =            288.3243708647253811
    One-Electron Energy =                -986.0442419356269284
    Two-Electron Energy =                 389.0002068774282975
    Total Energy =                       -308.7196641934731929
  Basis Set: (AUG-CC-PVTZ AUX)
    Blend: AUG-CC-PVTZ-RI
    Molecular point group: c1

    Geometry (in Angstrom), charge = 0, multiplicity = 1:

       Center              X                  Y                   Z               Mass
    ------------   -----------------  -----------------  -----------------  -----------------
         C           -3.360795387491    -0.392571604021    -0.057339760771    12.000000000000
         C            3.383402612509    -0.392949604021     0.057334239229    12.000000000000
         C           -3.930194387491     1.025351395979     0.031529239229    12.000000000000
         C            3.952709612509     1.025135395979    -0.030046760771    12.000000000000
         C           -1.899713387491    -0.409743604021    -0.032782760771    12.000000000000
         C            1.922402612509    -0.410303604021     0.032695239229    12.000000000000
         C           -0.672402387491    -0.412724604021    -0.011906760771    12.000000000000
         C            0.595106312509    -0.413051604021     0.010132639229    12.000000000000
         H           -3.740375387491    -0.997960604021     0.774024239229     1.007825032230
         H           -3.709519387491    -0.875882604021    -0.977423760771     1.007825032230
         H            3.763180612509    -0.997514604021    -0.774575760771     1.007825032230
         H            3.732244612509    -0.877177604021     0.976913239229     1.007825032230
         H           -3.582214387491     1.632446395979    -0.806843760771     1.007825032230
         H           -3.613433387491     1.509340395979     0.957788239229     1.007825032230
         H           -5.023450387491     1.000171395979     0.010468239229     1.007825032230
         H            3.635939612509     1.510058395979    -0.955814760771     1.007825032230
         H            3.604623612509     1.631388395979     0.808920239229     1.007825032230
         H            5.045933612509     0.999939395979    -0.008875760771     1.007825032230

  Basis Set: AUG-CC-PVTZ
    Blend: AUG-CC-PVTZ
  Basis Set: (AUG-CC-PVTZ AUX)
    Blend: AUG-CC-PVTZ-JKFIT
	 Reference Energy          =    -308.7196641934731929 [Eh]
	 Singles Energy            =      -0.0000000000000000 [Eh]
	 Same-Spin Energy          =      -0.3415494389708873 [Eh]
	 Opposite-Spin Energy      =      -1.1482777990668478 [Eh]
	 Correlation Energy        =      -1.4898272380377351 [Eh]
	 Total Energy              =    -310.2094914315109122 [Eh]

	 ================> DF-SCS-MP2 Energies <==================
	-----------------------------------------------------------
	 SCS Same-Spin Scale       =       0.3333333333333333 [-]
	 SCS Opposite-Spin Scale   =       1.2000000000000000 [-]
	 SCS Same-Spin Energy      =      -0.1138498129902958 [Eh]
	 SCS Opposite-Spin Energy  =      -1.3779333588802174 [Eh]
	 SCS Correlation Energy    =      -1.4917831718705132 [Eh]
	 SCS Total Energy          =    -310.2114473653437017 [Eh]
	-----------------------------------------------------------

  Dipole Moment: [D]
     X:    -0.0173      Y:     0.2334      Z:    -0.0004     Total:     0.2340

*** Psi4 exiting successfully. Buy a developer a beer!
