                               Psi4 1.4a3.dev225

  ==> Input File <==

--------------------------------------------------------------------------
#psi4
#
memory 32 gb

molecule  {
0 1
  C       -3.3104600     0.6645600    -0.0001290
  C        3.3104610    -0.6645590    -0.0001300
  C       -4.1189600    -0.6381980     0.0003020
  C        4.1189570     0.6382020     0.0003020
  C       -1.8678680     0.4225120    -0.0001420
  C        1.8678690    -0.4225150    -0.0001410
  C       -0.6717070     0.1376470    -0.0001380
  C        0.6227259    -0.1276124    -0.0001380
  H       -3.5746830     1.2664600    -0.8780670
  H       -3.5745810     1.2669770     0.8774850
  H        3.5746860    -1.2664580    -0.8780680
  H        3.5745850    -1.2669760     0.8774840
  H       -3.8858290    -1.2341430     0.8855450
  H       -3.8859300    -1.2346660    -0.8846160
  H       -5.1908980    -0.4200070     0.0002980
  H        3.8859240     1.2346690    -0.8846160
  H        3.8858250     1.2341450     0.8855460
  H        5.1908960     0.4200140     0.0002970
units angstrom
no_reorient  #important for SAPT in psi4, default
symmetry c1  #important for SAPT in psi4, default
}

set PROPERTIES_ORIGIN ["COM"]
properties('MP2/aug-cc-pvtz', properties = ['dipole'])
--------------------------------------------------------------------------

    Molecular point group: c1
  Charge       = 0
  Multiplicity = 1
  Basis Set: AUG-CC-PVTZ
    Blend: AUG-CC-PVTZ
  Basis Set: (AUG-CC-PVTZ AUX)
    Blend: AUG-CC-PVTZ-JKFIT

    Orbital Energies [Eh]
    ---------------------

    Doubly Occupied:

       1A    -11.260547     2A    -11.259762     3A    -11.258013
       4A    -11.249633     5A    -11.246922     6A    -11.237154
       7A    -11.228208     8A    -11.227655     9A     -1.094766
      10A     -1.078271    11A     -1.036438    12A     -0.965098
      13A     -0.893910    14A     -0.866712    15A     -0.795029
      16A     -0.656606    17A     -0.645912    18A     -0.630832
      19A     -0.629400    20A     -0.557539    21A     -0.552475
      22A     -0.527106    23A     -0.525309    24A     -0.518744
      25A     -0.514497    26A     -0.454049    27A     -0.453568
      28A     -0.317597    29A     -0.316818

  @DF-RHF Final Energy:  -308.74619947931569

   => Energetics <=

    Nuclear Repulsion Energy =            287.9576508813079840
    One-Electron Energy =                -985.4105570906425555
    Two-Electron Energy =                 388.7067067300188228
    Total Energy =                       -308.7461994793156919
  Basis Set: (AUG-CC-PVTZ AUX)
    Blend: AUG-CC-PVTZ-RI
    Molecular point group: c1

    Geometry (in Angstrom), charge = 0, multiplicity = 1:

       Center              X                  Y                   Z               Mass
    ------------   -----------------  -----------------  -----------------  -----------------
         C           -3.304918899564     0.663424476771    -0.000117028447    12.000000000000
         C            3.316002100436    -0.665694523229    -0.000118028447    12.000000000000
         C           -4.113418899564    -0.639333523229     0.000313971553    12.000000000000
         C            4.124498100436     0.637066476771     0.000313971553    12.000000000000
         C           -1.862326899564     0.421376476771    -0.000130028447    12.000000000000
         C            1.873410100436    -0.423650523229    -0.000129028447    12.000000000000
         C           -0.666165899564     0.136511476771    -0.000126028447    12.000000000000
         C            0.628267000436    -0.128747923229    -0.000126028447    12.000000000000
         H           -3.569141899564     1.265324476771    -0.878055028447     1.007825032230
         H           -3.569039899564     1.265841476771     0.877496971553     1.007825032230
         H            3.580227100436    -1.267593523229    -0.878056028447     1.007825032230
         H            3.580126100436    -1.268111523229     0.877495971553     1.007825032230
         H           -3.880287899564    -1.235278523229     0.885556971553     1.007825032230
         H           -3.880388899564    -1.235801523229    -0.884604028447     1.007825032230
         H           -5.185356899564    -0.421142523229     0.000309971553     1.007825032230
         H            3.891465100436     1.233533476771    -0.884604028447     1.007825032230
         H            3.891366100436     1.233009476771     0.885557971553     1.007825032230
         H            5.196437100436     0.418878476771     0.000308971553     1.007825032230

  Basis Set: AUG-CC-PVTZ
    Blend: AUG-CC-PVTZ
  Basis Set: (AUG-CC-PVTZ AUX)
    Blend: AUG-CC-PVTZ-JKFIT
	 Reference Energy          =    -308.7461994793156919 [Eh]
	 Singles Energy            =      -0.0000000000000000 [Eh]
	 Same-Spin Energy          =      -0.3372694778766639 [Eh]
	 Opposite-Spin Energy      =      -1.1420489687485538 [Eh]
	 Correlation Energy        =      -1.4793184466252178 [Eh]
	 Total Energy              =    -310.2255179259408919 [Eh]

	 ================> DF-SCS-MP2 Energies <==================
	-----------------------------------------------------------
	 SCS Same-Spin Scale       =       0.3333333333333333 [-]
	 SCS Opposite-Spin Scale   =       1.2000000000000000 [-]
	 SCS Same-Spin Energy      =      -0.1124231592922213 [Eh]
	 SCS Opposite-Spin Energy  =      -1.3704587624982645 [Eh]
	 SCS Correlation Energy    =      -1.4828819217904858 [Eh]
	 SCS Total Energy          =    -310.2290814011061570 [Eh]
	-----------------------------------------------------------

  Dipole Moment: [D]
     X:     0.0021      Y:     0.0044      Z:     0.0001     Total:     0.0049

*** Psi4 exiting successfully. Buy a developer a beer!
