                               Psi4 1.3.2 release

  ==> Input File <==

--------------------------------------------------------------------------
#psi4
#
memory 32 gb

molecule  {
0 1
  C       -3.3721060    -0.3925950    -0.0575320
  C        3.3720920    -0.3929730     0.0571420
  C       -3.9415050     1.0253280     0.0313370
  C        3.9413990     1.0251120    -0.0302390
  C       -1.9093348    -0.4733072    -0.0424435
  C        1.9110920    -0.4103270     0.0325030
  C       -0.6837130    -0.4127480    -0.0120990
  C        0.6820843    -0.4836614     0.0010285
  H       -3.7516860    -0.9979840     0.7738320
  H       -3.7208300    -0.8759060    -0.9776160
  H        3.7518700    -0.9975380    -0.7747680
  H        3.7209340    -0.8772010     0.9767210
  H       -3.5935250     1.6324230    -0.8070360
  H       -3.6247440     1.5093170     0.9575960
  H       -5.0347610     1.0001480     0.0102760
  H        3.6246290     1.5100350    -0.9560070
  H        3.5933130     1.6313650     0.8087280
  H        5.0346230     0.9999160    -0.0090680
units angstrom
no_reorient  #important for SAPT in psi4, default
symmetry c1  #important for SAPT in psi4, default
}

set PROPERTIES_ORIGIN ["COM"]
properties('MP2/aug-cc-pvtz', properties = ['dipole'])
--------------------------------------------------------------------------

    Molecular point group: c1
  Charge       = 0
  Multiplicity = 1
  Basis Set: AUG-CC-PVTZ
    Blend: AUG-CC-PVTZ
  Basis Set: (AUG-CC-PVTZ AUX)
    Blend: AUG-CC-PVTZ-JKFIT

    Orbital Energies [Eh]
    ---------------------

    Doubly Occupied:

       1A    -11.257313     2A    -11.257269     3A    -11.246978
       4A    -11.245845     5A    -11.242236     6A    -11.240703
       7A    -11.228002     8A    -11.227448     9A     -1.093600
      10A     -1.078682    11A     -1.032412    12A     -0.973709
      13A     -0.890951    14A     -0.868458    15A     -0.785157
      16A     -0.655378    17A     -0.643823    18A     -0.630794
      19A     -0.629436    20A     -0.558360    21A     -0.553993
      22A     -0.526104    23A     -0.524131    24A     -0.518872
      25A     -0.514568    26A     -0.451492    27A     -0.450494
      28A     -0.328702    29A     -0.327090

  @DF-RHF Final Energy:  -308.76045505459467

   => Energetics <=

    Nuclear Repulsion Energy =            288.0152530513760212
    One-Electron Energy =                -985.5874142043144275
    Two-Electron Energy =                 388.8117060983437341
    Total Energy =                       -308.7604550545946722
  Basis Set: (AUG-CC-PVTZ AUX)
    Blend: AUG-CC-PVTZ-RI
    Molecular point group: c1

    Geometry (in Angstrom), charge = 0, multiplicity = 1:

       Center              X                  Y                   Z               Mass
    ------------   -----------------  -----------------  -----------------  -----------------
         C           -3.372105279918    -0.377398661452    -0.055260495706    12.000000000000
         C            3.372092720082    -0.377776661452     0.059413504294    12.000000000000
         C           -3.941504279918     1.040524338548     0.033608504294    12.000000000000
         C            3.941399720082     1.040308338548    -0.027967495706    12.000000000000
         C           -1.909334079918    -0.458110861452    -0.040171995706    12.000000000000
         C            1.911092720082    -0.395130661452     0.034774504294    12.000000000000
         C           -0.683712279918    -0.397551661452    -0.009827495706    12.000000000000
         C            0.682085020082    -0.468465061452     0.003300004294    12.000000000000
         H           -3.751685279918    -0.982787661452     0.776103504294     1.007825032230
         H           -3.720829279918    -0.860709661452    -0.975344495706     1.007825032230
         H            3.751870720082    -0.982341661452    -0.772496495706     1.007825032230
         H            3.720934720082    -0.862004661452     0.978992504294     1.007825032230
         H           -3.593524279918     1.647619338548    -0.804764495706     1.007825032230
         H           -3.624743279918     1.524513338548     0.959867504294     1.007825032230
         H           -5.034760279918     1.015344338548     0.012547504294     1.007825032230
         H            3.624629720082     1.525231338548    -0.953735495706     1.007825032230
         H            3.593313720082     1.646561338548     0.810999504294     1.007825032230
         H            5.034623720082     1.015112338548    -0.006796495706     1.007825032230

  Basis Set: AUG-CC-PVTZ
    Blend: AUG-CC-PVTZ
  Basis Set: (AUG-CC-PVTZ AUX)
    Blend: AUG-CC-PVTZ-JKFIT
	 Reference Energy          =    -308.7604550545946722 [Eh]
	 Singles Energy            =      -0.0000000000000000 [Eh]
	 Same-Spin Energy          =      -0.3334159978999209 [Eh]
	 Opposite-Spin Energy      =      -1.1361683970690675 [Eh]
	 Correlation Energy        =      -1.4695843949689884 [Eh]
	 Total Energy              =    -310.2300394495636624 [Eh]

	 ================> DF-SCS-MP2 Energies <==================
	-----------------------------------------------------------
	 SCS Same-Spin Scale       =       0.3333333333333333 [-]
	 SCS Opposite-Spin Scale   =       1.2000000000000000 [-]
	 SCS Same-Spin Energy      =      -0.1111386659666403 [Eh]
	 SCS Opposite-Spin Energy  =      -1.3634020764828809 [Eh]
	 SCS Correlation Energy    =      -1.4745407424495212 [Eh]
	 SCS Total Energy          =    -310.2349957970441778 [Eh]
	-----------------------------------------------------------

  Dipole Moment: [D]
     X:    -0.0012      Y:     0.2946      Z:     0.0093     Total:     0.2948

*** Psi4 exiting successfully. Buy a developer a beer!
