                               Psi4 1.3.2 release

  ==> Input File <==

--------------------------------------------------------------------------
#psi4
#
memory 32 gb

molecule  {
0 1
  C       -3.3721060    -0.3925950    -0.0575320
  C        3.3720920    -0.3929730     0.0571420
  C       -3.9415050     1.0253280     0.0313370
  C        3.9413990     1.0251120    -0.0302390
  C       -1.9110240    -0.4097670    -0.0329750
  C        1.9110920    -0.4103270     0.0325030
  C       -0.6837130    -0.4127480    -0.0120990
  C        0.6837810    -0.4128680     0.0116400
  H       -3.7516860    -0.9979840     0.7738320
  H       -3.7208300    -0.8759060    -0.9776160
  H        3.7518700    -0.9975380    -0.7747680
  H        3.7209340    -0.8772010     0.9767210
  H       -3.5935250     1.6324230    -0.8070360
  H       -3.6247440     1.5093170     0.9575960
  H       -5.0347610     1.0001480     0.0102760
  H        3.6246290     1.5100350    -0.9560070
  H        3.5933130     1.6313650     0.8087280
  H        5.0346230     0.9999160    -0.0090680
units angstrom
no_reorient  #important for SAPT in psi4, default
symmetry c1  #important for SAPT in psi4, default
}

set PROPERTIES_ORIGIN ["COM"]
properties('MP2/aug-cc-pvtz', properties = ['dipole'])
--------------------------------------------------------------------------

    Molecular point group: c1
  Charge       = 0
  Multiplicity = 1
  Basis Set: AUG-CC-PVTZ
    Blend: AUG-CC-PVTZ
  Basis Set: (AUG-CC-PVTZ AUX)
    Blend: AUG-CC-PVTZ-JKFIT

    Orbital Energies [Eh]
    ---------------------

    Doubly Occupied:

       1A    -11.257109     2A    -11.257105     3A    -11.245786
       4A    -11.245633     5A    -11.241525     6A    -11.240445
       7A    -11.227156     8A    -11.227154     9A     -1.094029
      10A     -1.079337    11A     -1.032448    12A     -0.973801
      13A     -0.889951    14A     -0.868027    15A     -0.786233
      16A     -0.656635    17A     -0.646520    18A     -0.630793
      19A     -0.629503    20A     -0.556150    21A     -0.553581
      22A     -0.525619    23A     -0.525519    24A     -0.518455
      25A     -0.514215    26A     -0.451674    27A     -0.450929
      28A     -0.328821    29A     -0.327928

  @DF-RHF Final Energy:  -308.76248790741425

   => Energetics <=

    Nuclear Repulsion Energy =            288.3351966346117479
    One-Electron Energy =                -986.2312091691969727
    Two-Electron Energy =                 389.1335246271709707
    Total Energy =                       -308.7624879074142541
  Basis Set: (AUG-CC-PVTZ AUX)
    Blend: AUG-CC-PVTZ-RI
    Molecular point group: c1

    Geometry (in Angstrom), charge = 0, multiplicity = 1:

       Center              X                  Y                   Z               Mass
    ------------   -----------------  -----------------  -----------------  -----------------
         C           -3.372106128348    -0.392595020697    -0.057532026386    12.000000000000
         C            3.372091871652    -0.392973020697     0.057141973614    12.000000000000
         C           -3.941505128348     1.025327979303     0.031336973614    12.000000000000
         C            3.941398871652     1.025111979303    -0.030239026386    12.000000000000
         C           -1.911024128348    -0.409767020697    -0.032975026386    12.000000000000
         C            1.911091871652    -0.410327020697     0.032502973614    12.000000000000
         C           -0.683713128348    -0.412748020697    -0.012099026386    12.000000000000
         C            0.683780871652    -0.412868020697     0.011639973614    12.000000000000
         H           -3.751686128348    -0.997984020697     0.773831973614     1.007825032230
         H           -3.720830128348    -0.875906020697    -0.977616026386     1.007825032230
         H            3.751869871652    -0.997538020697    -0.774768026386     1.007825032230
         H            3.720933871652    -0.877201020697     0.976720973614     1.007825032230
         H           -3.593525128348     1.632422979303    -0.807036026386     1.007825032230
         H           -3.624744128348     1.509316979303     0.957595973614     1.007825032230
         H           -5.034761128348     1.000147979303     0.010275973614     1.007825032230
         H            3.624628871652     1.510034979303    -0.956007026386     1.007825032230
         H            3.593312871652     1.631364979303     0.808727973614     1.007825032230
         H            5.034622871652     0.999915979303    -0.009068026386     1.007825032230

  Basis Set: AUG-CC-PVTZ
    Blend: AUG-CC-PVTZ
  Basis Set: (AUG-CC-PVTZ AUX)
    Blend: AUG-CC-PVTZ-JKFIT
	 Reference Energy          =    -308.7624879074142541 [Eh]
	 Singles Energy            =      -0.0000000000000000 [Eh]
	 Same-Spin Energy          =      -0.3332799007495436 [Eh]
	 Opposite-Spin Energy      =      -1.1357329059982750 [Eh]
	 Correlation Energy        =      -1.4690128067478185 [Eh]
	 Total Energy              =    -310.2315007141620526 [Eh]

	 ================> DF-SCS-MP2 Energies <==================
	-----------------------------------------------------------
	 SCS Same-Spin Scale       =       0.3333333333333333 [-]
	 SCS Opposite-Spin Scale   =       1.2000000000000000 [-]
	 SCS Same-Spin Energy      =      -0.1110933002498479 [Eh]
	 SCS Opposite-Spin Energy  =      -1.3628794871979300 [Eh]
	 SCS Correlation Energy    =      -1.4739727874477779 [Eh]
	 SCS Total Energy          =    -310.2364606948620462 [Eh]
	-----------------------------------------------------------

  Dipole Moment: [D]
     X:    -0.0000      Y:     0.2258      Z:     0.0002     Total:     0.2258

*** Psi4 exiting successfully. Buy a developer a beer!
