                               Psi4 1.3.2 release

  ==> Input File <==

--------------------------------------------------------------------------
#psi4
#
memory 32 gb

molecule  {
0 1
  C       -3.3721060    -0.3925950    -0.0575320
  C        3.3720920    -0.3929730     0.0571420
  C       -3.9415050     1.0253280     0.0313370
  C        3.9413990     1.0251120    -0.0302390
  C       -1.9110240    -0.4097670    -0.0329750
  C        1.9110920    -0.4103270     0.0325030
  C       -0.6837130    -0.4127480    -0.0120990
  C        0.6837810    -0.4128680     0.0116400
  H       -3.7516860    -0.9979840     0.7738320
  H       -3.6890192    -0.8318181    -0.8936855
  H        3.7518700    -0.9975380    -0.7747680
  H        3.7209340    -0.8772010     0.9767210
  H       -3.5935250     1.6324230    -0.8070360
  H       -3.6247440     1.5093170     0.9575960
  H       -5.0347610     1.0001480     0.0102760
  H        3.6246290     1.5100350    -0.9560070
  H        3.5933130     1.6313650     0.8087280
  H        5.0346230     0.9999160    -0.0090680
units angstrom
no_reorient  #important for SAPT in psi4, default
symmetry c1  #important for SAPT in psi4, default
}

set PROPERTIES_ORIGIN ["COM"]
properties('MP2/aug-cc-pvtz', properties = ['dipole'])
--------------------------------------------------------------------------

    Molecular point group: c1
  Charge       = 0
  Multiplicity = 1
  Basis Set: AUG-CC-PVTZ
    Blend: AUG-CC-PVTZ
  Basis Set: (AUG-CC-PVTZ AUX)
    Blend: AUG-CC-PVTZ-JKFIT

    Orbital Energies [Eh]
    ---------------------

    Doubly Occupied:

       1A    -11.256973     2A    -11.245558     3A    -11.245443
       4A    -11.244798     5A    -11.241209     6A    -11.240105
       7A    -11.227048     8A    -11.226514     9A     -1.095828
      10A     -1.081668    11A     -1.033706    12A     -0.973792
      13A     -0.891877    14A     -0.871052    15A     -0.788040
      16A     -0.661901    17A     -0.649030    18A     -0.636768
      19A     -0.629965    20A     -0.555859    21A     -0.553247
      22A     -0.528837    23A     -0.525453    24A     -0.519749
      25A     -0.515388    26A     -0.452183    27A     -0.451200
      28A     -0.328782    29A     -0.328115

  @DF-RHF Final Energy:  -308.75673186337747

   => Energetics <=

    Nuclear Repulsion Energy =            288.8001552901893660
    One-Electron Energy =                -987.1135967660014785
    Two-Electron Energy =                 389.5567096124347017
    Total Energy =                       -308.7567318633774676
  Basis Set: (AUG-CC-PVTZ AUX)
    Blend: AUG-CC-PVTZ-RI
    Molecular point group: c1

    Geometry (in Angstrom), charge = 0, multiplicity = 1:

       Center              X                  Y                   Z               Mass
    ------------   -----------------  -----------------  -----------------  -----------------
         C           -3.372408355435    -0.393013889684    -0.058329430741    12.000000000000
         C            3.371789644565    -0.393391889684     0.056344569259    12.000000000000
         C           -3.941807355435     1.024909110316     0.030539569259    12.000000000000
         C            3.941096644565     1.024693110316    -0.031036430741    12.000000000000
         C           -1.911326355435    -0.410185889684    -0.033772430741    12.000000000000
         C            1.910789644565    -0.410745889684     0.031705569259    12.000000000000
         C           -0.684015355435    -0.413166889684    -0.012896430741    12.000000000000
         C            0.683478644565    -0.413286889684     0.010842569259    12.000000000000
         H           -3.751988355435    -0.998402889684     0.773034569259     1.007825032230
         H           -3.689321555435    -0.832236989684    -0.894482930741     1.007825032230
         H            3.751567644565    -0.997956889684    -0.775565430741     1.007825032230
         H            3.720631644565    -0.877619889684     0.975923569259     1.007825032230
         H           -3.593827355435     1.632004110316    -0.807833430741     1.007825032230
         H           -3.625046355435     1.508898110316     0.956798569259     1.007825032230
         H           -5.035063355435     0.999729110316     0.009478569259     1.007825032230
         H            3.624326644565     1.509616110316    -0.956804430741     1.007825032230
         H            3.593010644565     1.630946110316     0.807930569259     1.007825032230
         H            5.034320644565     0.999497110316    -0.009865430741     1.007825032230

  Basis Set: AUG-CC-PVTZ
    Blend: AUG-CC-PVTZ
  Basis Set: (AUG-CC-PVTZ AUX)
    Blend: AUG-CC-PVTZ-JKFIT
	 Reference Energy          =    -308.7567318633774676 [Eh]
	 Singles Energy            =      -0.0000000000000000 [Eh]
	 Same-Spin Energy          =      -0.3332206720248622 [Eh]
	 Opposite-Spin Energy      =      -1.1352558803237340 [Eh]
	 Correlation Energy        =      -1.4684765523485963 [Eh]
	 Total Energy              =    -310.2252084157260583 [Eh]

	 ================> DF-SCS-MP2 Energies <==================
	-----------------------------------------------------------
	 SCS Same-Spin Scale       =       0.3333333333333333 [-]
	 SCS Opposite-Spin Scale   =       1.2000000000000000 [-]
	 SCS Same-Spin Energy      =      -0.1110735573416207 [Eh]
	 SCS Opposite-Spin Energy  =      -1.3623070563884807 [Eh]
	 SCS Correlation Energy    =      -1.4733806137301015 [Eh]
	 SCS Total Energy          =    -310.2301124771075820 [Eh]
	-----------------------------------------------------------

  Dipole Moment: [D]
     X:    -0.0279      Y:     0.2045      Z:    -0.0175     Total:     0.2071

*** Psi4 exiting successfully. Buy a developer a beer!
