                               Psi4 1.3.2 release

  ==> Input File <==

--------------------------------------------------------------------------
#psi4
#
memory 32 gb

molecule  {
0 1
  C       -3.3717964    -0.4435917    -0.0586323
  C        3.3720920    -0.3929730     0.0571420
  C       -3.9415050     1.0253280     0.0313370
  C        3.9413990     1.0251120    -0.0302390
  C       -1.9110240    -0.4097670    -0.0329750
  C        1.9110920    -0.4103270     0.0325030
  C       -0.6845489    -0.4555749    -0.0130417
  C        0.6837810    -0.4128680     0.0116400
  H       -3.7516860    -0.9979840     0.7738320
  H       -3.7208300    -0.8759060    -0.9776160
  H        3.7518700    -0.9975380    -0.7747680
  H        3.7209340    -0.8772010     0.9767210
  H       -3.5935250     1.6324230    -0.8070360
  H       -3.6247440     1.5093170     0.9575960
  H       -5.0347610     1.0001480     0.0102760
  H        3.6246290     1.5100350    -0.9560070
  H        3.5933130     1.6313650     0.8087280
  H        5.0346230     0.9999160    -0.0090680
units angstrom
no_reorient  #important for SAPT in psi4, default
symmetry c1  #important for SAPT in psi4, default
}

set PROPERTIES_ORIGIN ["COM"]
properties('MP2/aug-cc-pvtz', properties = ['dipole'])
--------------------------------------------------------------------------

    Molecular point group: c1
  Charge       = 0
  Multiplicity = 1
  Basis Set: AUG-CC-PVTZ
    Blend: AUG-CC-PVTZ
  Basis Set: (AUG-CC-PVTZ AUX)
    Blend: AUG-CC-PVTZ-JKFIT

    Orbital Energies [Eh]
    ---------------------

    Doubly Occupied:

       1A    -11.257033     2A    -11.255164     3A    -11.245770
       4A    -11.245543     5A    -11.241508     6A    -11.240440
       7A    -11.229335     8A    -11.227000     9A     -1.092893
      10A     -1.077070    11A     -1.030197    12A     -0.972219
      13A     -0.890147    14A     -0.869332    15A     -0.786400
      16A     -0.657100    17A     -0.646465    18A     -0.634867
      19A     -0.629961    20A     -0.555002    21A     -0.542613
      22A     -0.526926    23A     -0.525276    24A     -0.523342
      25A     -0.515849    26A     -0.452001    27A     -0.449632
      28A     -0.328876    29A     -0.327765

  @DF-RHF Final Energy:  -308.76045265676402

   => Energetics <=

    Nuclear Repulsion Energy =            287.9378099260297859
    One-Electron Energy =                -985.4450728745239303
    Two-Electron Energy =                 388.7468102917301280
    Total Energy =                       -308.7604526567640164
  Basis Set: (AUG-CC-PVTZ AUX)
    Blend: AUG-CC-PVTZ-RI
    Molecular point group: c1

    Geometry (in Angstrom), charge = 0, multiplicity = 1:

       Center              X                  Y                   Z               Mass
    ------------   -----------------  -----------------  -----------------  -----------------
         C           -3.371736991167    -0.432978016224    -0.058401213976    12.000000000000
         C            3.372151408833    -0.382359316224     0.057373086024    12.000000000000
         C           -3.941445591167     1.035941683776     0.031568086024    12.000000000000
         C            3.941458408833     1.035725683776    -0.030007913976    12.000000000000
         C           -1.910964591167    -0.399153316224    -0.032743913976    12.000000000000
         C            1.911151408833    -0.399713316224     0.032734086024    12.000000000000
         C           -0.684489491167    -0.444961216224    -0.012810613976    12.000000000000
         C            0.683840408833    -0.402254316224     0.011871086024    12.000000000000
         H           -3.751626591167    -0.987370316224     0.774063086024     1.007825032230
         H           -3.720770591167    -0.865292316224    -0.977384913976     1.007825032230
         H            3.751929408833    -0.986924316224    -0.774536913976     1.007825032230
         H            3.720993408833    -0.866587316224     0.976952086024     1.007825032230
         H           -3.593465591167     1.643036683776    -0.806804913976     1.007825032230
         H           -3.624684591167     1.519930683776     0.957827086024     1.007825032230
         H           -5.034701591167     1.010761683776     0.010507086024     1.007825032230
         H            3.624688408833     1.520648683776    -0.955775913976     1.007825032230
         H            3.593372408833     1.641978683776     0.808959086024     1.007825032230
         H            5.034682408833     1.010529683776    -0.008836913976     1.007825032230

  Basis Set: AUG-CC-PVTZ
    Blend: AUG-CC-PVTZ
  Basis Set: (AUG-CC-PVTZ AUX)
    Blend: AUG-CC-PVTZ-JKFIT
	 Reference Energy          =    -308.7604526567640164 [Eh]
	 Singles Energy            =      -0.0000000000000000 [Eh]
	 Same-Spin Energy          =      -0.3330622346532446 [Eh]
	 Opposite-Spin Energy      =      -1.1356045835681221 [Eh]
	 Correlation Energy        =      -1.4686668182213667 [Eh]
	 Total Energy              =    -310.2291194749853958 [Eh]

	 ================> DF-SCS-MP2 Energies <==================
	-----------------------------------------------------------
	 SCS Same-Spin Scale       =       0.3333333333333333 [-]
	 SCS Opposite-Spin Scale   =       1.2000000000000000 [-]
	 SCS Same-Spin Energy      =      -0.1110207448844149 [Eh]
	 SCS Opposite-Spin Energy  =      -1.3627255002817464 [Eh]
	 SCS Correlation Energy    =      -1.4737462451661614 [Eh]
	 SCS Total Energy          =    -310.2341989019301991 [Eh]
	-----------------------------------------------------------

  Dipole Moment: [D]
     X:    -0.0038      Y:     0.2070      Z:     0.0000     Total:     0.2070

*** Psi4 exiting successfully. Buy a developer a beer!
