                               Psi4 1.3.2 release

  ==> Input File <==

--------------------------------------------------------------------------
#psi4
#
memory 32 gb

molecule  {
0 1
  C       -3.3721060    -0.3925950    -0.0575320
  C        3.3720920    -0.3929730     0.0571420
  C       -3.9477887     1.0234712     0.0196979
  C        3.9413990     1.0251120    -0.0302390
  C       -1.9110240    -0.4097670    -0.0329750
  C        1.9110920    -0.4103270     0.0325030
  C       -0.6837130    -0.4127480    -0.0120990
  C        0.6837810    -0.4128680     0.0116400
  H       -3.7516860    -0.9979840     0.7738320
  H       -3.7256953    -0.8679869    -0.9798821
  H        3.7518700    -0.9975380    -0.7747680
  H        3.7209340    -0.8772010     0.9767210
  H       -3.5935250     1.6324230    -0.8070360
  H       -3.6247440     1.5093170     0.9575960
  H       -5.0347610     1.0001480     0.0102760
  H        3.6246290     1.5100350    -0.9560070
  H        3.5933130     1.6313650     0.8087280
  H        5.0346230     0.9999160    -0.0090680
units angstrom
no_reorient  #important for SAPT in psi4, default
symmetry c1  #important for SAPT in psi4, default
}

set PROPERTIES_ORIGIN ["COM"]
properties('MP2/aug-cc-pvtz', properties = ['dipole'])
--------------------------------------------------------------------------

    Molecular point group: c1
  Charge       = 0
  Multiplicity = 1
  Basis Set: AUG-CC-PVTZ
    Blend: AUG-CC-PVTZ
  Basis Set: (AUG-CC-PVTZ AUX)
    Blend: AUG-CC-PVTZ-JKFIT

    Orbital Energies [Eh]
    ---------------------

    Doubly Occupied:

       1A    -11.257164     2A    -11.257064     3A    -11.245931
       4A    -11.245768     5A    -11.241667     6A    -11.240580
       7A    -11.227202     8A    -11.227033     9A     -1.094049
      10A     -1.079324    11A     -1.032546    12A     -0.973945
      13A     -0.889919    14A     -0.867927    15A     -0.786298
      16A     -0.656874    17A     -0.646791    18A     -0.630685
      19A     -0.629334    20A     -0.556633    21A     -0.554100
      22A     -0.526735    23A     -0.525624    24A     -0.517579
      25A     -0.512648    26A     -0.451772    27A     -0.450945
      28A     -0.328940    29A     -0.328045

  @DF-RHF Final Energy:  -308.76225497356239

   => Energetics <=

    Nuclear Repulsion Energy =            288.3057873954439287
    One-Electron Energy =                -986.1698433467809082
    Two-Electron Energy =                 389.1018009777745306
    Total Energy =                       -308.7622549735623920
  Basis Set: (AUG-CC-PVTZ AUX)
    Blend: AUG-CC-PVTZ-RI
    Molecular point group: c1

    Geometry (in Angstrom), charge = 0, multiplicity = 1:

       Center              X                  Y                   Z               Mass
    ------------   -----------------  -----------------  -----------------  -----------------
         C           -3.371349066737    -0.392460209530    -0.056193834703    12.000000000000
         C            3.372848933263    -0.392838209530     0.058480165297    12.000000000000
         C           -3.947031766737     1.023605990470     0.021036065297    12.000000000000
         C            3.942155933263     1.025246790470    -0.028900834703    12.000000000000
         C           -1.910267066737    -0.409632209530    -0.031636834703    12.000000000000
         C            1.911848933263    -0.410192209530     0.033841165297    12.000000000000
         C           -0.682956066737    -0.412613209530    -0.010760834703    12.000000000000
         C            0.684537933263    -0.412733209530     0.012978165297    12.000000000000
         H           -3.750929066737    -0.997849209530     0.775170165297     1.007825032230
         H           -3.724938366737    -0.867852109530    -0.978543934703     1.007825032230
         H            3.752626933263    -0.997403209530    -0.773429834703     1.007825032230
         H            3.721690933263    -0.877066209530     0.978059165297     1.007825032230
         H           -3.592768066737     1.632557790470    -0.805697834703     1.007825032230
         H           -3.623987066737     1.509451790470     0.958934165297     1.007825032230
         H           -5.034004066737     1.000282790470     0.011614165297     1.007825032230
         H            3.625385933263     1.510169790470    -0.954668834703     1.007825032230
         H            3.594069933263     1.631499790470     0.810066165297     1.007825032230
         H            5.035379933263     1.000050790470    -0.007729834703     1.007825032230

  Basis Set: AUG-CC-PVTZ
    Blend: AUG-CC-PVTZ
  Basis Set: (AUG-CC-PVTZ AUX)
    Blend: AUG-CC-PVTZ-JKFIT
	 Reference Energy          =    -308.7622549735623920 [Eh]
	 Singles Energy            =      -0.0000000000000000 [Eh]
	 Same-Spin Energy          =      -0.3332853122521795 [Eh]
	 Opposite-Spin Energy      =      -1.1357564298358862 [Eh]
	 Correlation Energy        =      -1.4690417420880657 [Eh]
	 Total Energy              =    -310.2312967156504442 [Eh]

	 ================> DF-SCS-MP2 Energies <==================
	-----------------------------------------------------------
	 SCS Same-Spin Scale       =       0.3333333333333333 [-]
	 SCS Opposite-Spin Scale   =       1.2000000000000000 [-]
	 SCS Same-Spin Energy      =      -0.1110951040840598 [Eh]
	 SCS Opposite-Spin Energy  =      -1.3629077158030634 [Eh]
	 SCS Correlation Energy    =      -1.4740028198871231 [Eh]
	 SCS Total Energy          =    -310.2362577934495107 [Eh]
	-----------------------------------------------------------

  Dipole Moment: [D]
     X:     0.0057      Y:     0.2262      Z:    -0.0053     Total:     0.2264

*** Psi4 exiting successfully. Buy a developer a beer!
