                               Psi4 1.3.2 release

  ==> Input File <==

--------------------------------------------------------------------------
#psi4
#
memory 32 gb

molecule  {
0 1
  C       -3.3721060    -0.3925950    -0.0575320
  C        3.3720920    -0.3929730     0.0571420
  C       -3.9159416     1.0316740     0.0778167
  C        3.9413990     1.0251120    -0.0302390
  C       -1.9110240    -0.4097670    -0.0329750
  C        1.9110920    -0.4103270     0.0325030
  C       -0.6837130    -0.4127480    -0.0120990
  C        0.6837810    -0.4128680     0.0116400
  H       -3.7516860    -0.9979840     0.7738320
  H       -3.7011071    -0.9072083    -0.9678528
  H        3.7518700    -0.9975380    -0.7747680
  H        3.7209340    -0.8772010     0.9767210
  H       -3.5935250     1.6324230    -0.8070360
  H       -3.6247440     1.5093170     0.9575960
  H       -5.0347610     1.0001480     0.0102760
  H        3.6246290     1.5100350    -0.9560070
  H        3.5933130     1.6313650     0.8087280
  H        5.0346230     0.9999160    -0.0090680
units angstrom
no_reorient  #important for SAPT in psi4, default
symmetry c1  #important for SAPT in psi4, default
}

set PROPERTIES_ORIGIN ["COM"]
properties('MP2/aug-cc-pvtz', properties = ['dipole'])
--------------------------------------------------------------------------

    Molecular point group: c1
  Charge       = 0
  Multiplicity = 1
  Basis Set: AUG-CC-PVTZ
    Blend: AUG-CC-PVTZ
  Basis Set: (AUG-CC-PVTZ AUX)
    Blend: AUG-CC-PVTZ-JKFIT

    Orbital Energies [Eh]
    ---------------------

    Doubly Occupied:

       1A    -11.257592     2A    -11.256888     3A    -11.245321
       4A    -11.245075     5A    -11.241052     6A    -11.239900
       7A    -11.228319     8A    -11.226986     9A     -1.094071
      10A     -1.079539    11A     -1.032190    12A     -0.973361
      13A     -0.890469    14A     -0.868750    15A     -0.786086
      16A     -0.656085    17A     -0.645890    18A     -0.631770
      19A     -0.629734    20A     -0.557395    21A     -0.553812
      22A     -0.530978    23A     -0.525295    24A     -0.516404
      25A     -0.509490    26A     -0.451649    27A     -0.450266
      28A     -0.328434    29A     -0.327408

  @DF-RHF Final Energy:  -308.75883735632232

   => Energetics <=

    Nuclear Repulsion Energy =            288.4603934881469627
    One-Electron Energy =                -986.4780429152195893
    Two-Electron Energy =                 389.2588120707503663
    Total Energy =                       -308.7588373563223172
  Basis Set: (AUG-CC-PVTZ AUX)
    Blend: AUG-CC-PVTZ-RI
    Molecular point group: c1

    Geometry (in Angstrom), charge = 0, multiplicity = 1:

       Center              X                  Y                   Z               Mass
    ------------   -----------------  -----------------  -----------------  -----------------
         C           -3.375185346108    -0.393015509896    -0.062882755641    12.000000000000
         C            3.369012653892    -0.393393509896     0.051791244359    12.000000000000
         C           -3.919020946108     1.031253490104     0.072465944359    12.000000000000
         C            3.938319653892     1.024691490104    -0.035589755641    12.000000000000
         C           -1.914103346108    -0.410187509896    -0.038325755641    12.000000000000
         C            1.908012653892    -0.410747509896     0.027152244359    12.000000000000
         C           -0.686792346108    -0.413168509896    -0.017449755641    12.000000000000
         C            0.680701653892    -0.413288509896     0.006289244359    12.000000000000
         H           -3.754765346108    -0.998404509896     0.768481244359     1.007825032230
         H           -3.704186446108    -0.907628809896    -0.973203555641     1.007825032230
         H            3.748790653892    -0.997958509896    -0.780118755641     1.007825032230
         H            3.717854653892    -0.877621509896     0.971370244359     1.007825032230
         H           -3.596604346108     1.632002490104    -0.812386755641     1.007825032230
         H           -3.627823346108     1.508896490104     0.952245244359     1.007825032230
         H           -5.037840346108     0.999727490104     0.004925244359     1.007825032230
         H            3.621549653892     1.509614490104    -0.961357755641     1.007825032230
         H            3.590233653892     1.630944490104     0.803377244359     1.007825032230
         H            5.031543653892     0.999495490104    -0.014418755641     1.007825032230

  Basis Set: AUG-CC-PVTZ
    Blend: AUG-CC-PVTZ
  Basis Set: (AUG-CC-PVTZ AUX)
    Blend: AUG-CC-PVTZ-JKFIT
	 Reference Energy          =    -308.7588373563223172 [Eh]
	 Singles Energy            =      -0.0000000000000000 [Eh]
	 Same-Spin Energy          =      -0.3333400655803664 [Eh]
	 Opposite-Spin Energy      =      -1.1358596600653161 [Eh]
	 Correlation Energy        =      -1.4691997256456826 [Eh]
	 Total Energy              =    -310.2280370819680115 [Eh]

	 ================> DF-SCS-MP2 Energies <==================
	-----------------------------------------------------------
	 SCS Same-Spin Scale       =       0.3333333333333333 [-]
	 SCS Opposite-Spin Scale   =       1.2000000000000000 [-]
	 SCS Same-Spin Energy      =      -0.1111133551934555 [Eh]
	 SCS Opposite-Spin Energy  =      -1.3630315920783793 [Eh]
	 SCS Correlation Energy    =      -1.4741449472718349 [Eh]
	 SCS Total Energy          =    -310.2329823035941558 [Eh]
	-----------------------------------------------------------

  Dipole Moment: [D]
     X:    -0.0202      Y:     0.2179      Z:     0.0186     Total:     0.2196

*** Psi4 exiting successfully. Buy a developer a beer!
