                               Psi4 1.3.2 release

  ==> Input File <==

--------------------------------------------------------------------------
#psi4
#
memory 32 gb

molecule  {
0 1
  C       -3.3721060    -0.3925950    -0.0575320
  C        3.3720920    -0.3929730     0.0571420
  C       -3.9415050     1.0253280     0.0313370
  C        3.9413990     1.0251120    -0.0302390
  C       -1.9110240    -0.4097670    -0.0329750
  C        1.9110920    -0.4103270     0.0325030
  C       -0.6837130    -0.4127480    -0.0120990
  C        0.6837810    -0.4128680     0.0116400
  H       -3.7516860    -0.9979840     0.7738320
  H       -3.7208300    -0.8759060    -0.9776160
  H        3.6825844    -0.8872429    -0.6229968
  H        3.7209340    -0.8772010     0.9767210
  H       -3.5935250     1.6324230    -0.8070360
  H       -3.6247440     1.5093170     0.9575960
  H       -5.0347610     1.0001480     0.0102760
  H        3.6246290     1.5100350    -0.9560070
  H        3.5933130     1.6313650     0.8087280
  H        5.0346230     0.9999160    -0.0090680
units angstrom
no_reorient  #important for SAPT in psi4, default
symmetry c1  #important for SAPT in psi4, default
}

set PROPERTIES_ORIGIN ["COM"]
properties('MP2/aug-cc-pvtz', properties = ['dipole'])
--------------------------------------------------------------------------

    Molecular point group: c1
  Charge       = 0
  Multiplicity = 1
  Basis Set: AUG-CC-PVTZ
    Blend: AUG-CC-PVTZ
  Basis Set: (AUG-CC-PVTZ AUX)
    Blend: AUG-CC-PVTZ-JKFIT

    Orbital Energies [Eh]
    ---------------------

    Doubly Occupied:

       1A    -11.256942     2A    -11.245429     3A    -11.244886
       4A    -11.241099     5A    -11.239966     6A    -11.233080
       7A    -11.227009     8A    -11.226082     9A     -1.100082
      10A     -1.084149    11A     -1.035399    12A     -0.974029
      13A     -0.895632    14A     -0.874283    15A     -0.790507
      16A     -0.673348    17A     -0.650737    18A     -0.639019
      19A     -0.629969    20A     -0.555773    21A     -0.553118
      22A     -0.532704    23A     -0.525403    24A     -0.520406
      25A     -0.515565    26A     -0.453092    27A     -0.451026
      28A     -0.329246    29A     -0.328023

  @DF-RHF Final Energy:  -308.72943446371636

   => Energetics <=

    Nuclear Repulsion Energy =            289.3356050603183576
    One-Electron Energy =                -988.0780683941530924
    Two-Electron Energy =                 390.0130288701183758
    Total Energy =                       -308.7294344637163590
  Basis Set: (AUG-CC-PVTZ AUX)
    Blend: AUG-CC-PVTZ-RI
    Molecular point group: c1

    Geometry (in Angstrom), charge = 0, multiplicity = 1:

       Center              X                  Y                   Z               Mass
    ------------   -----------------  -----------------  -----------------  -----------------
         C           -3.371447861815    -0.393642909047    -0.058973969612    12.000000000000
         C            3.372750138185    -0.394020909047     0.055700030388    12.000000000000
         C           -3.940846861815     1.024280090953     0.029895030388    12.000000000000
         C            3.942057138185     1.024064090953    -0.031680969612    12.000000000000
         C           -1.910365861815    -0.410814909047    -0.034416969612    12.000000000000
         C            1.911750138185    -0.411374909047     0.031061030388    12.000000000000
         C           -0.683054861815    -0.413795909047    -0.013540969612    12.000000000000
         C            0.684439138185    -0.413915909047     0.010198030388    12.000000000000
         H           -3.751027861815    -0.999031909047     0.772390030388     1.007825032230
         H           -3.720171861815    -0.876953909047    -0.979057969612     1.007825032230
         H            3.683242538185    -0.888290809047    -0.624438769612     1.007825032230
         H            3.721592138185    -0.878248909047     0.975279030388     1.007825032230
         H           -3.592866861815     1.631375090953    -0.808477969612     1.007825032230
         H           -3.624085861815     1.508269090953     0.956154030388     1.007825032230
         H           -5.034102861815     0.999100090953     0.008834030388     1.007825032230
         H            3.625287138185     1.508987090953    -0.957448969612     1.007825032230
         H            3.593971138185     1.630317090953     0.807286030388     1.007825032230
         H            5.035281138185     0.998868090953    -0.010509969612     1.007825032230

  Basis Set: AUG-CC-PVTZ
    Blend: AUG-CC-PVTZ
  Basis Set: (AUG-CC-PVTZ AUX)
    Blend: AUG-CC-PVTZ-JKFIT
	 Reference Energy          =    -308.7294344637163590 [Eh]
	 Singles Energy            =      -0.0000000000000000 [Eh]
	 Same-Spin Energy          =      -0.3332349535980269 [Eh]
	 Opposite-Spin Energy      =      -1.1351662897350669 [Eh]
	 Correlation Energy        =      -1.4684012433330937 [Eh]
	 Total Energy              =    -310.1978357070494781 [Eh]

	 ================> DF-SCS-MP2 Energies <==================
	-----------------------------------------------------------
	 SCS Same-Spin Scale       =       0.3333333333333333 [-]
	 SCS Opposite-Spin Scale   =       1.2000000000000000 [-]
	 SCS Same-Spin Energy      =      -0.1110783178660090 [Eh]
	 SCS Opposite-Spin Energy  =      -1.3621995476820803 [Eh]
	 SCS Correlation Energy    =      -1.4732778655480891 [Eh]
	 SCS Total Energy          =    -310.2027123292644433 [Eh]
	-----------------------------------------------------------

  Dipole Moment: [D]
     X:     0.0389      Y:     0.1906      Z:    -0.0156     Total:     0.1952

*** Psi4 exiting successfully. Buy a developer a beer!
