                               Psi4 1.3.2 release

  ==> Input File <==

--------------------------------------------------------------------------
#psi4
#
memory 32 gb

molecule  {
0 1
  C       -3.3721060    -0.3925950    -0.0575320
  C        3.3720920    -0.3929730     0.0571420
  C       -3.9415050     1.0253280     0.0313370
  C        3.9413990     1.0251120    -0.0302390
  C       -1.9102715    -0.4521370    -0.0392953
  C        1.9110920    -0.4103270     0.0325030
  C       -0.6837130    -0.4127480    -0.0120990
  C        0.6830663    -0.4600756     0.0045711
  H       -3.7516860    -0.9979840     0.7738320
  H       -3.7208300    -0.8759060    -0.9776160
  H        3.7518700    -0.9975380    -0.7747680
  H        3.7209340    -0.8772010     0.9767210
  H       -3.5935250     1.6324230    -0.8070360
  H       -3.6247440     1.5093170     0.9575960
  H       -5.0347610     1.0001480     0.0102760
  H        3.6246290     1.5100350    -0.9560070
  H        3.5933130     1.6313650     0.8087280
  H        5.0346230     0.9999160    -0.0090680
units angstrom
no_reorient  #important for SAPT in psi4, default
symmetry c1  #important for SAPT in psi4, default
}

set PROPERTIES_ORIGIN ["COM"]
properties('MP2/aug-cc-pvtz', properties = ['dipole'])
--------------------------------------------------------------------------

    Molecular point group: c1
  Charge       = 0
  Multiplicity = 1
  Basis Set: AUG-CC-PVTZ
    Blend: AUG-CC-PVTZ
  Basis Set: (AUG-CC-PVTZ AUX)
    Blend: AUG-CC-PVTZ-JKFIT

    Orbital Energies [Eh]
    ---------------------

    Doubly Occupied:

       1A    -11.257188     2A    -11.257185     3A    -11.246277
       4A    -11.245775     5A    -11.241793     6A    -11.240594
       7A    -11.227730     8A    -11.227308     9A     -1.093759
      10A     -1.078942    11A     -1.032412    12A     -0.973826
      13A     -0.890640    14A     -0.868378    15A     -0.785686
      16A     -0.655677    17A     -0.644990    18A     -0.630782
      19A     -0.629482    20A     -0.557540    21A     -0.554015
      22A     -0.525893    23A     -0.524686    24A     -0.518746
      25A     -0.514453    26A     -0.451590    27A     -0.450678
      28A     -0.328805    29A     -0.327461

  @DF-RHF Final Energy:  -308.76162145194860

   => Energetics <=

    Nuclear Repulsion Energy =            288.1398518346435367
    One-Electron Energy =                -985.8383666408518593
    Two-Electron Energy =                 388.9368933542597233
    Total Energy =                       -308.7616214519485993
  Basis Set: (AUG-CC-PVTZ AUX)
    Blend: AUG-CC-PVTZ-RI
    Molecular point group: c1

    Geometry (in Angstrom), charge = 0, multiplicity = 1:

       Center              X                  Y                   Z               Mass
    ------------   -----------------  -----------------  -----------------  -----------------
         C           -3.372110404437    -0.382461640888    -0.056017386019    12.000000000000
         C            3.372087595563    -0.382839640888     0.058656613981    12.000000000000
         C           -3.941509404437     1.035461359112     0.032851613981    12.000000000000
         C            3.941394595563     1.035245359112    -0.028724386019    12.000000000000
         C           -1.910275904437    -0.442003640888    -0.037780686019    12.000000000000
         C            1.911087595563    -0.400193640888     0.034017613981    12.000000000000
         C           -0.683717404437    -0.402614640888    -0.010584386019    12.000000000000
         C            0.683061895563    -0.449942240888     0.006085713981    12.000000000000
         H           -3.751690404437    -0.987850640888     0.775346613981     1.007825032230
         H           -3.720834404437    -0.865772640888    -0.976101386019     1.007825032230
         H            3.751865595563    -0.987404640888    -0.773253386019     1.007825032230
         H            3.720929595563    -0.867067640888     0.978235613981     1.007825032230
         H           -3.593529404437     1.642556359112    -0.805521386019     1.007825032230
         H           -3.624748404437     1.519450359112     0.959110613981     1.007825032230
         H           -5.034765404437     1.010281359112     0.011790613981     1.007825032230
         H            3.624624595563     1.520168359112    -0.954492386019     1.007825032230
         H            3.593308595563     1.641498359112     0.810242613981     1.007825032230
         H            5.034618595563     1.010049359112    -0.007553386019     1.007825032230

  Basis Set: AUG-CC-PVTZ
    Blend: AUG-CC-PVTZ
  Basis Set: (AUG-CC-PVTZ AUX)
    Blend: AUG-CC-PVTZ-JKFIT
	 Reference Energy          =    -308.7616214519485993 [Eh]
	 Singles Energy            =      -0.0000000000000000 [Eh]
	 Same-Spin Energy          =      -0.3333235146431508 [Eh]
	 Opposite-Spin Energy      =      -1.1358921702494200 [Eh]
	 Correlation Energy        =      -1.4692156848925708 [Eh]
	 Total Energy              =    -310.2308371368411599 [Eh]

	 ================> DF-SCS-MP2 Energies <==================
	-----------------------------------------------------------
	 SCS Same-Spin Scale       =       0.3333333333333333 [-]
	 SCS Opposite-Spin Scale   =       1.2000000000000000 [-]
	 SCS Same-Spin Energy      =      -0.1111078382143836 [Eh]
	 SCS Opposite-Spin Energy  =      -1.3630706042993039 [Eh]
	 SCS Correlation Energy    =      -1.4741784425136875 [Eh]
	 SCS Total Energy          =    -310.2357998944622750 [Eh]
	-----------------------------------------------------------

  Dipole Moment: [D]
     X:    -0.0044      Y:     0.2713      Z:     0.0062     Total:     0.2714

*** Psi4 exiting successfully. Buy a developer a beer!
