                               Psi4 1.4a3.dev225

  ==> Input File <==

--------------------------------------------------------------------------
#psi4
#
memory 32 gb

molecule  {
0 1
  C       -3.3104600     0.6645600    -0.0001290
  C        3.3104610    -0.6645590    -0.0001300
  C       -4.1189600    -0.6381980     0.0003020
  C        4.1189570     0.6382020     0.0003020
  C       -1.8678680     0.4225120    -0.0001420
  C        1.8678690    -0.4225150    -0.0001410
  C       -0.6717070     0.1376470    -0.0001380
  C        0.6717080    -0.1376500    -0.0001380
  H       -3.5746830     1.2664600    -0.8780670
  H       -3.5866220     1.2944406     0.9174946
  H        3.5746860    -1.2664580    -0.8780680
  H        3.5745850    -1.2669760     0.8774840
  H       -3.8858290    -1.2341430     0.8855450
  H       -3.8859300    -1.2346660    -0.8846160
  H       -5.1908980    -0.4200070     0.0002980
  H        3.8859240     1.2346690    -0.8846160
  H        3.8858250     1.2341450     0.8855460
  H        5.1908960     0.4200140     0.0002970
units angstrom
no_reorient  #important for SAPT in psi4, default
symmetry c1  #important for SAPT in psi4, default
}

set PROPERTIES_ORIGIN ["COM"]
properties('MP2/aug-cc-pvtz', properties = ['dipole'])
--------------------------------------------------------------------------

    Molecular point group: c1
  Charge       = 0
  Multiplicity = 1
  Basis Set: AUG-CC-PVTZ
    Blend: AUG-CC-PVTZ
  Basis Set: (AUG-CC-PVTZ AUX)
    Blend: AUG-CC-PVTZ-JKFIT

    Orbital Energies [Eh]
    ---------------------

    Doubly Occupied:

       1A    -11.263431     2A    -11.257781     3A    -11.246985
       4A    -11.246753     5A    -11.242920     6A    -11.241862
       7A    -11.227865     8A    -11.227541     9A     -1.092958
      10A     -1.077806    11A     -1.030904    12A     -0.972971
      13A     -0.889059    14A     -0.866887    15A     -0.784981
      16A     -0.655244    17A     -0.644429    18A     -0.629737
      19A     -0.624633    20A     -0.557244    21A     -0.552244
      22A     -0.526227    23A     -0.524280    24A     -0.517546
      25A     -0.512395    26A     -0.451044    27A     -0.449801
      28A     -0.328848    29A     -0.327841

  @DF-RHF Final Energy:  -308.75940174557434

   => Energetics <=

    Nuclear Repulsion Energy =            287.8053339694965302
    One-Electron Energy =                -985.1850359994430164
    Two-Electron Energy =                 388.6203002843720924
    Total Energy =                       -308.7594017455743369
  Basis Set: (AUG-CC-PVTZ AUX)
    Blend: AUG-CC-PVTZ-RI
    Molecular point group: c1

    Geometry (in Angstrom), charge = 0, multiplicity = 1:

       Center              X                  Y                   Z               Mass
    ------------   -----------------  -----------------  -----------------  -----------------
         C           -3.310345553728     0.664299045272    -0.000497150445    12.000000000000
         C            3.310575446272    -0.664819954728    -0.000498150445    12.000000000000
         C           -4.118845553728    -0.638458954728    -0.000066150445    12.000000000000
         C            4.119071446272     0.637941045272    -0.000066150445    12.000000000000
         C           -1.867753553728     0.422251045272    -0.000510150445    12.000000000000
         C            1.867983446272    -0.422775954728    -0.000509150445    12.000000000000
         C           -0.671592553728     0.137386045272    -0.000506150445    12.000000000000
         C            0.671822446272    -0.137910954728    -0.000506150445    12.000000000000
         H           -3.574568553728     1.266199045272    -0.878435150445     1.007825032230
         H           -3.586507553728     1.294179645272     0.917126449555     1.007825032230
         H            3.574800446272    -1.266718954728    -0.878436150445     1.007825032230
         H            3.574699446272    -1.267236954728     0.877115849555     1.007825032230
         H           -3.885714553728    -1.234403954728     0.885176849555     1.007825032230
         H           -3.885815553728    -1.234926954728    -0.884984150445     1.007825032230
         H           -5.190783553728    -0.420267954728    -0.000070150445     1.007825032230
         H            3.886038446272     1.234408045272    -0.884984150445     1.007825032230
         H            3.885939446272     1.233884045272     0.885177849555     1.007825032230
         H            5.191010446272     0.419753045272    -0.000071150445     1.007825032230

  Basis Set: AUG-CC-PVTZ
    Blend: AUG-CC-PVTZ
  Basis Set: (AUG-CC-PVTZ AUX)
    Blend: AUG-CC-PVTZ-JKFIT
	 Reference Energy          =    -308.7594017455743369 [Eh]
	 Singles Energy            =      -0.0000000000000000 [Eh]
	 Same-Spin Energy          =      -0.3334497007836661 [Eh]
	 Opposite-Spin Energy      =      -1.1366231895525325 [Eh]
	 Correlation Energy        =      -1.4700728903361986 [Eh]
	 Total Energy              =    -310.2294746359105488 [Eh]

	 ================> DF-SCS-MP2 Energies <==================
	-----------------------------------------------------------
	 SCS Same-Spin Scale       =       0.3333333333333333 [-]
	 SCS Opposite-Spin Scale   =       1.2000000000000000 [-]
	 SCS Same-Spin Energy      =      -0.1111499002612220 [Eh]
	 SCS Opposite-Spin Energy  =      -1.3639478274630390 [Eh]
	 SCS Correlation Energy    =      -1.4750977277242610 [Eh]
	 SCS Total Energy          =    -310.2344994732985697 [Eh]
	-----------------------------------------------------------

  Dipole Moment: [D]
     X:     0.0182      Y:    -0.0189      Z:    -0.0129     Total:     0.0293

*** Psi4 exiting successfully. Buy a developer a beer!
