                               Psi4 1.3.2 release

  ==> Input File <==

--------------------------------------------------------------------------
#psi4
#
memory 32 gb

molecule  {
0 1
  C       -3.3721060    -0.3925950    -0.0575320
  C        3.3720920    -0.3929730     0.0571420
  C       -3.9288081     1.0287175     0.0545939
  C        3.9413990     1.0251120    -0.0302390
  C       -1.9110240    -0.4097670    -0.0329750
  C        1.9110920    -0.4103270     0.0325030
  C       -0.6837130    -0.4127480    -0.0120990
  C        0.6837810    -0.4128680     0.0116400
  H       -3.7516860    -0.9979840     0.7738320
  H       -3.7110202    -0.8916332    -0.9728738
  H        3.7518700    -0.9975380    -0.7747680
  H        3.7209340    -0.8772010     0.9767210
  H       -3.5935250     1.6324230    -0.8070360
  H       -3.6247440     1.5093170     0.9575960
  H       -5.0347610     1.0001480     0.0102760
  H        3.6246290     1.5100350    -0.9560070
  H        3.5933130     1.6313650     0.8087280
  H        5.0346230     0.9999160    -0.0090680
units angstrom
no_reorient  #important for SAPT in psi4, default
symmetry c1  #important for SAPT in psi4, default
}

set PROPERTIES_ORIGIN ["COM"]
properties('MP2/aug-cc-pvtz', properties = ['dipole'])
--------------------------------------------------------------------------

    Molecular point group: c1
  Charge       = 0
  Multiplicity = 1
  Basis Set: AUG-CC-PVTZ
    Blend: AUG-CC-PVTZ
  Basis Set: (AUG-CC-PVTZ AUX)
    Blend: AUG-CC-PVTZ-JKFIT

    Orbital Energies [Eh]
    ---------------------

    Doubly Occupied:

       1A    -11.257289     2A    -11.256992     3A    -11.245536
       4A    -11.245352     5A    -11.241271     6A    -11.240171
       7A    -11.227602     8A    -11.227068     9A     -1.094024
      10A     -1.079409    11A     -1.032292    12A     -0.973553
      13A     -0.890123    14A     -0.868323    15A     -0.786136
      16A     -0.656285    17A     -0.646107    18A     -0.631200
      19A     -0.629694    20A     -0.555966    21A     -0.553035
      22A     -0.528181    23A     -0.525418    24A     -0.517359
      25A     -0.513708    26A     -0.451631    27A     -0.450670
      28A     -0.328612    29A     -0.327675

  @DF-RHF Final Energy:  -308.76160851327433

   => Energetics <=

    Nuclear Repulsion Energy =            288.3961962605917506
    One-Electron Energy =                -986.3542451306306020
    Two-Electron Energy =                 389.1964403567645263
    Total Energy =                       -308.7616085132743251
  Basis Set: (AUG-CC-PVTZ AUX)
    Blend: AUG-CC-PVTZ-RI
    Molecular point group: c1

    Geometry (in Angstrom), charge = 0, multiplicity = 1:

       Center              X                  Y                   Z               Mass
    ------------   -----------------  -----------------  -----------------  -----------------
         C           -3.373635653595    -0.392829034117    -0.060207995371    12.000000000000
         C            3.370562346405    -0.393207034117     0.054466004629    12.000000000000
         C           -3.930337753595     1.028483465883     0.051917904629    12.000000000000
         C            3.939869346405     1.024877965883    -0.032914995371    12.000000000000
         C           -1.912553653595    -0.410001034117    -0.035650995371    12.000000000000
         C            1.909562346405    -0.410561034117     0.029827004629    12.000000000000
         C           -0.685242653595    -0.412982034117    -0.014774995371    12.000000000000
         C            0.682251346405    -0.413102034117     0.008964004629    12.000000000000
         H           -3.753215653595    -0.998218034117     0.771156004629     1.007825032230
         H           -3.712549853595    -0.891867234117    -0.975549795371     1.007825032230
         H            3.750340346405    -0.997772034117    -0.777443995371     1.007825032230
         H            3.719404346405    -0.877435034117     0.974045004629     1.007825032230
         H           -3.595054653595     1.632188965883    -0.809711995371     1.007825032230
         H           -3.626273653595     1.509082965883     0.954920004629     1.007825032230
         H           -5.036290653595     0.999913965883     0.007600004629     1.007825032230
         H            3.623099346405     1.509800965883    -0.958682995371     1.007825032230
         H            3.591783346405     1.631130965883     0.806052004629     1.007825032230
         H            5.033093346405     0.999681965883    -0.011743995371     1.007825032230

  Basis Set: AUG-CC-PVTZ
    Blend: AUG-CC-PVTZ
  Basis Set: (AUG-CC-PVTZ AUX)
    Blend: AUG-CC-PVTZ-JKFIT
	 Reference Energy          =    -308.7616085132743251 [Eh]
	 Singles Energy            =      -0.0000000000000000 [Eh]
	 Same-Spin Energy          =      -0.3332935325560759 [Eh]
	 Opposite-Spin Energy      =      -1.1357514324477191 [Eh]
	 Correlation Energy        =      -1.4690449650037949 [Eh]
	 Total Energy              =    -310.2306534782781000 [Eh]

	 ================> DF-SCS-MP2 Energies <==================
	-----------------------------------------------------------
	 SCS Same-Spin Scale       =       0.3333333333333333 [-]
	 SCS Opposite-Spin Scale   =       1.2000000000000000 [-]
	 SCS Same-Spin Energy      =      -0.1110978441853586 [Eh]
	 SCS Opposite-Spin Energy  =      -1.3629017189372630 [Eh]
	 SCS Correlation Energy    =      -1.4739995631226215 [Eh]
	 SCS Total Energy          =    -310.2356080763969430 [Eh]
	-----------------------------------------------------------

  Dipole Moment: [D]
     X:    -0.0107      Y:     0.2232      Z:     0.0102     Total:     0.2236

*** Psi4 exiting successfully. Buy a developer a beer!
