                               Psi4 1.3.2 release

  ==> Input File <==

--------------------------------------------------------------------------
#psi4
#
memory 32 gb

molecule  {
0 1
  C       -3.3721060    -0.3925950    -0.0575320
  C        3.3720920    -0.3929730     0.0571420
  C       -4.0159089     1.2106094     0.0429496
  C        3.9413990     1.0251120    -0.0302390
  C       -1.9110240    -0.4097670    -0.0329750
  C        1.9110920    -0.4103270     0.0325030
  C       -0.6837130    -0.4127480    -0.0120990
  C        0.6837810    -0.4128680     0.0116400
  H       -3.7516860    -0.9979840     0.7738320
  H       -3.7208300    -0.8759060    -0.9776160
  H        3.7518700    -0.9975380    -0.7747680
  H        3.7209340    -0.8772010     0.9767210
  H       -3.5935250     1.6324230    -0.8070360
  H       -3.6247440     1.5093170     0.9575960
  H       -5.0347610     1.0001480     0.0102760
  H        3.6246290     1.5100350    -0.9560070
  H        3.5933130     1.6313650     0.8087280
  H        5.0346230     0.9999160    -0.0090680
units angstrom
no_reorient  #important for SAPT in psi4, default
symmetry c1  #important for SAPT in psi4, default
}

set PROPERTIES_ORIGIN ["COM"]
properties('MP2/aug-cc-pvtz', properties = ['dipole'])
--------------------------------------------------------------------------

    Molecular point group: c1
  Charge       = 0
  Multiplicity = 1
  Basis Set: AUG-CC-PVTZ
    Blend: AUG-CC-PVTZ
  Basis Set: (AUG-CC-PVTZ AUX)
    Blend: AUG-CC-PVTZ-JKFIT

    Orbital Energies [Eh]
    ---------------------

    Doubly Occupied:

       1A    -11.261483     2A    -11.256276     3A    -11.245096
       4A    -11.244226     5A    -11.240142     6A    -11.238690
       7A    -11.228664     8A    -11.226513     9A     -1.089897
      10A     -1.067574    11A     -1.023003    12A     -0.971328
      13A     -0.900079    14A     -0.872106    15A     -0.784519
      16A     -0.653484    17A     -0.643358    18A     -0.630126
      19A     -0.628986    20A     -0.567773    21A     -0.554097
      22A     -0.548711    23A     -0.525032    24A     -0.515541
      25A     -0.496897    26A     -0.450167    27A     -0.438434
      28A     -0.326435    29A     -0.323017

  @DF-RHF Final Energy:  -308.73675493795866

   => Energetics <=

    Nuclear Repulsion Energy =            286.1748604425154667
    One-Electron Energy =                -981.9199235346248997
    Two-Electron Energy =                 387.0083081541507113
    Total Energy =                       -308.7367549379586649
  Basis Set: (AUG-CC-PVTZ AUX)
    Blend: AUG-CC-PVTZ-RI
    Molecular point group: c1

    Geometry (in Angstrom), charge = 0, multiplicity = 1:

       Center              X                  Y                   Z               Mass
    ------------   -----------------  -----------------  -----------------  -----------------
         C           -3.363689258752    -0.413554800796    -0.058845690587    12.000000000000
         C            3.380508741248    -0.413932800796     0.055828309413    12.000000000000
         C           -4.007492158752     1.189649599204     0.041635909413    12.000000000000
         C            3.949815741248     1.004152199204    -0.031552690587    12.000000000000
         C           -1.902607258752    -0.430726800796    -0.034288690587    12.000000000000
         C            1.919508741248    -0.431286800796     0.031189309413    12.000000000000
         C           -0.675296258752    -0.433707800796    -0.013412690587    12.000000000000
         C            0.692197741248    -0.433827800796     0.010326309413    12.000000000000
         H           -3.743269258752    -1.018943800796     0.772518309413     1.007825032230
         H           -3.712413258752    -0.896865800796    -0.978929690587     1.007825032230
         H            3.760286741248    -1.018497800796    -0.776081690587     1.007825032230
         H            3.729350741248    -0.898160800796     0.975407309413     1.007825032230
         H           -3.585108258752     1.611463199204    -0.808349690587     1.007825032230
         H           -3.616327258752     1.488357199204     0.956282309413     1.007825032230
         H           -5.026344258752     0.979188199204     0.008962309413     1.007825032230
         H            3.633045741248     1.489075199204    -0.957320690587     1.007825032230
         H            3.601729741248     1.610405199204     0.807414309413     1.007825032230
         H            5.043039741248     0.978956199204    -0.010381690587     1.007825032230

  Basis Set: AUG-CC-PVTZ
    Blend: AUG-CC-PVTZ
  Basis Set: (AUG-CC-PVTZ AUX)
    Blend: AUG-CC-PVTZ-JKFIT
	 Reference Energy          =    -308.7367549379586649 [Eh]
	 Singles Energy            =      -0.0000000000000000 [Eh]
	 Same-Spin Energy          =      -0.3335052315300677 [Eh]
	 Opposite-Spin Energy      =      -1.1368827859312360 [Eh]
	 Correlation Energy        =      -1.4703880174613038 [Eh]
	 Total Energy              =    -310.2071429554199540 [Eh]

	 ================> DF-SCS-MP2 Energies <==================
	-----------------------------------------------------------
	 SCS Same-Spin Scale       =       0.3333333333333333 [-]
	 SCS Opposite-Spin Scale   =       1.2000000000000000 [-]
	 SCS Same-Spin Energy      =      -0.1111684105100226 [Eh]
	 SCS Opposite-Spin Energy  =      -1.3642593431174832 [Eh]
	 SCS Correlation Energy    =      -1.4754277536275058 [Eh]
	 SCS Total Energy          =    -310.2121826915861789 [Eh]
	-----------------------------------------------------------

  Dipole Moment: [D]
     X:    -0.0857      Y:     0.2409      Z:     0.0001     Total:     0.2557

*** Psi4 exiting successfully. Buy a developer a beer!
