                               Psi4 1.3.2 release

  ==> Input File <==

--------------------------------------------------------------------------
#psi4
#
memory 32 gb

molecule  {
0 1
  C       -3.3719052    -0.3798467    -0.0572522
  C        3.3720920    -0.3929730     0.0571420
  C       -3.9415050     1.0253280     0.0313370
  C        3.9413990     1.0251120    -0.0302390
  C       -1.9110240    -0.4097670    -0.0329750
  C        1.9110920    -0.4103270     0.0325030
  C       -0.6837377    -0.4020387    -0.0118673
  C        0.6837810    -0.4128680     0.0116400
  H       -3.7516860    -0.9979840     0.7738320
  H       -3.7208300    -0.8759060    -0.9776160
  H        3.7518700    -0.9975380    -0.7747680
  H        3.7209340    -0.8772010     0.9767210
  H       -3.5935250     1.6324230    -0.8070360
  H       -3.6247440     1.5093170     0.9575960
  H       -5.0347610     1.0001480     0.0102760
  H        3.6246290     1.5100350    -0.9560070
  H        3.5933130     1.6313650     0.8087280
  H        5.0346230     0.9999160    -0.0090680
units angstrom
no_reorient  #important for SAPT in psi4, default
symmetry c1  #important for SAPT in psi4, default
}

set PROPERTIES_ORIGIN ["COM"]
properties('MP2/aug-cc-pvtz', properties = ['dipole'])
--------------------------------------------------------------------------

    Molecular point group: c1
  Charge       = 0
  Multiplicity = 1
  Basis Set: AUG-CC-PVTZ
    Blend: AUG-CC-PVTZ
  Basis Set: (AUG-CC-PVTZ AUX)
    Blend: AUG-CC-PVTZ-JKFIT

    Orbital Energies [Eh]
    ---------------------

    Doubly Occupied:

       1A    -11.257680     2A    -11.257126     3A    -11.245828
       4A    -11.245673     5A    -11.241577     6A    -11.240498
       7A    -11.227201     8A    -11.226601     9A     -1.094414
      10A     -1.079965    11A     -1.033008    12A     -0.974232
      13A     -0.889894    14A     -0.867677    15A     -0.786031
      16A     -0.656542    17A     -0.646521    18A     -0.630494
      19A     -0.628906    20A     -0.558668    21A     -0.554498
      22A     -0.525635    23A     -0.524821    24A     -0.517865
      25A     -0.513025    26A     -0.452030    27A     -0.450544
      28A     -0.329113    29A     -0.327722

  @DF-RHF Final Energy:  -308.76217230762165

   => Energetics <=

    Nuclear Repulsion Energy =            288.4323596293060064
    One-Electron Energy =                -986.4214859943195961
    Two-Electron Energy =                 389.2269540573919357
    Total Energy =                       -308.7621723076216540
  Basis Set: (AUG-CC-PVTZ AUX)
    Blend: AUG-CC-PVTZ-RI
    Molecular point group: c1

    Geometry (in Angstrom), charge = 0, multiplicity = 1:

       Center              X                  Y                   Z               Mass
    ------------   -----------------  -----------------  -----------------  -----------------
         C           -3.371925249491    -0.382500339126    -0.057310089331    12.000000000000
         C            3.372071950509    -0.395626639126     0.057084110669    12.000000000000
         C           -3.941525049491     1.022674360874     0.031279110669    12.000000000000
         C            3.941378950509     1.022458360874    -0.030296889331    12.000000000000
         C           -1.911044049491    -0.412420639126    -0.033032889331    12.000000000000
         C            1.911071950509    -0.412980639126     0.032445110669    12.000000000000
         C           -0.683757749491    -0.404692339126    -0.011925189331    12.000000000000
         C            0.683760950509    -0.415521639126     0.011582110669    12.000000000000
         H           -3.751706049491    -1.000637639126     0.773774110669     1.007825032230
         H           -3.720850049491    -0.878559639126    -0.977673889331     1.007825032230
         H            3.751849950509    -1.000191639126    -0.774825889331     1.007825032230
         H            3.720913950509    -0.879854639126     0.976663110669     1.007825032230
         H           -3.593545049491     1.629769360874    -0.807093889331     1.007825032230
         H           -3.624764049491     1.506663360874     0.957538110669     1.007825032230
         H           -5.034781049491     0.997494360874     0.010218110669     1.007825032230
         H            3.624608950509     1.507381360874    -0.956064889331     1.007825032230
         H            3.593292950509     1.628711360874     0.808670110669     1.007825032230
         H            5.034602950509     0.997262360874    -0.009125889331     1.007825032230

  Basis Set: AUG-CC-PVTZ
    Blend: AUG-CC-PVTZ
  Basis Set: (AUG-CC-PVTZ AUX)
    Blend: AUG-CC-PVTZ-JKFIT
	 Reference Energy          =    -308.7621723076216540 [Eh]
	 Singles Energy            =      -0.0000000000000000 [Eh]
	 Same-Spin Energy          =      -0.3333529324229716 [Eh]
	 Opposite-Spin Energy      =      -1.1358205294572046 [Eh]
	 Correlation Energy        =      -1.4691734618801762 [Eh]
	 Total Energy              =    -310.2313457695018428 [Eh]

	 ================> DF-SCS-MP2 Energies <==================
	-----------------------------------------------------------
	 SCS Same-Spin Scale       =       0.3333333333333333 [-]
	 SCS Opposite-Spin Scale   =       1.2000000000000000 [-]
	 SCS Same-Spin Energy      =      -0.1111176441409905 [Eh]
	 SCS Opposite-Spin Energy  =      -1.3629846353486454 [Eh]
	 SCS Correlation Energy    =      -1.4741022794896359 [Eh]
	 SCS Total Energy          =    -310.2362745871112679 [Eh]
	-----------------------------------------------------------

  Dipole Moment: [D]
     X:     0.0017      Y:     0.2317      Z:     0.0003     Total:     0.2317

*** Psi4 exiting successfully. Buy a developer a beer!
