                               Psi4 1.4a3.dev225

  ==> Input File <==

--------------------------------------------------------------------------
#psi4
#
memory 32 gb

molecule  {
0 1
  C       -3.3104600     0.6645600    -0.0001290
  C        3.3104610    -0.6645590    -0.0001300
  C       -4.1189600    -0.6381980     0.0003020
  C        4.1189570     0.6382020     0.0003020
  C       -1.8678680     0.4225120    -0.0001420
  C        1.8678690    -0.4225150    -0.0001410
  C       -0.6717070     0.1376470    -0.0001380
  C        0.6717080    -0.1376500    -0.0001380
  H       -3.5746830     1.2664600    -0.8780670
  H       -3.5745810     1.2669770     0.8774850
  H        3.5698677    -1.2554820    -0.8620583
  H        3.5745850    -1.2669760     0.8774840
  H       -3.8858290    -1.2341430     0.8855450
  H       -3.8859300    -1.2346660    -0.8846160
  H       -5.1908980    -0.4200070     0.0002980
  H        3.8859240     1.2346690    -0.8846160
  H        3.8858250     1.2341450     0.8855460
  H        5.1908960     0.4200140     0.0002970
units angstrom
no_reorient  #important for SAPT in psi4, default
symmetry c1  #important for SAPT in psi4, default
}

set PROPERTIES_ORIGIN ["COM"]
properties('MP2/aug-cc-pvtz', properties = ['dipole'])
--------------------------------------------------------------------------

    Molecular point group: c1
  Charge       = 0
  Multiplicity = 1
  Basis Set: AUG-CC-PVTZ
    Blend: AUG-CC-PVTZ
  Basis Set: (AUG-CC-PVTZ AUX)
    Blend: AUG-CC-PVTZ-JKFIT

    Orbital Energies [Eh]
    ---------------------

    Doubly Occupied:

       1A    -11.257642     2A    -11.255324     3A    -11.246600
       4A    -11.246418     5A    -11.242581     6A    -11.241540
       7A    -11.227436     8A    -11.227315     9A     -1.093589
      10A     -1.079124    11A     -1.031563    12A     -0.972858
      13A     -0.889868    14A     -0.868707    15A     -0.785941
      16A     -0.656646    17A     -0.645465    18A     -0.631485
      19A     -0.629314    20A     -0.556926    21A     -0.551928
      22A     -0.526731    23A     -0.524992    24A     -0.518608
      25A     -0.514554    26A     -0.450911    27A     -0.450531
      28A     -0.328669    29A     -0.328003

  @DF-RHF Final Energy:  -308.76164385796324

   => Energetics <=

    Nuclear Repulsion Energy =            288.1042732723236668
    One-Electron Energy =                -985.7692962814546718
    Two-Electron Energy =                 388.9033791511677691
    Total Energy =                       -308.7616438579632359
  Basis Set: (AUG-CC-PVTZ AUX)
    Blend: AUG-CC-PVTZ-RI
    Molecular point group: c1

    Geometry (in Angstrom), charge = 0, multiplicity = 1:

       Center              X                  Y                   Z               Mass
    ------------   -----------------  -----------------  -----------------  -----------------
         C           -3.310414174937     0.664455690164    -0.000269132921    12.000000000000
         C            3.310506825063    -0.664663309836    -0.000270132921    12.000000000000
         C           -4.118914174937    -0.638302309836     0.000161867079    12.000000000000
         C            4.119002825063     0.638097690164     0.000161867079    12.000000000000
         C           -1.867822174937     0.422407690164    -0.000282132921    12.000000000000
         C            1.867914825063    -0.422619309836    -0.000281132921    12.000000000000
         C           -0.671661174937     0.137542690164    -0.000278132921    12.000000000000
         C            0.671753825063    -0.137754309836    -0.000278132921    12.000000000000
         H           -3.574637174937     1.266355690164    -0.878207132921     1.007825032230
         H           -3.574535174937     1.266872690164     0.877344867079     1.007825032230
         H            3.569913525063    -1.255586309836    -0.862198432921     1.007825032230
         H            3.574630825063    -1.267080309836     0.877343867079     1.007825032230
         H           -3.885783174937    -1.234247309836     0.885404867079     1.007825032230
         H           -3.885884174937    -1.234770309836    -0.884756132921     1.007825032230
         H           -5.190852174937    -0.420111309836     0.000157867079     1.007825032230
         H            3.885969825063     1.234564690164    -0.884756132921     1.007825032230
         H            3.885870825063     1.234040690164     0.885405867079     1.007825032230
         H            5.190941825063     0.419909690164     0.000156867079     1.007825032230

  Basis Set: AUG-CC-PVTZ
    Blend: AUG-CC-PVTZ
  Basis Set: (AUG-CC-PVTZ AUX)
    Blend: AUG-CC-PVTZ-JKFIT
	 Reference Energy          =    -308.7616438579632359 [Eh]
	 Singles Energy            =      -0.0000000000000000 [Eh]
	 Same-Spin Energy          =      -0.3333871626778597 [Eh]
	 Opposite-Spin Energy      =      -1.1361569283505943 [Eh]
	 Correlation Energy        =      -1.4695440910284541 [Eh]
	 Total Energy              =    -310.2311879489917033 [Eh]

	 ================> DF-SCS-MP2 Energies <==================
	-----------------------------------------------------------
	 SCS Same-Spin Scale       =       0.3333333333333333 [-]
	 SCS Opposite-Spin Scale   =       1.2000000000000000 [-]
	 SCS Same-Spin Energy      =      -0.1111290542259532 [Eh]
	 SCS Opposite-Spin Energy  =      -1.3633883140207133 [Eh]
	 SCS Correlation Energy    =      -1.4745173682466666 [Eh]
	 SCS Total Energy          =    -310.2361612262099015 [Eh]
	-----------------------------------------------------------

  Dipole Moment: [D]
     X:     0.0061      Y:    -0.0065      Z:    -0.0042     Total:     0.0098

*** Psi4 exiting successfully. Buy a developer a beer!
