                               Psi4 1.4a3.dev225

  ==> Input File <==

--------------------------------------------------------------------------
#psi4
#
memory 32 gb

molecule  {
0 1
  C       -3.3104600     0.6645600    -0.0001290
  C        3.3104610    -0.6645590    -0.0001300
  C       -4.1189600    -0.6381980     0.0003020
  C        4.1189570     0.6382020     0.0003020
  C       -1.8678680     0.4225120    -0.0001420
  C        1.8678690    -0.4225150    -0.0001410
  C       -0.6717070     0.1376470    -0.0001380
  C        0.6913008    -0.1416650    -0.0001380
  H       -3.5746830     1.2664600    -0.8780670
  H       -3.5745810     1.2669770     0.8774850
  H        3.5746860    -1.2664580    -0.8780680
  H        3.5745850    -1.2669760     0.8774840
  H       -3.8858290    -1.2341430     0.8855450
  H       -3.8859300    -1.2346660    -0.8846160
  H       -5.1908980    -0.4200070     0.0002980
  H        3.8859240     1.2346690    -0.8846160
  H        3.8858250     1.2341450     0.8855460
  H        5.1908960     0.4200140     0.0002970
units angstrom
no_reorient  #important for SAPT in psi4, default
symmetry c1  #important for SAPT in psi4, default
}

set PROPERTIES_ORIGIN ["COM"]
properties('MP2/aug-cc-pvtz', properties = ['dipole'])
--------------------------------------------------------------------------

    Molecular point group: c1
  Charge       = 0
  Multiplicity = 1
  Basis Set: AUG-CC-PVTZ
    Blend: AUG-CC-PVTZ
  Basis Set: (AUG-CC-PVTZ AUX)
    Blend: AUG-CC-PVTZ-JKFIT

    Orbital Energies [Eh]
    ---------------------

    Doubly Occupied:

       1A    -11.257574     2A    -11.256650     3A    -11.246925
       4A    -11.243645     5A    -11.241630     6A    -11.238018
       7A    -11.227405     8A    -11.227131     9A     -1.093268
      10A     -1.078941    11A     -1.029869    12A     -0.975808
      13A     -0.887968    14A     -0.868592    15A     -0.780987
      16A     -0.655791    17A     -0.644607    18A     -0.629996
      19A     -0.628674    20A     -0.556815    21A     -0.551829
      22A     -0.526245    23A     -0.524523    24A     -0.518125
      25A     -0.514033    26A     -0.450101    27A     -0.449598
      28A     -0.333019    29A     -0.332297

  @DF-RHF Final Energy:  -308.76425713029755

   => Energetics <=

    Nuclear Repulsion Energy =            288.0687058155902491
    One-Electron Energy =                -985.7257949727760433
    Two-Electron Energy =                 388.8928320268881862
    Total Energy =                       -308.7642571302975512
  Basis Set: (AUG-CC-PVTZ AUX)
    Blend: AUG-CC-PVTZ-RI
    Molecular point group: c1

    Geometry (in Angstrom), charge = 0, multiplicity = 1:

       Center              X                  Y                   Z               Mass
    ------------   -----------------  -----------------  -----------------  -----------------
         C           -3.312676369144     0.665014163624    -0.000117028447    12.000000000000
         C            3.308244630856    -0.664104836376    -0.000118028447    12.000000000000
         C           -4.121176369144    -0.637743836376     0.000313971553    12.000000000000
         C            4.116740630856     0.638656163624     0.000313971553    12.000000000000
         C           -1.870084369144     0.422966163624    -0.000130028447    12.000000000000
         C            1.865652630856    -0.422060836376    -0.000129028447    12.000000000000
         C           -0.673923369144     0.138101163624    -0.000126028447    12.000000000000
         C            0.689084430856    -0.141210836376    -0.000126028447    12.000000000000
         H           -3.576899369144     1.266914163624    -0.878055028447     1.007825032230
         H           -3.576797369144     1.267431163624     0.877496971553     1.007825032230
         H            3.572469630856    -1.266003836376    -0.878056028447     1.007825032230
         H            3.572368630856    -1.266521836376     0.877495971553     1.007825032230
         H           -3.888045369144    -1.233688836376     0.885556971553     1.007825032230
         H           -3.888146369144    -1.234211836376    -0.884604028447     1.007825032230
         H           -5.193114369144    -0.419552836376     0.000309971553     1.007825032230
         H            3.883707630856     1.235123163624    -0.884604028447     1.007825032230
         H            3.883608630856     1.234599163624     0.885557971553     1.007825032230
         H            5.188679630856     0.420468163624     0.000308971553     1.007825032230

  Basis Set: AUG-CC-PVTZ
    Blend: AUG-CC-PVTZ
  Basis Set: (AUG-CC-PVTZ AUX)
    Blend: AUG-CC-PVTZ-JKFIT
	 Reference Energy          =    -308.7642571302975512 [Eh]
	 Singles Energy            =      -0.0000000000000000 [Eh]
	 Same-Spin Energy          =      -0.3319934557861737 [Eh]
	 Opposite-Spin Energy      =      -1.1341906022238932 [Eh]
	 Correlation Energy        =      -1.4661840580100669 [Eh]
	 Total Energy              =    -310.2304411883076227 [Eh]

	 ================> DF-SCS-MP2 Energies <==================
	-----------------------------------------------------------
	 SCS Same-Spin Scale       =       0.3333333333333333 [-]
	 SCS Opposite-Spin Scale   =       1.2000000000000000 [-]
	 SCS Same-Spin Energy      =      -0.1106644852620579 [Eh]
	 SCS Opposite-Spin Energy  =      -1.3610287226686719 [Eh]
	 SCS Correlation Energy    =      -1.4716932079307299 [Eh]
	 SCS Total Energy          =    -310.2359503382282924 [Eh]
	-----------------------------------------------------------

  Dipole Moment: [D]
     X:    -0.0057      Y:    -0.0011      Z:     0.0001     Total:     0.0058

*** Psi4 exiting successfully. Buy a developer a beer!
