                               Psi4 1.3.2 release

  ==> Input File <==

--------------------------------------------------------------------------
#psi4
#
memory 32 gb

molecule  {
0 1
  C       -3.3706355    -0.3416192    -0.0564018
  C        3.3720920    -0.3929730     0.0571420
  C       -3.9415050     1.0253280     0.0313370
  C        3.9413990     1.0251120    -0.0302390
  C       -1.9110240    -0.4097670    -0.0329750
  C        1.9110920    -0.4103270     0.0325030
  C       -0.6843724    -0.3699175    -0.0111817
  C        0.6837810    -0.4128680     0.0116400
  H       -3.7516860    -0.9979840     0.7738320
  H       -3.7208300    -0.8759060    -0.9776160
  H        3.7518700    -0.9975380    -0.7747680
  H        3.7209340    -0.8772010     0.9767210
  H       -3.5935250     1.6324230    -0.8070360
  H       -3.6247440     1.5093170     0.9575960
  H       -5.0347610     1.0001480     0.0102760
  H        3.6246290     1.5100350    -0.9560070
  H        3.5933130     1.6313650     0.8087280
  H        5.0346230     0.9999160    -0.0090680
units angstrom
no_reorient  #important for SAPT in psi4, default
symmetry c1  #important for SAPT in psi4, default
}

set PROPERTIES_ORIGIN ["COM"]
properties('MP2/aug-cc-pvtz', properties = ['dipole'])
--------------------------------------------------------------------------

    Molecular point group: c1
  Charge       = 0
  Multiplicity = 1
  Basis Set: AUG-CC-PVTZ
    Blend: AUG-CC-PVTZ
  Basis Set: (AUG-CC-PVTZ AUX)
    Blend: AUG-CC-PVTZ-JKFIT

    Orbital Energies [Eh]
    ---------------------

    Doubly Occupied:

       1A    -11.259581     2A    -11.257199     3A    -11.246030
       4A    -11.245853     5A    -11.241858     6A    -11.240776
       7A    -11.227351     8A    -11.224938     9A     -1.095952
      10A     -1.081905    11A     -1.034669    12A     -0.975602
      13A     -0.889700    14A     -0.866579    15A     -0.785041
      16A     -0.656330    17A     -0.646517    18A     -0.630381
      19A     -0.626958    20A     -0.568961    21A     -0.554868
      22A     -0.525777    23A     -0.522105    24A     -0.517248
      25A     -0.508050    26A     -0.452780    27A     -0.449030
      28A     -0.330086    29A     -0.327153

  @DF-RHF Final Energy:  -308.75910319911230

   => Energetics <=

    Nuclear Repulsion Energy =            288.7190300428884484
    One-Electron Energy =                -986.9777104550610147
    Two-Electron Energy =                 389.4995772130602631
    Total Energy =                       -308.7591031991123032
  Basis Set: (AUG-CC-PVTZ AUX)
    Blend: AUG-CC-PVTZ-RI
    Molecular point group: c1

    Geometry (in Angstrom), charge = 0, multiplicity = 1:

       Center              X                  Y                   Z               Mass
    ------------   -----------------  -----------------  -----------------  -----------------
         C           -3.370727383255    -0.352230968125    -0.056633447853    12.000000000000
         C            3.372000116745    -0.403584768125     0.056910352147    12.000000000000
         C           -3.941596883255     1.014716231875     0.031105352147    12.000000000000
         C            3.941307116745     1.014500231875    -0.030470647853    12.000000000000
         C           -1.911115883255    -0.420378768125    -0.033206647853    12.000000000000
         C            1.911000116745    -0.420938768125     0.032271352147    12.000000000000
         C           -0.684464283255    -0.380529268125    -0.011413347853    12.000000000000
         C            0.683689116745    -0.423479768125     0.011408352147    12.000000000000
         H           -3.751777883255    -1.008595768125     0.773600352147     1.007825032230
         H           -3.720921883255    -0.886517768125    -0.977847647853     1.007825032230
         H            3.751778116745    -1.008149768125    -0.774999647853     1.007825032230
         H            3.720842116745    -0.887812768125     0.976489352147     1.007825032230
         H           -3.593616883255     1.621811231875    -0.807267647853     1.007825032230
         H           -3.624835883255     1.498705231875     0.957364352147     1.007825032230
         H           -5.034852883255     0.989536231875     0.010044352147     1.007825032230
         H            3.624537116745     1.499423231875    -0.956238647853     1.007825032230
         H            3.593221116745     1.620753231875     0.808496352147     1.007825032230
         H            5.034531116745     0.989304231875    -0.009299647853     1.007825032230

  Basis Set: AUG-CC-PVTZ
    Blend: AUG-CC-PVTZ
  Basis Set: (AUG-CC-PVTZ AUX)
    Blend: AUG-CC-PVTZ-JKFIT
	 Reference Energy          =    -308.7591031991123032 [Eh]
	 Singles Energy            =      -0.0000000000000000 [Eh]
	 Same-Spin Energy          =      -0.3336177355985345 [Eh]
	 Opposite-Spin Energy      =      -1.1362157807079580 [Eh]
	 Correlation Energy        =      -1.4698335163064926 [Eh]
	 Total Energy              =    -310.2289367154187971 [Eh]

	 ================> DF-SCS-MP2 Energies <==================
	-----------------------------------------------------------
	 SCS Same-Spin Scale       =       0.3333333333333333 [-]
	 SCS Opposite-Spin Scale   =       1.2000000000000000 [-]
	 SCS Same-Spin Energy      =      -0.1112059118661781 [Eh]
	 SCS Opposite-Spin Energy  =      -1.3634589368495496 [Eh]
	 SCS Correlation Energy    =      -1.4746648487157277 [Eh]
	 SCS Total Energy          =    -310.2337680478280504 [Eh]
	-----------------------------------------------------------

  Dipole Moment: [D]
     X:     0.0085      Y:     0.2524      Z:     0.0006     Total:     0.2525

*** Psi4 exiting successfully. Buy a developer a beer!
