                               Psi4 1.4a3.dev225

  ==> Input File <==

--------------------------------------------------------------------------
#psi4
#
memory 32 gb

molecule  {
0 1
  C       -3.3104600     0.6645600    -0.0001290
  C        3.3104610    -0.6645590    -0.0001300
  C       -4.1189600    -0.6381980     0.0003020
  C        4.1453225     0.6806857     0.0003161
  C       -1.8678680     0.4225120    -0.0001420
  C        1.8678690    -0.4225150    -0.0001410
  C       -0.6717070     0.1376470    -0.0001380
  C        0.6717080    -0.1376500    -0.0001380
  H       -3.5746830     1.2664600    -0.8780670
  H       -3.5745810     1.2669770     0.8774850
  H        3.5746860    -1.2664580    -0.8780680
  H        3.5745850    -1.2669760     0.8774840
  H       -3.8858290    -1.2341430     0.8855450
  H       -3.8859300    -1.2346660    -0.8846160
  H       -5.1908980    -0.4200070     0.0002980
  H        3.8859240     1.2346690    -0.8846160
  H        3.8858250     1.2341450     0.8855460
  H        5.1908960     0.4200140     0.0002970
units angstrom
no_reorient  #important for SAPT in psi4, default
symmetry c1  #important for SAPT in psi4, default
}

set PROPERTIES_ORIGIN ["COM"]
properties('MP2/aug-cc-pvtz', properties = ['dipole'])
--------------------------------------------------------------------------

    Molecular point group: c1
  Charge       = 0
  Multiplicity = 1
  Basis Set: AUG-CC-PVTZ
    Blend: AUG-CC-PVTZ
  Basis Set: (AUG-CC-PVTZ AUX)
    Blend: AUG-CC-PVTZ-JKFIT

    Orbital Energies [Eh]
    ---------------------

    Doubly Occupied:

       1A    -11.259030     2A    -11.257458     3A    -11.246409
       4A    -11.246183     5A    -11.242270     6A    -11.241191
       7A    -11.227279     8A    -11.226585     9A     -1.091580
      10A     -1.075070    11A     -1.028853    12A     -0.972078
      13A     -0.891971    14A     -0.869861    15A     -0.785174
      16A     -0.654874    17A     -0.643946    18A     -0.629666
      19A     -0.628089    20A     -0.555028    21A     -0.546873
      22A     -0.528406    23A     -0.526294    24A     -0.525012
      25A     -0.515649    26A     -0.450269    27A     -0.448823
      28A     -0.327547    29A     -0.327534

  @DF-RHF Final Energy:  -308.75990981253642

   => Energetics <=

    Nuclear Repulsion Energy =            287.4535535096496233
    One-Electron Energy =                -984.4889222301818563
    Two-Electron Energy =                 388.2754589079958123
    Total Energy =                       -308.7599098125364208
  Basis Set: (AUG-CC-PVTZ AUX)
    Blend: AUG-CC-PVTZ-RI
    Molecular point group: c1

    Geometry (in Angstrom), charge = 0, multiplicity = 1:

       Center              X                  Y                   Z               Mass
    ------------   -----------------  -----------------  -----------------  -----------------
         C           -3.313442524315     0.659754042927    -0.000118623496    12.000000000000
         C            3.307478475685    -0.669364957073    -0.000119623496    12.000000000000
         C           -4.121942524315    -0.643003957073     0.000312376504    12.000000000000
         C            4.142339975685     0.675879742927     0.000326476504    12.000000000000
         C           -1.870850524315     0.417706042927    -0.000131623496    12.000000000000
         C            1.864886475685    -0.427320957073    -0.000130623496    12.000000000000
         C           -0.674689524315     0.132841042927    -0.000127623496    12.000000000000
         C            0.668725475685    -0.142455957073    -0.000127623496    12.000000000000
         H           -3.577665524315     1.261654042927    -0.878056623496     1.007825032230
         H           -3.577563524315     1.262171042927     0.877495376504     1.007825032230
         H            3.571703475685    -1.271263957073    -0.878057623496     1.007825032230
         H            3.571602475685    -1.271781957073     0.877494376504     1.007825032230
         H           -3.888811524315    -1.238948957073     0.885555376504     1.007825032230
         H           -3.888912524315    -1.239471957073    -0.884605623496     1.007825032230
         H           -5.193880524315    -0.424812957073     0.000308376504     1.007825032230
         H            3.882941475685     1.229863042927    -0.884605623496     1.007825032230
         H            3.882842475685     1.229339042927     0.885556376504     1.007825032230
         H            5.187913475685     0.415208042927     0.000307376504     1.007825032230

  Basis Set: AUG-CC-PVTZ
    Blend: AUG-CC-PVTZ
  Basis Set: (AUG-CC-PVTZ AUX)
    Blend: AUG-CC-PVTZ-JKFIT
	 Reference Energy          =    -308.7599098125364208 [Eh]
	 Singles Energy            =      -0.0000000000000000 [Eh]
	 Same-Spin Energy          =      -0.3332461275368256 [Eh]
	 Opposite-Spin Energy      =      -1.1361645115495091 [Eh]
	 Correlation Energy        =      -1.4694106390863348 [Eh]
	 Total Energy              =    -310.2293204516227547 [Eh]

	 ================> DF-SCS-MP2 Energies <==================
	-----------------------------------------------------------
	 SCS Same-Spin Scale       =       0.3333333333333333 [-]
	 SCS Opposite-Spin Scale   =       1.2000000000000000 [-]
	 SCS Same-Spin Energy      =      -0.1110820425122752 [Eh]
	 SCS Opposite-Spin Energy  =      -1.3633974138594109 [Eh]
	 SCS Correlation Energy    =      -1.4744794563716861 [Eh]
	 SCS Total Energy          =    -310.2343892689081031 [Eh]
	-----------------------------------------------------------

  Dipole Moment: [D]
     X:     0.0321      Y:     0.0067      Z:     0.0001     Total:     0.0328

*** Psi4 exiting successfully. Buy a developer a beer!
