                               Psi4 1.3.2 release

  ==> Input File <==

--------------------------------------------------------------------------
#psi4
#
memory 32 gb

molecule  {
0 1
  C       -3.3721060    -0.3925950    -0.0575320
  C        3.3720920    -0.3929730     0.0571420
  C       -3.9415050     1.0253280     0.0313370
  C        3.9413990     1.0251120    -0.0302390
  C       -1.9110094    -0.4217666    -0.0554817
  C        1.9110920    -0.4103270     0.0325030
  C       -0.6837130    -0.4127480    -0.0120990
  C        0.6837810    -0.4128680     0.0116400
  H       -3.7516860    -0.9979840     0.7738320
  H       -3.7026420    -0.8789886    -0.9826913
  H        3.7518700    -0.9975380    -0.7747680
  H        3.7209340    -0.8772010     0.9767210
  H       -3.5935250     1.6324230    -0.8070360
  H       -3.6247440     1.5093170     0.9575960
  H       -5.0347610     1.0001480     0.0102760
  H        3.6246290     1.5100350    -0.9560070
  H        3.5933130     1.6313650     0.8087280
  H        5.0346230     0.9999160    -0.0090680
units angstrom
no_reorient  #important for SAPT in psi4, default
symmetry c1  #important for SAPT in psi4, default
}

set PROPERTIES_ORIGIN ["COM"]
properties('MP2/aug-cc-pvtz', properties = ['dipole'])
--------------------------------------------------------------------------

    Molecular point group: c1
  Charge       = 0
  Multiplicity = 1
  Basis Set: AUG-CC-PVTZ
    Blend: AUG-CC-PVTZ
  Basis Set: (AUG-CC-PVTZ AUX)
    Blend: AUG-CC-PVTZ-JKFIT

    Orbital Energies [Eh]
    ---------------------

    Doubly Occupied:

       1A    -11.257172     2A    -11.257035     3A    -11.245723
       4A    -11.245541     5A    -11.241440     6A    -11.240358
       7A    -11.227544     8A    -11.227117     9A     -1.093952
      10A     -1.079295    11A     -1.032298    12A     -0.973648
      13A     -0.890373    14A     -0.868333    15A     -0.785975
      16A     -0.655733    17A     -0.645631    18A     -0.631016
      19A     -0.629626    20A     -0.556742    21A     -0.553997
      22A     -0.525540    23A     -0.525271    24A     -0.518782
      25A     -0.514509    26A     -0.451533    27A     -0.450753
      28A     -0.328691    29A     -0.327602

  @DF-RHF Final Energy:  -308.76224624821913

   => Energetics <=

    Nuclear Repulsion Energy =            288.3089527531438421
    One-Electron Energy =                -986.1799408847040240
    Two-Electron Energy =                 389.1087418833409970
    Total Energy =                       -308.7622462482191281
  Basis Set: (AUG-CC-PVTZ AUX)
    Blend: AUG-CC-PVTZ-RI
    Molecular point group: c1

    Geometry (in Angstrom), charge = 0, multiplicity = 1:

       Center              X                  Y                   Z               Mass
    ------------   -----------------  -----------------  -----------------  -----------------
         C           -3.372280579960    -0.391208290420    -0.054937758347    12.000000000000
         C            3.371917420040    -0.391586290420     0.059736241653    12.000000000000
         C           -3.941679579960     1.026714709580     0.033931241653    12.000000000000
         C            3.941224420040     1.026498709580    -0.027644758347    12.000000000000
         C           -1.911183979960    -0.420379890420    -0.052887458347    12.000000000000
         C            1.910917420040    -0.408940290420     0.035097241653    12.000000000000
         C           -0.683887579960    -0.411361290420    -0.009504758347    12.000000000000
         C            0.683606420040    -0.411481290420     0.014234241653    12.000000000000
         H           -3.751860579960    -0.996597290420     0.776426241653     1.007825032230
         H           -3.702816579960    -0.877601890420    -0.980097058347     1.007825032230
         H            3.751695420040    -0.996151290420    -0.772173758347     1.007825032230
         H            3.720759420040    -0.875814290420     0.979315241653     1.007825032230
         H           -3.593699579960     1.633809709580    -0.804441758347     1.007825032230
         H           -3.624918579960     1.510703709580     0.960190241653     1.007825032230
         H           -5.034935579960     1.001534709580     0.012870241653     1.007825032230
         H            3.624454420040     1.511421709580    -0.953412758347     1.007825032230
         H            3.593138420040     1.632751709580     0.811322241653     1.007825032230
         H            5.034448420040     1.001302709580    -0.006473758347     1.007825032230

  Basis Set: AUG-CC-PVTZ
    Blend: AUG-CC-PVTZ
  Basis Set: (AUG-CC-PVTZ AUX)
    Blend: AUG-CC-PVTZ-JKFIT
	 Reference Energy          =    -308.7622462482191281 [Eh]
	 Singles Energy            =      -0.0000000000000000 [Eh]
	 Same-Spin Energy          =      -0.3333037620804389 [Eh]
	 Opposite-Spin Energy      =      -1.1358029077980409 [Eh]
	 Correlation Energy        =      -1.4691066698784798 [Eh]
	 Total Energy              =    -310.2313529180976275 [Eh]

	 ================> DF-SCS-MP2 Energies <==================
	-----------------------------------------------------------
	 SCS Same-Spin Scale       =       0.3333333333333333 [-]
	 SCS Opposite-Spin Scale   =       1.2000000000000000 [-]
	 SCS Same-Spin Energy      =      -0.1111012540268130 [Eh]
	 SCS Opposite-Spin Energy  =      -1.3629634893576490 [Eh]
	 SCS Correlation Energy    =      -1.4740647433844620 [Eh]
	 SCS Total Energy          =    -310.2363109916036024 [Eh]
	-----------------------------------------------------------

  Dipole Moment: [D]
     X:    -0.0084      Y:     0.2375      Z:     0.0135     Total:     0.2380

*** Psi4 exiting successfully. Buy a developer a beer!
