                               Psi4 1.3.2 release

  ==> Input File <==

--------------------------------------------------------------------------
#psi4
#
memory 32 gb

molecule  {
0 1
  C       -3.3721060    -0.3925950    -0.0575320
  C        3.3720920    -0.3929730     0.0571420
  C       -3.9415050     1.0253280     0.0313370
  C        3.9413990     1.0251120    -0.0302390
  C       -1.9110240    -0.4097670    -0.0329750
  C        1.9110920    -0.4103270     0.0325030
  C       -0.6837130    -0.4127480    -0.0120990
  C        0.6837810    -0.4128680     0.0116400
  H       -3.7516860    -0.9979840     0.7738320
  H       -3.7526408    -0.9199939    -1.0615465
  H        3.7518700    -0.9975380    -0.7747680
  H        3.7209340    -0.8772010     0.9767210
  H       -3.5935250     1.6324230    -0.8070360
  H       -3.6247440     1.5093170     0.9575960
  H       -5.0347610     1.0001480     0.0102760
  H        3.6246290     1.5100350    -0.9560070
  H        3.5933130     1.6313650     0.8087280
  H        5.0346230     0.9999160    -0.0090680
units angstrom
no_reorient  #important for SAPT in psi4, default
symmetry c1  #important for SAPT in psi4, default
}

set PROPERTIES_ORIGIN ["COM"]
properties('MP2/aug-cc-pvtz', properties = ['dipole'])
--------------------------------------------------------------------------

    Molecular point group: c1
  Charge       = 0
  Multiplicity = 1
  Basis Set: AUG-CC-PVTZ
    Blend: AUG-CC-PVTZ
  Basis Set: (AUG-CC-PVTZ AUX)
    Blend: AUG-CC-PVTZ-JKFIT

    Orbital Energies [Eh]
    ---------------------

    Doubly Occupied:

       1A    -11.268408     2A    -11.257348     3A    -11.246453
       4A    -11.246118     5A    -11.242106     6A    -11.240955
       7A    -11.228003     8A    -11.227350     9A     -1.093435
      10A     -1.077721    11A     -1.031688    12A     -0.974057
      13A     -0.889112    14A     -0.865733    15A     -0.785106
      16A     -0.655462    17A     -0.645665    18A     -0.630405
      19A     -0.620203    20A     -0.556683    21A     -0.554074
      22A     -0.525788    23A     -0.524399    24A     -0.517432
      25A     -0.509599    26A     -0.452090    27A     -0.449508
      28A     -0.329196    29A     -0.327640

  @DF-RHF Final Energy:  -308.75594891486310

   => Energetics <=

    Nuclear Repulsion Energy =            287.9243021360755392
    One-Electron Energy =                -985.4170234446332870
    Two-Electron Energy =                 388.7367723936946504
    Total Energy =                       -308.7559489148630973
  Basis Set: (AUG-CC-PVTZ AUX)
    Blend: AUG-CC-PVTZ-RI
    Molecular point group: c1

    Geometry (in Angstrom), charge = 0, multiplicity = 1:

       Center              X                  Y                   Z               Mass
    ------------   -----------------  -----------------  -----------------  -----------------
         C           -3.371803901262    -0.392176151710    -0.056734622030    12.000000000000
         C            3.372394098738    -0.392554151710     0.057939377970    12.000000000000
         C           -3.941202901262     1.025746848290     0.032134377970    12.000000000000
         C            3.941701098738     1.025530848290    -0.029441622030    12.000000000000
         C           -1.910721901262    -0.409348151710    -0.032177622030    12.000000000000
         C            1.911394098738    -0.409908151710     0.033300377970    12.000000000000
         C           -0.683410901262    -0.412329151710    -0.011301622030    12.000000000000
         C            0.684083098738    -0.412449151710     0.012437377970    12.000000000000
         H           -3.751383901262    -0.997565151710     0.774629377970     1.007825032230
         H           -3.752338701262    -0.919575051710    -1.060749122030     1.007825032230
         H            3.752172098738    -0.997119151710    -0.773970622030     1.007825032230
         H            3.721236098738    -0.876782151710     0.977518377970     1.007825032230
         H           -3.593222901262     1.632841848290    -0.806238622030     1.007825032230
         H           -3.624441901262     1.509735848290     0.958393377970     1.007825032230
         H           -5.034458901262     1.000566848290     0.011073377970     1.007825032230
         H            3.624931098738     1.510453848290    -0.955209622030     1.007825032230
         H            3.593615098738     1.631783848290     0.809525377970     1.007825032230
         H            5.034925098738     1.000334848290    -0.008270622030     1.007825032230

  Basis Set: AUG-CC-PVTZ
    Blend: AUG-CC-PVTZ
  Basis Set: (AUG-CC-PVTZ AUX)
    Blend: AUG-CC-PVTZ-JKFIT
	 Reference Energy          =    -308.7559489148630973 [Eh]
	 Singles Energy            =      -0.0000000000000000 [Eh]
	 Same-Spin Energy          =      -0.3333816003004261 [Eh]
	 Opposite-Spin Energy      =      -1.1364868554606509 [Eh]
	 Correlation Energy        =      -1.4698684557610771 [Eh]
	 Total Energy              =    -310.2258173706241564 [Eh]

	 ================> DF-SCS-MP2 Energies <==================
	-----------------------------------------------------------
	 SCS Same-Spin Scale       =       0.3333333333333333 [-]
	 SCS Opposite-Spin Scale   =       1.2000000000000000 [-]
	 SCS Same-Spin Energy      =      -0.1111272001001420 [Eh]
	 SCS Opposite-Spin Energy  =      -1.3637842265527811 [Eh]
	 SCS Correlation Energy    =      -1.4749114266529231 [Eh]
	 SCS Total Energy          =    -310.2308603415160064 [Eh]
	-----------------------------------------------------------

  Dipole Moment: [D]
     X:     0.0472      Y:     0.2578      Z:     0.0326     Total:     0.2641

*** Psi4 exiting successfully. Buy a developer a beer!
