                               Psi4 1.3.2 release

  ==> Input File <==

--------------------------------------------------------------------------
#psi4
#
memory 32 gb

molecule  {
0 1
  C       -3.3721060    -0.3925950    -0.0575320
  C        3.3720920    -0.3929730     0.0571420
  C       -3.9415050     1.0253280     0.0313370
  C        3.9785942     1.1177615    -0.0359480
  C       -1.9110240    -0.4097670    -0.0329750
  C        1.9110920    -0.4103270     0.0325030
  C       -0.6837130    -0.4127480    -0.0120990
  C        0.6837810    -0.4128680     0.0116400
  H       -3.7516860    -0.9979840     0.7738320
  H       -3.7208300    -0.8759060    -0.9776160
  H        3.7518700    -0.9975380    -0.7747680
  H        3.7209340    -0.8772010     0.9767210
  H       -3.5935250     1.6324230    -0.8070360
  H       -3.6247440     1.5093170     0.9575960
  H       -5.0347610     1.0001480     0.0102760
  H        3.6246290     1.5100350    -0.9560070
  H        3.5933130     1.6313650     0.8087280
  H        5.0346230     0.9999160    -0.0090680
units angstrom
no_reorient  #important for SAPT in psi4, default
symmetry c1  #important for SAPT in psi4, default
}

set PROPERTIES_ORIGIN ["COM"]
properties('MP2/aug-cc-pvtz', properties = ['dipole'])
--------------------------------------------------------------------------

    Molecular point group: c1
  Charge       = 0
  Multiplicity = 1
  Basis Set: AUG-CC-PVTZ
    Blend: AUG-CC-PVTZ
  Basis Set: (AUG-CC-PVTZ AUX)
    Blend: AUG-CC-PVTZ-JKFIT

    Orbital Energies [Eh]
    ---------------------

    Doubly Occupied:

       1A    -11.259647     2A    -11.256682     3A    -11.245334
       4A    -11.244933     5A    -11.240771     6A    -11.239568
       7A    -11.226825     8A    -11.226172     9A     -1.091186
      10A     -1.072460    11A     -1.027468    12A     -0.972308
      13A     -0.894911    14A     -0.870899    15A     -0.785342
      16A     -0.654567    17A     -0.644445    18A     -0.630016
      19A     -0.628313    20A     -0.554622    21A     -0.552512
      22A     -0.534943    23A     -0.525526    24A     -0.518637
      25A     -0.515726    26A     -0.450633    27A     -0.446859
      28A     -0.327135    29A     -0.326317

  @DF-RHF Final Energy:  -308.75561391241769

   => Energetics <=

    Nuclear Repulsion Energy =            287.2305557209712674
    One-Electron Energy =                -984.0428241569842385
    Two-Electron Energy =                 388.0566545235953413
    Total Energy =                       -308.7556139124176866
  Basis Set: (AUG-CC-PVTZ AUX)
    Blend: AUG-CC-PVTZ-RI
    Molecular point group: c1

    Geometry (in Angstrom), charge = 0, multiplicity = 1:

       Center              X                  Y                   Z               Mass
    ------------   -----------------  -----------------  -----------------  -----------------
         C           -3.376313799559    -0.403075906238    -0.056886201254    12.000000000000
         C            3.367884200441    -0.403453906238     0.057787798746    12.000000000000
         C           -3.945712799559     1.014847093762     0.031982798746    12.000000000000
         C            3.974386400441     1.107280593762    -0.035302201254    12.000000000000
         C           -1.915231799559    -0.420247906238    -0.032329201254    12.000000000000
         C            1.906884200441    -0.420807906238     0.033148798746    12.000000000000
         C           -0.687920799559    -0.423228906238    -0.011453201254    12.000000000000
         C            0.679573200441    -0.423348906238     0.012285798746    12.000000000000
         H           -3.755893799559    -1.008464906238     0.774477798746     1.007825032230
         H           -3.725037799559    -0.886386906238    -0.976970201254     1.007825032230
         H            3.747662200441    -1.008018906238    -0.774122201254     1.007825032230
         H            3.716726200441    -0.887681906238     0.977366798746     1.007825032230
         H           -3.597732799559     1.621942093762    -0.806390201254     1.007825032230
         H           -3.628951799559     1.498836093762     0.958241798746     1.007825032230
         H           -5.038968799559     0.989667093762     0.010921798746     1.007825032230
         H            3.620421200441     1.499554093762    -0.955361201254     1.007825032230
         H            3.589105200441     1.620884093762     0.809373798746     1.007825032230
         H            5.030415200441     0.989435093762    -0.008422201254     1.007825032230

  Basis Set: AUG-CC-PVTZ
    Blend: AUG-CC-PVTZ
  Basis Set: (AUG-CC-PVTZ AUX)
    Blend: AUG-CC-PVTZ-JKFIT
	 Reference Energy          =    -308.7556139124176866 [Eh]
	 Singles Energy            =      -0.0000000000000000 [Eh]
	 Same-Spin Energy          =      -0.3331112750706071 [Eh]
	 Opposite-Spin Energy      =      -1.1357767270922083 [Eh]
	 Correlation Energy        =      -1.4688880021628155 [Eh]
	 Total Energy              =    -310.2245019145805145 [Eh]

	 ================> DF-SCS-MP2 Energies <==================
	-----------------------------------------------------------
	 SCS Same-Spin Scale       =       0.3333333333333333 [-]
	 SCS Opposite-Spin Scale   =       1.2000000000000000 [-]
	 SCS Same-Spin Energy      =      -0.1110370916902023 [Eh]
	 SCS Opposite-Spin Energy  =      -1.3629320725106500 [Eh]
	 SCS Correlation Energy    =      -1.4739691642008523 [Eh]
	 SCS Total Energy          =    -310.2295830766185532 [Eh]
	-----------------------------------------------------------

  Dipole Moment: [D]
     X:     0.0558      Y:     0.2446      Z:    -0.0003     Total:     0.2509

*** Psi4 exiting successfully. Buy a developer a beer!
