                               Psi4 1.4a3.dev225

  ==> Input File <==

--------------------------------------------------------------------------
#psi4
#
memory 32 gb

molecule  {
0 1
  C       -3.3104600     0.6645600    -0.0001290
  C        3.3104610    -0.6645590    -0.0001300
  C       -4.1453256    -0.6806816     0.0003161
  C        4.1189570     0.6382020     0.0003020
  C       -1.8678680     0.4225120    -0.0001420
  C        1.8678690    -0.4225150    -0.0001410
  C       -0.6717070     0.1376470    -0.0001380
  C        0.6717080    -0.1376500    -0.0001380
  H       -3.5746830     1.2664600    -0.8780670
  H       -3.5745810     1.2669770     0.8774850
  H        3.5746860    -1.2664580    -0.8780680
  H        3.5745850    -1.2669760     0.8774840
  H       -3.8858290    -1.2341430     0.8855450
  H       -3.8859300    -1.2346660    -0.8846160
  H       -5.1908980    -0.4200070     0.0002980
  H        3.8859240     1.2346690    -0.8846160
  H        3.8858250     1.2341450     0.8855460
  H        5.1908960     0.4200140     0.0002970
units angstrom
no_reorient  #important for SAPT in psi4, default
symmetry c1  #important for SAPT in psi4, default
}

set PROPERTIES_ORIGIN ["COM"]
properties('MP2/aug-cc-pvtz', properties = ['dipole'])
--------------------------------------------------------------------------

    Molecular point group: c1
  Charge       = 0
  Multiplicity = 1
  Basis Set: AUG-CC-PVTZ
    Blend: AUG-CC-PVTZ
  Basis Set: (AUG-CC-PVTZ AUX)
    Blend: AUG-CC-PVTZ-JKFIT

    Orbital Energies [Eh]
    ---------------------

    Doubly Occupied:

       1A    -11.259030     2A    -11.257458     3A    -11.246409
       4A    -11.246183     5A    -11.242270     6A    -11.241191
       7A    -11.227279     8A    -11.226585     9A     -1.091580
      10A     -1.075070    11A     -1.028853    12A     -0.972078
      13A     -0.891971    14A     -0.869861    15A     -0.785174
      16A     -0.654874    17A     -0.643946    18A     -0.629666
      19A     -0.628089    20A     -0.555028    21A     -0.546873
      22A     -0.528406    23A     -0.526294    24A     -0.525012
      25A     -0.515649    26A     -0.450269    27A     -0.448823
      28A     -0.327547    29A     -0.327534

  @DF-RHF Final Energy:  -308.75990984286790

   => Energetics <=

    Nuclear Repulsion Energy =            287.4535539064842737
    One-Electron Energy =                -984.4889230540085236
    Two-Electron Energy =                 388.2754593046564082
    Total Energy =                       -308.7599098428678985
  Basis Set: (AUG-CC-PVTZ AUX)
    Blend: AUG-CC-PVTZ-RI
    Molecular point group: c1

    Geometry (in Angstrom), charge = 0, multiplicity = 1:

       Center              X                  Y                   Z               Mass
    ------------   -----------------  -----------------  -----------------  -----------------
         C           -3.307477369365     0.669365886985    -0.000118623496    12.000000000000
         C            3.313443630635    -0.659753113015    -0.000119623496    12.000000000000
         C           -4.142342969365    -0.675875713015     0.000326476504    12.000000000000
         C            4.121939630635     0.643007886985     0.000312376504    12.000000000000
         C           -1.864885369365     0.427317886985    -0.000131623496    12.000000000000
         C            1.870851630635    -0.417709113015    -0.000130623496    12.000000000000
         C           -0.668724369365     0.142452886985    -0.000127623496    12.000000000000
         C            0.674690630635    -0.132844113015    -0.000127623496    12.000000000000
         H           -3.571700369365     1.271265886985    -0.878056623496     1.007825032230
         H           -3.571598369365     1.271782886985     0.877495376504     1.007825032230
         H            3.577668630635    -1.261652113015    -0.878057623496     1.007825032230
         H            3.577567630635    -1.262170113015     0.877494376504     1.007825032230
         H           -3.882846369365    -1.229337113015     0.885555376504     1.007825032230
         H           -3.882947369365    -1.229860113015    -0.884605623496     1.007825032230
         H           -5.187915369365    -0.415201113015     0.000308376504     1.007825032230
         H            3.888906630635     1.239474886985    -0.884605623496     1.007825032230
         H            3.888807630635     1.238950886985     0.885556376504     1.007825032230
         H            5.193878630635     0.424819886985     0.000307376504     1.007825032230

  Basis Set: AUG-CC-PVTZ
    Blend: AUG-CC-PVTZ
  Basis Set: (AUG-CC-PVTZ AUX)
    Blend: AUG-CC-PVTZ-JKFIT
	 Reference Energy          =    -308.7599098428678985 [Eh]
	 Singles Energy            =      -0.0000000000000000 [Eh]
	 Same-Spin Energy          =      -0.3332461263283071 [Eh]
	 Opposite-Spin Energy      =      -1.1361645112209717 [Eh]
	 Correlation Energy        =      -1.4694106375492788 [Eh]
	 Total Energy              =    -310.2293204804171864 [Eh]

	 ================> DF-SCS-MP2 Energies <==================
	-----------------------------------------------------------
	 SCS Same-Spin Scale       =       0.3333333333333333 [-]
	 SCS Opposite-Spin Scale   =       1.2000000000000000 [-]
	 SCS Same-Spin Energy      =      -0.1110820421094357 [Eh]
	 SCS Opposite-Spin Energy  =      -1.3633974134651661 [Eh]
	 SCS Correlation Energy    =      -1.4744794555746017 [Eh]
	 SCS Total Energy          =    -310.2343892984425224 [Eh]
	-----------------------------------------------------------

  Dipole Moment: [D]
     X:    -0.0321      Y:    -0.0067      Z:     0.0001     Total:     0.0328

*** Psi4 exiting successfully. Buy a developer a beer!
