                               Psi4 1.3.2 release

  ==> Input File <==

--------------------------------------------------------------------------
#psi4
#
memory 32 gb

molecule  {
0 1
  C       -3.3344136    -0.3709749    -0.1248581
  C        3.3720920    -0.3929730     0.0571420
  C       -3.9415050     1.0253280     0.0313370
  C        3.9413990     1.0251120    -0.0302390
  C       -1.9110240    -0.4097670    -0.0329750
  C        1.9110920    -0.4103270     0.0325030
  C       -0.6837130    -0.4127480    -0.0120990
  C        0.6837810    -0.4128680     0.0116400
  H       -3.7516860    -0.9979840     0.7738320
  H       -3.7208300    -0.8759060    -0.9776160
  H        3.7518700    -0.9975380    -0.7747680
  H        3.7209340    -0.8772010     0.9767210
  H       -3.5644406     1.5869716    -0.8259276
  H       -3.6247440     1.5093170     0.9575960
  H       -5.0347610     1.0001480     0.0102760
  H        3.6246290     1.5100350    -0.9560070
  H        3.5933130     1.6313650     0.8087280
  H        5.0346230     0.9999160    -0.0090680
units angstrom
no_reorient  #important for SAPT in psi4, default
symmetry c1  #important for SAPT in psi4, default
}

set PROPERTIES_ORIGIN ["COM"]
properties('MP2/aug-cc-pvtz', properties = ['dipole'])
--------------------------------------------------------------------------

    Molecular point group: c1
  Charge       = 0
  Multiplicity = 1
  Basis Set: AUG-CC-PVTZ
    Blend: AUG-CC-PVTZ
  Basis Set: (AUG-CC-PVTZ AUX)
    Blend: AUG-CC-PVTZ-JKFIT

    Orbital Energies [Eh]
    ---------------------

    Doubly Occupied:

       1A    -11.257458     2A    -11.257060     3A    -11.246342
       4A    -11.245576     5A    -11.242208     6A    -11.241150
       7A    -11.227776     8A    -11.227445     9A     -1.096660
      10A     -1.081608    11A     -1.032868    12A     -0.974506
      13A     -0.891657    14A     -0.868362    15A     -0.786078
      16A     -0.664123    17A     -0.649897    18A     -0.630528
      19A     -0.623416    20A     -0.561923    21A     -0.555084
      22A     -0.529279    23A     -0.525925    24A     -0.517024
      25A     -0.505434    26A     -0.452341    27A     -0.446966
      28A     -0.329585    29A     -0.326212

  @DF-RHF Final Energy:  -308.75435949950503

   => Energetics <=

    Nuclear Repulsion Energy =            288.8266020420383029
    One-Electron Energy =                -987.1729473880246815
    Two-Electron Energy =                 389.5919858464813501
    Total Energy =                       -308.7543594995050285
  Basis Set: (AUG-CC-PVTZ AUX)
    Blend: AUG-CC-PVTZ-RI
    Molecular point group: c1

    Geometry (in Angstrom), charge = 0, multiplicity = 1:

       Center              X                  Y                   Z               Mass
    ------------   -----------------  -----------------  -----------------  -----------------
         C           -3.338953969019    -0.372988850421    -0.117062441362    12.000000000000
         C            3.367551630981    -0.394986950421     0.064937658638    12.000000000000
         C           -3.946045369019     1.023314049579     0.039132658638    12.000000000000
         C            3.936858630981     1.023098049579    -0.022443341362    12.000000000000
         C           -1.915564369019    -0.411780950421    -0.025179341362    12.000000000000
         C            1.906551630981    -0.412340950421     0.040298658638    12.000000000000
         C           -0.688253369019    -0.414761950421    -0.004303341362    12.000000000000
         C            0.679240630981    -0.414881950421     0.019435658638    12.000000000000
         H           -3.756226369019    -0.999997950421     0.781627658638     1.007825032230
         H           -3.725370369019    -0.877919950421    -0.969820341362     1.007825032230
         H            3.747329630981    -0.999551950421    -0.766972341362     1.007825032230
         H            3.716393630981    -0.879214950421     0.984516658638     1.007825032230
         H           -3.568980969019     1.584957649579    -0.818131941362     1.007825032230
         H           -3.629284369019     1.507303049579     0.965391658638     1.007825032230
         H           -5.039301369019     0.998134049579     0.018071658638     1.007825032230
         H            3.620088630981     1.508021049579    -0.948211341362     1.007825032230
         H            3.588772630981     1.629351049579     0.816523658638     1.007825032230
         H            5.030082630981     0.997902049579    -0.001272341362     1.007825032230

  Basis Set: AUG-CC-PVTZ
    Blend: AUG-CC-PVTZ
  Basis Set: (AUG-CC-PVTZ AUX)
    Blend: AUG-CC-PVTZ-JKFIT
	 Reference Energy          =    -308.7543594995050285 [Eh]
	 Singles Energy            =      -0.0000000000000000 [Eh]
	 Same-Spin Energy          =      -0.3340339760474631 [Eh]
	 Opposite-Spin Energy      =      -1.1367037924973671 [Eh]
	 Correlation Energy        =      -1.4707377685448302 [Eh]
	 Total Energy              =    -310.2250972680498649 [Eh]

	 ================> DF-SCS-MP2 Energies <==================
	-----------------------------------------------------------
	 SCS Same-Spin Scale       =       0.3333333333333333 [-]
	 SCS Opposite-Spin Scale   =       1.2000000000000000 [-]
	 SCS Same-Spin Energy      =      -0.1113446586824877 [Eh]
	 SCS Opposite-Spin Energy  =      -1.3640445509968404 [Eh]
	 SCS Correlation Energy    =      -1.4753892096793282 [Eh]
	 SCS Total Energy          =    -310.2297487091843777 [Eh]
	-----------------------------------------------------------

  Dipole Moment: [D]
     X:     0.0490      Y:     0.2357      Z:    -0.0481     Total:     0.2456

*** Psi4 exiting successfully. Buy a developer a beer!
