                               Psi4 1.3.2 release

  ==> Input File <==

--------------------------------------------------------------------------
#psi4
#
memory 32 gb

molecule  {
0 1
  C       -3.3721060    -0.3925950    -0.0575320
  C        3.3720920    -0.3929730     0.0571420
  C       -3.9415050     1.0253280     0.0313370
  C        3.9413990     1.0251120    -0.0302390
  C       -1.8110450    -0.4109420    -0.0312946
  C        1.9110920    -0.4103270     0.0325030
  C       -0.6837130    -0.4127480    -0.0120990
  C        0.6837810    -0.4128680     0.0116400
  H       -3.7516860    -0.9979840     0.7738320
  H       -3.7208300    -0.8759060    -0.9776160
  H        3.7518700    -0.9975380    -0.7747680
  H        3.7209340    -0.8772010     0.9767210
  H       -3.5935250     1.6324230    -0.8070360
  H       -3.6247440     1.5093170     0.9575960
  H       -5.0347610     1.0001480     0.0102760
  H        3.6246290     1.5100350    -0.9560070
  H        3.5933130     1.6313650     0.8087280
  H        5.0346230     0.9999160    -0.0090680
units angstrom
no_reorient  #important for SAPT in psi4, default
symmetry c1  #important for SAPT in psi4, default
}

set PROPERTIES_ORIGIN ["COM"]
properties('MP2/aug-cc-pvtz', properties = ['dipole'])
--------------------------------------------------------------------------

    Molecular point group: c1
  Charge       = 0
  Multiplicity = 1
  Basis Set: AUG-CC-PVTZ
    Blend: AUG-CC-PVTZ
  Basis Set: (AUG-CC-PVTZ AUX)
    Blend: AUG-CC-PVTZ-JKFIT

    Orbital Energies [Eh]
    ---------------------

    Doubly Occupied:

       1A    -11.263493     2A    -11.256086     3A    -11.243180
       4A    -11.237716     5A    -11.226528     6A    -11.226088
       7A    -11.219755     8A    -11.211483     9A     -1.094926
      10A     -1.074399    11A     -1.033570    12A     -0.984625
      13A     -0.883214    14A     -0.862141    15A     -0.787061
      16A     -0.651230    17A     -0.634182    18A     -0.629444
      19A     -0.624706    20A     -0.554467    21A     -0.546755
      22A     -0.524846    23A     -0.520399    24A     -0.517711
      25A     -0.511918    26A     -0.463802    27A     -0.462464
      28A     -0.341522    29A     -0.340722

  @DF-RHF Final Energy:  -308.75267547576527

   => Energetics <=

    Nuclear Repulsion Energy =            289.0238791281670956
    One-Electron Energy =                -987.6962396268156681
    Two-Electron Energy =                 389.9196850228833000
    Total Energy =                       -308.7526754757652725
  Basis Set: (AUG-CC-PVTZ AUX)
    Blend: AUG-CC-PVTZ-RI
    Molecular point group: c1

    Geometry (in Angstrom), charge = 0, multiplicity = 1:

       Center              X                  Y                   Z               Mass
    ------------   -----------------  -----------------  -----------------  -----------------
         C           -3.383416156524    -0.392462099953    -0.057722120019    12.000000000000
         C            3.360781843476    -0.392840099953     0.056951879981    12.000000000000
         C           -3.952815156524     1.025460900047     0.031146879981    12.000000000000
         C            3.930088843476     1.025244900047    -0.030429120019    12.000000000000
         C           -1.822355156524    -0.410809099953    -0.031484720019    12.000000000000
         C            1.899781843476    -0.410194099953     0.032312879981    12.000000000000
         C           -0.695023156524    -0.412615099953    -0.012289120019    12.000000000000
         C            0.672470843476    -0.412735099953     0.011449879981    12.000000000000
         H           -3.762996156524    -0.997851099953     0.773641879981     1.007825032230
         H           -3.732140156524    -0.875773099953    -0.977806120019     1.007825032230
         H            3.740559843476    -0.997405099953    -0.774958120019     1.007825032230
         H            3.709623843476    -0.877068099953     0.976530879981     1.007825032230
         H           -3.604835156524     1.632555900047    -0.807226120019     1.007825032230
         H           -3.636054156524     1.509449900047     0.957405879981     1.007825032230
         H           -5.046071156524     1.000280900047     0.010085879981     1.007825032230
         H            3.613318843476     1.510167900047    -0.956197120019     1.007825032230
         H            3.582002843476     1.631497900047     0.808537879981     1.007825032230
         H            5.023312843476     1.000048900047    -0.009258120019     1.007825032230

  Basis Set: AUG-CC-PVTZ
    Blend: AUG-CC-PVTZ
  Basis Set: (AUG-CC-PVTZ AUX)
    Blend: AUG-CC-PVTZ-JKFIT
	 Reference Energy          =    -308.7526754757652725 [Eh]
	 Singles Energy            =      -0.0000000000000000 [Eh]
	 Same-Spin Energy          =      -0.3277001770576581 [Eh]
	 Opposite-Spin Energy      =      -1.1271974126263133 [Eh]
	 Correlation Energy        =      -1.4548975896839715 [Eh]
	 Total Energy              =    -310.2075730654492531 [Eh]

	 ================> DF-SCS-MP2 Energies <==================
	-----------------------------------------------------------
	 SCS Same-Spin Scale       =       0.3333333333333333 [-]
	 SCS Opposite-Spin Scale   =       1.2000000000000000 [-]
	 SCS Same-Spin Energy      =      -0.1092333923525527 [Eh]
	 SCS Opposite-Spin Energy  =      -1.3526368951515759 [Eh]
	 SCS Correlation Energy    =      -1.4618702875041287 [Eh]
	 SCS Total Energy          =    -310.2145457632694274 [Eh]
	-----------------------------------------------------------

  Dipole Moment: [D]
     X:    -0.0121      Y:     0.2316      Z:     0.0009     Total:     0.2319

*** Psi4 exiting successfully. Buy a developer a beer!
