                               Psi4 1.3.2 release

  ==> Input File <==

--------------------------------------------------------------------------
#psi4
#
memory 32 gb

molecule  {
0 1
  C       -3.3721060    -0.3925950    -0.0575320
  C        3.3720920    -0.3929730     0.0571420
  C       -3.9415050     1.0253280     0.0313370
  C        3.9413990     1.0251120    -0.0302390
  C       -1.9109785    -0.3991731    -0.0313907
  C        1.9110920    -0.4103270     0.0325030
  C       -0.6837130    -0.4127480    -0.0120990
  C        0.6836993    -0.4010638     0.0134030
  H       -3.7516860    -0.9979840     0.7738320
  H       -3.7208300    -0.8759060    -0.9776160
  H        3.7518700    -0.9975380    -0.7747680
  H        3.7209340    -0.8772010     0.9767210
  H       -3.5935250     1.6324230    -0.8070360
  H       -3.6247440     1.5093170     0.9575960
  H       -5.0347610     1.0001480     0.0102760
  H        3.6246290     1.5100350    -0.9560070
  H        3.5933130     1.6313650     0.8087280
  H        5.0346230     0.9999160    -0.0090680
units angstrom
no_reorient  #important for SAPT in psi4, default
symmetry c1  #important for SAPT in psi4, default
}

set PROPERTIES_ORIGIN ["COM"]
properties('MP2/aug-cc-pvtz', properties = ['dipole'])
--------------------------------------------------------------------------

    Molecular point group: c1
  Charge       = 0
  Multiplicity = 1
  Basis Set: AUG-CC-PVTZ
    Blend: AUG-CC-PVTZ
  Basis Set: (AUG-CC-PVTZ AUX)
    Blend: AUG-CC-PVTZ-JKFIT

    Orbital Energies [Eh]
    ---------------------

    Doubly Occupied:

       1A    -11.257119     2A    -11.257110     3A    -11.245805
       4A    -11.245645     5A    -11.241546     6A    -11.240465
       7A    -11.227145     8A    -11.227002     9A     -1.094084
      10A     -1.079409    11A     -1.032466    12A     -0.973740
      13A     -0.889769    14A     -0.867897    15A     -0.786264
      16A     -0.656932    17A     -0.646749    18A     -0.630793
      19A     -0.629503    20A     -0.555967    21A     -0.553260
      22A     -0.525750    23A     -0.525501    24A     -0.518376
      25A     -0.514152    26A     -0.451670    27A     -0.450968
      28A     -0.328785    29A     -0.327986

  @DF-RHF Final Energy:  -308.76240175848920

   => Energetics <=

    Nuclear Repulsion Energy =            288.3726478753084166
    One-Electron Energy =                -986.3063861664004435
    Two-Electron Energy =                 389.1713365326028224
    Total Energy =                       -308.7624017584892044
  Basis Set: (AUG-CC-PVTZ AUX)
    Blend: AUG-CC-PVTZ-RI
    Molecular point group: c1

    Geometry (in Angstrom), charge = 0, multiplicity = 1:

       Center              X                  Y                   Z               Mass
    ------------   -----------------  -----------------  -----------------  -----------------
         C           -3.372102033258    -0.395128784208    -0.057910686477    12.000000000000
         C            3.372095966742    -0.395506784208     0.056763313523    12.000000000000
         C           -3.941501033258     1.022794215792     0.030958313523    12.000000000000
         C            3.941402966742     1.022578215792    -0.030617686477    12.000000000000
         C           -1.910974533258    -0.401706884208    -0.031769386477    12.000000000000
         C            1.911095966742    -0.412860784208     0.032124313523    12.000000000000
         C           -0.683709033258    -0.415281784208    -0.012477686477    12.000000000000
         C            0.683703266742    -0.403597584208     0.013024313523    12.000000000000
         H           -3.751682033258    -1.000517784208     0.773453313523     1.007825032230
         H           -3.720826033258    -0.878439784208    -0.977994686477     1.007825032230
         H            3.751873966742    -1.000071784208    -0.775146686477     1.007825032230
         H            3.720937966742    -0.879734784208     0.976342313523     1.007825032230
         H           -3.593521033258     1.629889215792    -0.807414686477     1.007825032230
         H           -3.624740033258     1.506783215792     0.957217313523     1.007825032230
         H           -5.034757033258     0.997614215792     0.009897313523     1.007825032230
         H            3.624632966742     1.507501215792    -0.956385686477     1.007825032230
         H            3.593316966742     1.628831215792     0.808349313523     1.007825032230
         H            5.034626966742     0.997382215792    -0.009446686477     1.007825032230

  Basis Set: AUG-CC-PVTZ
    Blend: AUG-CC-PVTZ
  Basis Set: (AUG-CC-PVTZ AUX)
    Blend: AUG-CC-PVTZ-JKFIT
	 Reference Energy          =    -308.7624017584892044 [Eh]
	 Singles Energy            =      -0.0000000000000000 [Eh]
	 Same-Spin Energy          =      -0.3332981595458235 [Eh]
	 Opposite-Spin Energy      =      -1.1357554945024435 [Eh]
	 Correlation Energy        =      -1.4690536540482670 [Eh]
	 Total Energy              =    -310.2314554125374571 [Eh]

	 ================> DF-SCS-MP2 Energies <==================
	-----------------------------------------------------------
	 SCS Same-Spin Scale       =       0.3333333333333333 [-]
	 SCS Opposite-Spin Scale   =       1.2000000000000000 [-]
	 SCS Same-Spin Energy      =      -0.1110993865152745 [Eh]
	 SCS Opposite-Spin Energy  =      -1.3629065934029321 [Eh]
	 SCS Correlation Energy    =      -1.4740059799182066 [Eh]
	 SCS Total Energy          =    -310.2364077384074221 [Eh]
	-----------------------------------------------------------

  Dipole Moment: [D]
     X:     0.0034      Y:     0.2147      Z:    -0.0013     Total:     0.2147

*** Psi4 exiting successfully. Buy a developer a beer!
