                               Psi4 1.3.2 release

  ==> Input File <==

--------------------------------------------------------------------------
#psi4
#
memory 32 gb

molecule  {
0 1
  C       -3.3721060    -0.3925950    -0.0575320
  C        3.3720920    -0.3929730     0.0571420
  C       -3.9415050     1.0253280     0.0313370
  C        3.9413990     1.0251120    -0.0302390
  C       -1.9110240    -0.4097670    -0.0329750
  C        1.9110920    -0.4103270     0.0325030
  C       -0.6837130    -0.4127480    -0.0120990
  C        0.6837810    -0.4128680     0.0116400
  H       -3.7516860    -0.9979840     0.7738320
  H       -3.7844516    -0.9640817    -1.1454771
  H        3.7518700    -0.9975380    -0.7747680
  H        3.7209340    -0.8772010     0.9767210
  H       -3.5935250     1.6324230    -0.8070360
  H       -3.6247440     1.5093170     0.9575960
  H       -5.0347610     1.0001480     0.0102760
  H        3.6246290     1.5100350    -0.9560070
  H        3.5933130     1.6313650     0.8087280
  H        5.0346230     0.9999160    -0.0090680
units angstrom
no_reorient  #important for SAPT in psi4, default
symmetry c1  #important for SAPT in psi4, default
}

set PROPERTIES_ORIGIN ["COM"]
properties('MP2/aug-cc-pvtz', properties = ['dipole'])
--------------------------------------------------------------------------

    Molecular point group: c1
  Charge       = 0
  Multiplicity = 1
  Basis Set: AUG-CC-PVTZ
    Blend: AUG-CC-PVTZ
  Basis Set: (AUG-CC-PVTZ AUX)
    Blend: AUG-CC-PVTZ-JKFIT

    Orbital Energies [Eh]
    ---------------------

    Doubly Occupied:

       1A    -11.278832     2A    -11.257712     3A    -11.247371
       4A    -11.246770     5A    -11.243023     6A    -11.241603
       7A    -11.229063     8A    -11.227637     9A     -1.093477
      10A     -1.076891    11A     -1.031422    12A     -0.974559
      13A     -0.888923    14A     -0.864289    15A     -0.784610
      16A     -0.655518    17A     -0.646032    18A     -0.630720
      19A     -0.611013    20A     -0.557494    21A     -0.554671
      22A     -0.526108    23A     -0.524591    24A     -0.517371
      25A     -0.502013    26A     -0.452782    27A     -0.447259
      28A     -0.329804    29A     -0.327344

  @DF-RHF Final Energy:  -308.74259052090662

   => Energetics <=

    Nuclear Repulsion Energy =            287.5564104989616112
    One-Electron Energy =                -984.6601965046766054
    Two-Electron Energy =                 388.3611954848083201
    Total Energy =                       -308.7425905209066173
  Basis Set: (AUG-CC-PVTZ AUX)
    Blend: AUG-CC-PVTZ-RI
    Molecular point group: c1

    Geometry (in Angstrom), charge = 0, multiplicity = 1:

       Center              X                  Y                   Z               Mass
    ------------   -----------------  -----------------  -----------------  -----------------
         C           -3.371501674175    -0.391757283674    -0.055937216724    12.000000000000
         C            3.372696325825    -0.392135283674     0.058736783276    12.000000000000
         C           -3.940900674175     1.026165716326     0.032931783276    12.000000000000
         C            3.942003325825     1.025949716326    -0.028644216724    12.000000000000
         C           -1.910419674175    -0.408929283674    -0.031380216724    12.000000000000
         C            1.911696325825    -0.409489283674     0.034097783276    12.000000000000
         C           -0.683108674175    -0.411910283674    -0.010504216724    12.000000000000
         C            0.684385325825    -0.412030283674     0.013234783276    12.000000000000
         H           -3.751081674175    -0.997146283674     0.775426783276     1.007825032230
         H           -3.783847274175    -0.963243983674    -1.143882316724     1.007825032230
         H            3.752474325825    -0.996700283674    -0.773173216724     1.007825032230
         H            3.721538325825    -0.876363283674     0.978315783276     1.007825032230
         H           -3.592920674175     1.633260716326    -0.805441216724     1.007825032230
         H           -3.624139674175     1.510154716326     0.959190783276     1.007825032230
         H           -5.034156674175     1.000985716326     0.011870783276     1.007825032230
         H            3.625233325825     1.510872716326    -0.954412216724     1.007825032230
         H            3.593917325825     1.632202716326     0.810322783276     1.007825032230
         H            5.035227325825     1.000753716326    -0.007473216724     1.007825032230

  Basis Set: AUG-CC-PVTZ
    Blend: AUG-CC-PVTZ
  Basis Set: (AUG-CC-PVTZ AUX)
    Blend: AUG-CC-PVTZ-JKFIT
	 Reference Energy          =    -308.7425905209066173 [Eh]
	 Singles Energy            =      -0.0000000000000000 [Eh]
	 Same-Spin Energy          =      -0.3335012043056587 [Eh]
	 Opposite-Spin Energy      =      -1.1374268720791745 [Eh]
	 Correlation Energy        =      -1.4709280763848331 [Eh]
	 Total Energy              =    -310.2135185972914542 [Eh]

	 ================> DF-SCS-MP2 Energies <==================
	-----------------------------------------------------------
	 SCS Same-Spin Scale       =       0.3333333333333333 [-]
	 SCS Opposite-Spin Scale   =       1.2000000000000000 [-]
	 SCS Same-Spin Energy      =      -0.1111670681018862 [Eh]
	 SCS Opposite-Spin Energy  =      -1.3649122464950094 [Eh]
	 SCS Correlation Energy    =      -1.4760793145968956 [Eh]
	 SCS Total Energy          =    -310.2186698355035332 [Eh]
	-----------------------------------------------------------

  Dipole Moment: [D]
     X:     0.1142      Y:     0.3004      Z:     0.0797     Total:     0.3311

*** Psi4 exiting successfully. Buy a developer a beer!
