                               Psi4 1.3.2 release

  ==> Input File <==

--------------------------------------------------------------------------
#psi4
#
memory 32 gb

molecule  {
0 1
  C       -3.3721060    -0.3925950    -0.0575320
  C        3.3720920    -0.3929730     0.0571420
  C       -3.9415050     1.0253280     0.0313370
  C        3.9413990     1.0251120    -0.0302390
  C       -1.9110240    -0.4097670    -0.0329750
  C        1.9110920    -0.4103270     0.0325030
  C       -0.6837130    -0.4127480    -0.0120990
  C        0.7837659    -0.4128768     0.0133757
  H       -3.7516860    -0.9979840     0.7738320
  H       -3.7208300    -0.8759060    -0.9776160
  H        3.7518700    -0.9975380    -0.7747680
  H        3.7209340    -0.8772010     0.9767210
  H       -3.5935250     1.6324230    -0.8070360
  H       -3.6247440     1.5093170     0.9575960
  H       -5.0347610     1.0001480     0.0102760
  H        3.6246290     1.5100350    -0.9560070
  H        3.5933130     1.6313650     0.8087280
  H        5.0346230     0.9999160    -0.0090680
units angstrom
no_reorient  #important for SAPT in psi4, default
symmetry c1  #important for SAPT in psi4, default
}

set PROPERTIES_ORIGIN ["COM"]
properties('MP2/aug-cc-pvtz', properties = ['dipole'])
--------------------------------------------------------------------------

    Molecular point group: c1
  Charge       = 0
  Multiplicity = 1
  Basis Set: AUG-CC-PVTZ
    Blend: AUG-CC-PVTZ
  Basis Set: (AUG-CC-PVTZ AUX)
    Blend: AUG-CC-PVTZ-JKFIT

    Orbital Energies [Eh]
    ---------------------

    Doubly Occupied:

       1A    -11.256709     2A    -11.251727     3A    -11.250962
       4A    -11.243754     5A    -11.226947     6A    -11.225543
       7A    -11.225334     8A    -11.213728     9A     -1.096557
      10A     -1.080489    11A     -1.028447    12A     -0.985597
      13A     -0.882599    14A     -0.869426    15A     -0.759174
      16A     -0.654725    17A     -0.643721    18A     -0.630074
      19A     -0.628118    20A     -0.555404    21A     -0.552800
      22A     -0.525213    23A     -0.523450    24A     -0.518116
      25A     -0.513792    26A     -0.450864    27A     -0.449878
      28A     -0.349343    29A     -0.348502

  @DF-RHF Final Energy:  -308.75302253456744

   => Energetics <=

    Nuclear Repulsion Energy =            288.7666586703081748
    One-Electron Energy =                -987.1573778294451813
    Two-Electron Energy =                 389.6376966245695712
    Total Energy =                       -308.7530225345674353
  Basis Set: (AUG-CC-PVTZ AUX)
    Blend: AUG-CC-PVTZ-RI
    Molecular point group: c1

    Geometry (in Angstrom), charge = 0, multiplicity = 1:

       Center              X                  Y                   Z               Mass
    ------------   -----------------  -----------------  -----------------  -----------------
         C           -3.383416823956    -0.392594025206    -0.057728375778    12.000000000000
         C            3.360781176044    -0.392972025206     0.056945624222    12.000000000000
         C           -3.952815823956     1.025328974794     0.031140624222    12.000000000000
         C            3.930088176044     1.025112974794    -0.030435375778    12.000000000000
         C           -1.922334823956    -0.409766025206    -0.033171375778    12.000000000000
         C            1.899781176044    -0.410326025206     0.032306624222    12.000000000000
         C           -0.695023823956    -0.412747025206    -0.012295375778    12.000000000000
         C            0.772455076044    -0.412875825206     0.013179324222    12.000000000000
         H           -3.762996823956    -0.997983025206     0.773635624222     1.007825032230
         H           -3.732140823956    -0.875905025206    -0.977812375778     1.007825032230
         H            3.740559176044    -0.997537025206    -0.774964375778     1.007825032230
         H            3.709623176044    -0.877200025206     0.976524624222     1.007825032230
         H           -3.604835823956     1.632423974794    -0.807232375778     1.007825032230
         H           -3.636054823956     1.509317974794     0.957399624222     1.007825032230
         H           -5.046071823956     1.000148974794     0.010079624222     1.007825032230
         H            3.613318176044     1.510035974794    -0.956203375778     1.007825032230
         H            3.582002176044     1.631365974794     0.808531624222     1.007825032230
         H            5.023312176044     0.999916974794    -0.009264375778     1.007825032230

  Basis Set: AUG-CC-PVTZ
    Blend: AUG-CC-PVTZ
  Basis Set: (AUG-CC-PVTZ AUX)
    Blend: AUG-CC-PVTZ-JKFIT
	 Reference Energy          =    -308.7530225345674353 [Eh]
	 Singles Energy            =      -0.0000000000000000 [Eh]
	 Same-Spin Energy          =      -0.3269490902490423 [Eh]
	 Opposite-Spin Energy      =      -1.1262990486898508 [Eh]
	 Correlation Energy        =      -1.4532481389388932 [Eh]
	 Total Energy              =    -310.2062706735063102 [Eh]

	 ================> DF-SCS-MP2 Energies <==================
	-----------------------------------------------------------
	 SCS Same-Spin Scale       =       0.3333333333333333 [-]
	 SCS Opposite-Spin Scale   =       1.2000000000000000 [-]
	 SCS Same-Spin Energy      =      -0.1089830300830141 [Eh]
	 SCS Opposite-Spin Energy  =      -1.3515588584278209 [Eh]
	 SCS Correlation Energy    =      -1.4605418885108350 [Eh]
	 SCS Total Energy          =    -310.2135644230782532 [Eh]
	-----------------------------------------------------------

  Dipole Moment: [D]
     X:    -0.0489      Y:     0.2131      Z:     0.0001     Total:     0.2187

*** Psi4 exiting successfully. Buy a developer a beer!
