                               Psi4 1.3.2 release

  ==> Input File <==

--------------------------------------------------------------------------
#psi4
#
memory 32 gb

molecule  {
0 1
  C       -3.3721060    -0.3925950    -0.0575320
  C        3.3720920    -0.3929730     0.0571420
  C       -3.8671011     0.8400466     0.0197244
  C        3.9413990     1.0251120    -0.0302390
  C       -1.9110240    -0.4097670    -0.0329750
  C        1.9110920    -0.4103270     0.0325030
  C       -0.6837130    -0.4127480    -0.0120990
  C        0.6837810    -0.4128680     0.0116400
  H       -3.7516860    -0.9979840     0.7738320
  H       -3.7208300    -0.8759060    -0.9776160
  H        3.7518700    -0.9975380    -0.7747680
  H        3.7209340    -0.8772010     0.9767210
  H       -3.5935250     1.6324230    -0.8070360
  H       -3.6247440     1.5093170     0.9575960
  H       -5.0347610     1.0001480     0.0102760
  H        3.6246290     1.5100350    -0.9560070
  H        3.5933130     1.6313650     0.8087280
  H        5.0346230     0.9999160    -0.0090680
units angstrom
no_reorient  #important for SAPT in psi4, default
symmetry c1  #important for SAPT in psi4, default
}

set PROPERTIES_ORIGIN ["COM"]
properties('MP2/aug-cc-pvtz', properties = ['dipole'])
--------------------------------------------------------------------------

    Molecular point group: c1
  Charge       = 0
  Multiplicity = 1
  Basis Set: AUG-CC-PVTZ
    Blend: AUG-CC-PVTZ
  Basis Set: (AUG-CC-PVTZ AUX)
    Blend: AUG-CC-PVTZ-JKFIT

    Orbital Energies [Eh]
    ---------------------

    Doubly Occupied:

       1A    -11.258023     2A    -11.249405     3A    -11.247412
       4A    -11.247132     5A    -11.243585     6A    -11.242019
       7A    -11.238340     8A    -11.227836     9A     -1.123382
      10A     -1.088460    11A     -1.041595    12A     -0.977880
      13A     -0.884852    14A     -0.853467    15A     -0.787609
      16A     -0.668493    17A     -0.650687    18A     -0.643961
      19A     -0.630946    20A     -0.614061    21A     -0.555723
      22A     -0.526415    23A     -0.517296    24A     -0.479017
      25A     -0.473514    26A     -0.456253    27A     -0.447086
      28A     -0.332187    29A     -0.329854

  @DF-RHF Final Energy:  -308.71247207257090

   => Energetics <=

    Nuclear Repulsion Energy =            290.8405467148920707
    One-Electron Energy =                -991.0330593889848387
    Two-Electron Energy =                 391.4800406015218641
    Total Energy =                       -308.7124720725709039
  Basis Set: (AUG-CC-PVTZ AUX)
    Blend: AUG-CC-PVTZ-RI
    Molecular point group: c1

    Geometry (in Angstrom), charge = 0, multiplicity = 1:

       Center              X                  Y                   Z               Mass
    ------------   -----------------  -----------------  -----------------  -----------------
         C           -3.380522997945    -0.371635240599    -0.056218362184    12.000000000000
         C            3.363675002055    -0.372013240599     0.058455637816    12.000000000000
         C           -3.875518097945     0.861006359401     0.021038037816    12.000000000000
         C            3.932982002055     1.046071759401    -0.028925362184    12.000000000000
         C           -1.919440997945    -0.388807240599    -0.031661362184    12.000000000000
         C            1.902675002055    -0.389367240599     0.033816637816    12.000000000000
         C           -0.692129997945    -0.391788240599    -0.010785362184    12.000000000000
         C            0.675364002055    -0.391908240599     0.012953637816    12.000000000000
         H           -3.760102997945    -0.977024240599     0.775145637816     1.007825032230
         H           -3.729246997945    -0.854946240599    -0.976302362184     1.007825032230
         H            3.743453002055    -0.976578240599    -0.773454362184     1.007825032230
         H            3.712517002055    -0.856241240599     0.978034637816     1.007825032230
         H           -3.601941997945     1.653382759401    -0.805722362184     1.007825032230
         H           -3.633160997945     1.530276759401     0.958909637816     1.007825032230
         H           -5.043177997945     1.021107759401     0.011589637816     1.007825032230
         H            3.616212002055     1.530994759401    -0.954693362184     1.007825032230
         H            3.584896002055     1.652324759401     0.810041637816     1.007825032230
         H            5.026206002055     1.020875759401    -0.007754362184     1.007825032230

  Basis Set: AUG-CC-PVTZ
    Blend: AUG-CC-PVTZ
  Basis Set: (AUG-CC-PVTZ AUX)
    Blend: AUG-CC-PVTZ-JKFIT
	 Reference Energy          =    -308.7124720725709039 [Eh]
	 Singles Energy            =      -0.0000000000000000 [Eh]
	 Same-Spin Energy          =      -0.3357870757485226 [Eh]
	 Opposite-Spin Energy      =      -1.1395661757995956 [Eh]
	 Correlation Energy        =      -1.4753532515481182 [Eh]
	 Total Energy              =    -310.1878253241190464 [Eh]

	 ================> DF-SCS-MP2 Energies <==================
	-----------------------------------------------------------
	 SCS Same-Spin Scale       =       0.3333333333333333 [-]
	 SCS Opposite-Spin Scale   =       1.2000000000000000 [-]
	 SCS Same-Spin Energy      =      -0.1119290252495075 [Eh]
	 SCS Opposite-Spin Energy  =      -1.3674794109595148 [Eh]
	 SCS Correlation Energy    =      -1.4794084362090223 [Eh]
	 SCS Total Energy          =    -310.1918805087799456 [Eh]
	-----------------------------------------------------------

  Dipole Moment: [D]
     X:     0.1578      Y:     0.1402      Z:    -0.0035     Total:     0.2112

*** Psi4 exiting successfully. Buy a developer a beer!
