                               Psi4 1.3.2 release

  ==> Input File <==

--------------------------------------------------------------------------
#psi4
#
memory 32 gb

molecule  {
0 1
  C       -3.3721060    -0.3925950    -0.0575320
  C        3.3720920    -0.3929730     0.0571420
  C       -3.8663840     1.0530262     0.0345932
  C        3.9413990     1.0251120    -0.0302390
  C       -1.9122194    -0.3334509    -0.0276727
  C        1.9110920    -0.4103270     0.0325030
  C       -0.6837130    -0.4127480    -0.0120990
  C        0.6837810    -0.4128680     0.0116400
  H       -3.7516860    -0.9979840     0.7738320
  H       -3.7208300    -0.8759060    -0.9776160
  H        3.7518700    -0.9975380    -0.7747680
  H        3.7209340    -0.8772010     0.9767210
  H       -3.5935250     1.6324230    -0.8070360
  H       -3.6247440     1.5093170     0.9575960
  H       -5.0347610     1.0001480     0.0102760
  H        3.6246290     1.5100350    -0.9560070
  H        3.5933130     1.6313650     0.8087280
  H        5.0346230     0.9999160    -0.0090680
units angstrom
no_reorient  #important for SAPT in psi4, default
symmetry c1  #important for SAPT in psi4, default
}

set PROPERTIES_ORIGIN ["COM"]
properties('MP2/aug-cc-pvtz', properties = ['dipole'])
--------------------------------------------------------------------------

    Molecular point group: c1
  Charge       = 0
  Multiplicity = 1
  Basis Set: AUG-CC-PVTZ
    Blend: AUG-CC-PVTZ
  Basis Set: (AUG-CC-PVTZ AUX)
    Blend: AUG-CC-PVTZ-JKFIT

    Orbital Energies [Eh]
    ---------------------

    Doubly Occupied:

       1A    -11.258028     2A    -11.257068     3A    -11.245801
       4A    -11.245553     5A    -11.241697     6A    -11.240534
       7A    -11.227514     8A    -11.227071     9A     -1.094917
      10A     -1.080635    11A     -1.032457    12A     -0.972514
      13A     -0.888747    14A     -0.867316    15A     -0.786404
      16A     -0.657814    17A     -0.646838    18A     -0.638756
      19A     -0.630044    20A     -0.555458    21A     -0.550301
      22A     -0.531247    23A     -0.525552    24A     -0.516032
      25A     -0.507068    26A     -0.451074    27A     -0.449964
      28A     -0.327784    29A     -0.327303

  @DF-RHF Final Energy:  -308.75308102699711

   => Energetics <=

    Nuclear Repulsion Energy =            288.8210453104594535
    One-Electron Energy =                -987.1852672121293608
    Two-Electron Energy =                 389.6111408746727989
    Total Energy =                       -308.7530810269971084
  Basis Set: (AUG-CC-PVTZ AUX)
    Blend: AUG-CC-PVTZ-RI
    Molecular point group: c1

    Geometry (in Angstrom), charge = 0, multiplicity = 1:

       Center              X                  Y                   Z               Mass
    ------------   -----------------  -----------------  -----------------  -----------------
         C           -3.380468890718    -0.404361538303    -0.058500198463    12.000000000000
         C            3.363729109282    -0.404739538303     0.056173801537    12.000000000000
         C           -3.874746890718     1.041259661697     0.033625001537    12.000000000000
         C            3.933036109282     1.013345461697    -0.031207198463    12.000000000000
         C           -1.920582290718    -0.345217438303    -0.028640898463    12.000000000000
         C            1.902729109282    -0.422093538303     0.031534801537    12.000000000000
         C           -0.692075890718    -0.424514538303    -0.013067198463    12.000000000000
         C            0.675418109282    -0.424634538303     0.010671801537    12.000000000000
         H           -3.760048890718    -1.009750538303     0.772863801537     1.007825032230
         H           -3.729192890718    -0.887672538303    -0.978584198463     1.007825032230
         H            3.743507109282    -1.009304538303    -0.775736198463     1.007825032230
         H            3.712571109282    -0.888967538303     0.975752801537     1.007825032230
         H           -3.601887890718     1.620656461697    -0.808004198463     1.007825032230
         H           -3.633106890718     1.497550461697     0.956627801537     1.007825032230
         H           -5.043123890718     0.988381461697     0.009307801537     1.007825032230
         H            3.616266109282     1.498268461697    -0.956975198463     1.007825032230
         H            3.584950109282     1.619598461697     0.807759801537     1.007825032230
         H            5.026260109282     0.988149461697    -0.010036198463     1.007825032230

  Basis Set: AUG-CC-PVTZ
    Blend: AUG-CC-PVTZ
  Basis Set: (AUG-CC-PVTZ AUX)
    Blend: AUG-CC-PVTZ-JKFIT
	 Reference Energy          =    -308.7530810269971084 [Eh]
	 Singles Energy            =      -0.0000000000000000 [Eh]
	 Same-Spin Energy          =      -0.3337706812211170 [Eh]
	 Opposite-Spin Energy      =      -1.1367219322712723 [Eh]
	 Correlation Energy        =      -1.4704926134923892 [Eh]
	 Total Energy              =    -310.2235736404895192 [Eh]

	 ================> DF-SCS-MP2 Energies <==================
	-----------------------------------------------------------
	 SCS Same-Spin Scale       =       0.3333333333333333 [-]
	 SCS Opposite-Spin Scale   =       1.2000000000000000 [-]
	 SCS Same-Spin Energy      =      -0.1112568937403723 [Eh]
	 SCS Opposite-Spin Energy  =      -1.3640663187255266 [Eh]
	 SCS Correlation Energy    =      -1.4753232124658990 [Eh]
	 SCS Total Energy          =    -310.2284042394630319 [Eh]
	-----------------------------------------------------------

  Dipole Moment: [D]
     X:     0.0418      Y:     0.1667      Z:    -0.0031     Total:     0.1719

*** Psi4 exiting successfully. Buy a developer a beer!
