                               Psi4 1.3.2 release

  ==> Input File <==

--------------------------------------------------------------------------
#psi4
#
memory 32 gb

molecule  {
0 1
  C       -3.3721060    -0.3925950    -0.0575320
  C        3.3720920    -0.3929730     0.0571420
  C       -3.9907311     1.0046983     0.0290303
  C        3.9413990     1.0251120    -0.0302390
  C       -1.9124522    -0.4606312    -0.0365482
  C        1.9110920    -0.4103270     0.0325030
  C       -0.6837130    -0.4127480    -0.0120990
  C        0.6837810    -0.4128680     0.0116400
  H       -3.7516860    -0.9979840     0.7738320
  H       -3.7208300    -0.8759060    -0.9776160
  H        3.7518700    -0.9975380    -0.7747680
  H        3.7209340    -0.8772010     0.9767210
  H       -3.5935250     1.6324230    -0.8070360
  H       -3.6247440     1.5093170     0.9575960
  H       -5.0347610     1.0001480     0.0102760
  H        3.6246290     1.5100350    -0.9560070
  H        3.5933130     1.6313650     0.8087280
  H        5.0346230     0.9999160    -0.0090680
units angstrom
no_reorient  #important for SAPT in psi4, default
symmetry c1  #important for SAPT in psi4, default
}

set PROPERTIES_ORIGIN ["COM"]
properties('MP2/aug-cc-pvtz', properties = ['dipole'])
--------------------------------------------------------------------------

    Molecular point group: c1
  Charge       = 0
  Multiplicity = 1
  Basis Set: AUG-CC-PVTZ
    Blend: AUG-CC-PVTZ
  Basis Set: (AUG-CC-PVTZ AUX)
    Blend: AUG-CC-PVTZ-JKFIT

    Orbital Energies [Eh]
    ---------------------

    Doubly Occupied:

       1A    -11.257409     2A    -11.256943     3A    -11.247301
       4A    -11.246303     5A    -11.242795     6A    -11.241215
       7A    -11.228182     8A    -11.227453     9A     -1.093886
      10A     -1.078898    11A     -1.032679    12A     -0.974469
      13A     -0.891589    14A     -0.868925    15A     -0.786340
      16A     -0.655975    17A     -0.646225    18A     -0.630535
      19A     -0.625599    20A     -0.569791    21A     -0.555204
      22A     -0.526074    23A     -0.524568    24A     -0.517054
      25A     -0.504892    26A     -0.451657    27A     -0.450592
      28A     -0.329444    29A     -0.327698

  @DF-RHF Final Energy:  -308.75807685655377

   => Energetics <=

    Nuclear Repulsion Energy =            287.9665904659913735
    One-Electron Energy =                -985.4699466904419296
    Two-Electron Energy =                 388.7452793678967282
    Total Energy =                       -308.7580768565537710
  Basis Set: (AUG-CC-PVTZ AUX)
    Blend: AUG-CC-PVTZ-RI
    Molecular point group: c1

    Geometry (in Angstrom), charge = 0, multiplicity = 1:

       Center              X                  Y                   Z               Mass
    ------------   -----------------  -----------------  -----------------  -----------------
         C           -3.366375909400    -0.384507342051    -0.056866868356    12.000000000000
         C            3.377822090600    -0.384885342051     0.057807131644    12.000000000000
         C           -3.985001009400     1.012785957949     0.029695431644    12.000000000000
         C            3.947129090600     1.033199657949    -0.029573868356    12.000000000000
         C           -1.906722109400    -0.452543542051    -0.035883068356    12.000000000000
         C            1.916822090600    -0.402239342051     0.033168131644    12.000000000000
         C           -0.677982909400    -0.404660342051    -0.011433868356    12.000000000000
         C            0.689511090600    -0.404780342051     0.012305131644    12.000000000000
         H           -3.745955909400    -0.989896342051     0.774497131644     1.007825032230
         H           -3.715099909400    -0.867818342051    -0.976950868356     1.007825032230
         H            3.757600090600    -0.989450342051    -0.774102868356     1.007825032230
         H            3.726664090600    -0.869113342051     0.977386131644     1.007825032230
         H           -3.587794909400     1.640510657949    -0.806370868356     1.007825032230
         H           -3.619013909400     1.517404657949     0.958261131644     1.007825032230
         H           -5.029030909400     1.008235657949     0.010941131644     1.007825032230
         H            3.630359090600     1.518122657949    -0.955341868356     1.007825032230
         H            3.599043090600     1.639452657949     0.809393131644     1.007825032230
         H            5.040353090600     1.008003657949    -0.008402868356     1.007825032230

  Basis Set: AUG-CC-PVTZ
    Blend: AUG-CC-PVTZ
  Basis Set: (AUG-CC-PVTZ AUX)
    Blend: AUG-CC-PVTZ-JKFIT
	 Reference Energy          =    -308.7580768565537710 [Eh]
	 Singles Energy            =      -0.0000000000000000 [Eh]
	 Same-Spin Energy          =      -0.3334496073174320 [Eh]
	 Opposite-Spin Energy      =      -1.1362527673717278 [Eh]
	 Correlation Energy        =      -1.4697023746891598 [Eh]
	 Total Energy              =    -310.2277792312429483 [Eh]

	 ================> DF-SCS-MP2 Energies <==================
	-----------------------------------------------------------
	 SCS Same-Spin Scale       =       0.3333333333333333 [-]
	 SCS Opposite-Spin Scale   =       1.2000000000000000 [-]
	 SCS Same-Spin Energy      =      -0.1111498691058107 [Eh]
	 SCS Opposite-Spin Energy  =      -1.3635033208460732 [Eh]
	 SCS Correlation Energy    =      -1.4746531899518838 [Eh]
	 SCS Total Energy          =    -310.2327300465056510 [Eh]
	-----------------------------------------------------------

  Dipole Moment: [D]
     X:     0.0213      Y:     0.2558      Z:     0.0025     Total:     0.2566

*** Psi4 exiting successfully. Buy a developer a beer!
