                               Psi4 1.3.2 release

  ==> Input File <==

--------------------------------------------------------------------------
#psi4
#
memory 32 gb

molecule  {
0 1
  C       -3.3721060    -0.3925950    -0.0575320
  C        3.3720920    -0.3929730     0.0571420
  C       -3.9415050     1.0253280     0.0313370
  C        3.9413990     1.0251120    -0.0302390
  C       -1.9110240    -0.4097670    -0.0329750
  C        2.1110495    -0.4079519     0.0358752
  C       -0.6837130    -0.4127480    -0.0120990
  C        0.6837810    -0.4128680     0.0116400
  H       -3.7516860    -0.9979840     0.7738320
  H       -3.7208300    -0.8759060    -0.9776160
  H        3.7518700    -0.9975380    -0.7747680
  H        3.7209340    -0.8772010     0.9767210
  H       -3.5935250     1.6324230    -0.8070360
  H       -3.6247440     1.5093170     0.9575960
  H       -5.0347610     1.0001480     0.0102760
  H        3.6246290     1.5100350    -0.9560070
  H        3.5933130     1.6313650     0.8087280
  H        5.0346230     0.9999160    -0.0090680
units angstrom
no_reorient  #important for SAPT in psi4, default
symmetry c1  #important for SAPT in psi4, default
}

set PROPERTIES_ORIGIN ["COM"]
properties('MP2/aug-cc-pvtz', properties = ['dipole'])
--------------------------------------------------------------------------

    Molecular point group: c1
  Charge       = 0
  Multiplicity = 1
  Basis Set: AUG-CC-PVTZ
    Blend: AUG-CC-PVTZ
  Basis Set: (AUG-CC-PVTZ AUX)
    Blend: AUG-CC-PVTZ-JKFIT

    Orbital Energies [Eh]
    ---------------------

    Doubly Occupied:

       1A    -11.287131     2A    -11.285457     3A    -11.256444
       4A    -11.246540     5A    -11.245793     6A    -11.243277
       7A    -11.234614     8A    -11.226285     9A     -1.136842
      10A     -1.086115    11A     -1.026008    12A     -0.951232
      13A     -0.909829    14A     -0.863469    15A     -0.770891
      16A     -0.678986    17A     -0.652394    18A     -0.648868
      19A     -0.629209    20A     -0.577498    21A     -0.553869
      22A     -0.537744    23A     -0.529262    24A     -0.524693
      25A     -0.515132    26A     -0.436488    27A     -0.436353
      28A     -0.296111    29A     -0.295108

  @DF-RHF Final Energy:  -308.64426841767522

   => Energetics <=

    Nuclear Repulsion Energy =            288.1034126509901512
    One-Electron Energy =                -985.3320762071537047
    Two-Electron Energy =                 388.5843951384883894
    Total Energy =                       -308.6442684176752209
  Basis Set: (AUG-CC-PVTZ AUX)
    Blend: AUG-CC-PVTZ-RI
    Molecular point group: c1

    Geometry (in Angstrom), charge = 0, multiplicity = 1:

       Center              X                  Y                   Z               Mass
    ------------   -----------------  -----------------  -----------------  -----------------
         C           -3.394726128138    -0.392863701599    -0.057913503266    12.000000000000
         C            3.349471871862    -0.393241701599     0.056760496734    12.000000000000
         C           -3.964125128138     1.025059298401     0.030955496734    12.000000000000
         C            3.918778871862     1.024843298401    -0.030620503266    12.000000000000
         C           -1.933644128138    -0.410035701599    -0.033356503266    12.000000000000
         C            2.088429371862    -0.408220601599     0.035493696734    12.000000000000
         C           -0.706333128138    -0.413016701599    -0.012480503266    12.000000000000
         C            0.661160871862    -0.413136701599     0.011258496734    12.000000000000
         H           -3.774306128138    -0.998252701599     0.773450496734     1.007825032230
         H           -3.743450128138    -0.876174701599    -0.977997503266     1.007825032230
         H            3.729249871862    -0.997806701599    -0.775149503266     1.007825032230
         H            3.698313871862    -0.877469701599     0.976339496734     1.007825032230
         H           -3.616145128138     1.632154298401    -0.807417503266     1.007825032230
         H           -3.647364128138     1.509048298401     0.957214496734     1.007825032230
         H           -5.057381128138     0.999879298401     0.009894496734     1.007825032230
         H            3.602008871862     1.509766298401    -0.956388503266     1.007825032230
         H            3.570692871862     1.631096298401     0.808346496734     1.007825032230
         H            5.012002871862     0.999647298401    -0.009449503266     1.007825032230

  Basis Set: AUG-CC-PVTZ
    Blend: AUG-CC-PVTZ
  Basis Set: (AUG-CC-PVTZ AUX)
    Blend: AUG-CC-PVTZ-JKFIT
	 Reference Energy          =    -308.6442684176752209 [Eh]
	 Singles Energy            =      -0.0000000000000000 [Eh]
	 Same-Spin Energy          =      -0.3484010743245695 [Eh]
	 Opposite-Spin Energy      =      -1.1593185499140892 [Eh]
	 Correlation Energy        =      -1.5077196242386588 [Eh]
	 Total Energy              =    -310.1519880419138531 [Eh]

	 ================> DF-SCS-MP2 Energies <==================
	-----------------------------------------------------------
	 SCS Same-Spin Scale       =       0.3333333333333333 [-]
	 SCS Opposite-Spin Scale   =       1.2000000000000000 [-]
	 SCS Same-Spin Energy      =      -0.1161336914415231 [Eh]
	 SCS Opposite-Spin Energy  =      -1.3911822598969070 [Eh]
	 SCS Correlation Energy    =      -1.5073159513384302 [Eh]
	 SCS Total Energy          =    -310.1515843690136762 [Eh]
	-----------------------------------------------------------

  Dipole Moment: [D]
     X:     0.2921      Y:     0.2316      Z:     0.0047     Total:     0.3728

*** Psi4 exiting successfully. Buy a developer a beer!
