                               Psi4 1.3.2 release

  ==> Input File <==

--------------------------------------------------------------------------
#psi4
#
memory 32 gb

molecule  {
0 1
  C       -3.3721060    -0.3925950    -0.0575320
  C        3.3720920    -0.3929730     0.0571420
  C       -3.9415050     1.0253280     0.0313370
  C        3.9413990     1.0251120    -0.0302390
  C       -1.9110240    -0.4097670    -0.0329750
  C        1.9110920    -0.4103270     0.0325030
  C       -0.8836835    -0.4122623    -0.0155004
  C        0.6837810    -0.4128680     0.0116400
  H       -3.7516860    -0.9979840     0.7738320
  H       -3.7208300    -0.8759060    -0.9776160
  H        3.7518700    -0.9975380    -0.7747680
  H        3.7209340    -0.8772010     0.9767210
  H       -3.5935250     1.6324230    -0.8070360
  H       -3.6247440     1.5093170     0.9575960
  H       -5.0347610     1.0001480     0.0102760
  H        3.6246290     1.5100350    -0.9560070
  H        3.5933130     1.6313650     0.8087280
  H        5.0346230     0.9999160    -0.0090680
units angstrom
no_reorient  #important for SAPT in psi4, default
symmetry c1  #important for SAPT in psi4, default
}

set PROPERTIES_ORIGIN ["COM"]
properties('MP2/aug-cc-pvtz', properties = ['dipole'])
--------------------------------------------------------------------------

    Molecular point group: c1
  Charge       = 0
  Multiplicity = 1
  Basis Set: AUG-CC-PVTZ
    Blend: AUG-CC-PVTZ
  Basis Set: (AUG-CC-PVTZ AUX)
    Blend: AUG-CC-PVTZ-JKFIT

    Orbital Energies [Eh]
    ---------------------

    Doubly Occupied:

       1A    -11.257114     2A    -11.256390     3A    -11.246002
       4A    -11.243224     5A    -11.226770     6A    -11.223417
       7A    -11.208582     8A    -11.183046     9A     -1.106462
      10A     -1.080847    11A     -1.029854    12A     -0.989016
      13A     -0.877567    14A     -0.868852    15A     -0.726274
      16A     -0.651644    17A     -0.639051    18A     -0.629712
      19A     -0.626979    20A     -0.555825    21A     -0.552595
      22A     -0.524891    23A     -0.521265    24A     -0.519635
      25A     -0.513916    26A     -0.459356    27A     -0.457515
      28A     -0.365096    29A     -0.364334

  @DF-RHF Final Energy:  -308.67204605773469

   => Energetics <=

    Nuclear Repulsion Energy =            289.6515028110468393
    One-Electron Energy =                -988.8366357852513602
    Two-Electron Energy =                 390.5130869164698311
    Total Energy =                       -308.6720460577346898
  Basis Set: (AUG-CC-PVTZ AUX)
    Blend: AUG-CC-PVTZ-RI
    Molecular point group: c1

    Geometry (in Angstrom), charge = 0, multiplicity = 1:

       Center              X                  Y                   Z               Mass
    ------------   -----------------  -----------------  -----------------  -----------------
         C           -3.349484657946    -0.392649965042    -0.057147246283    12.000000000000
         C            3.394713342054    -0.393027965042     0.057526753717    12.000000000000
         C           -3.918883657946     1.025273034958     0.031721753717    12.000000000000
         C            3.964020342054     1.025057034958    -0.029854246283    12.000000000000
         C           -1.888402657946    -0.409821965042    -0.032590246283    12.000000000000
         C            1.933713342054    -0.410381965042     0.032887753717    12.000000000000
         C           -0.861062157946    -0.412317265042    -0.015115646283    12.000000000000
         C            0.706402342054    -0.412922965042     0.012024753717    12.000000000000
         H           -3.729064657946    -0.998038965042     0.774216753717     1.007825032230
         H           -3.698208657946    -0.875960965042    -0.977231246283     1.007825032230
         H            3.774491342054    -0.997592965042    -0.774383246283     1.007825032230
         H            3.743555342054    -0.877255965042     0.977105753717     1.007825032230
         H           -3.570903657946     1.632368034958    -0.806651246283     1.007825032230
         H           -3.602122657946     1.509262034958     0.957980753717     1.007825032230
         H           -5.012139657946     1.000093034958     0.010660753717     1.007825032230
         H            3.647250342054     1.509980034958    -0.955622246283     1.007825032230
         H            3.615934342054     1.631310034958     0.809112753717     1.007825032230
         H            5.057244342054     0.999861034958    -0.008683246283     1.007825032230

  Basis Set: AUG-CC-PVTZ
    Blend: AUG-CC-PVTZ
  Basis Set: (AUG-CC-PVTZ AUX)
    Blend: AUG-CC-PVTZ-JKFIT
	 Reference Energy          =    -308.6720460577346898 [Eh]
	 Singles Energy            =      -0.0000000000000000 [Eh]
	 Same-Spin Energy          =      -0.3222360843397313 [Eh]
	 Opposite-Spin Energy      =      -1.1190721573092723 [Eh]
	 Correlation Energy        =      -1.4413082416490037 [Eh]
	 Total Energy              =    -310.1133542993836727 [Eh]

	 ================> DF-SCS-MP2 Energies <==================
	-----------------------------------------------------------
	 SCS Same-Spin Scale       =       0.3333333333333333 [-]
	 SCS Opposite-Spin Scale   =       1.2000000000000000 [-]
	 SCS Same-Spin Energy      =      -0.1074120281132438 [Eh]
	 SCS Opposite-Spin Energy  =      -1.3428865887711268 [Eh]
	 SCS Correlation Energy    =      -1.4502986168843706 [Eh]
	 SCS Total Energy          =    -310.1223446746190575 [Eh]
	-----------------------------------------------------------

  Dipole Moment: [D]
     X:     0.1288      Y:     0.1973      Z:     0.0007     Total:     0.2356

*** Psi4 exiting successfully. Buy a developer a beer!
