                               Psi4 1.3.2 release

  ==> Input File <==

--------------------------------------------------------------------------
#psi4
#
memory 32 gb

molecule  {
0 1
  C       -3.3467979    -0.3786100    -0.1024546
  C        3.3720920    -0.3929730     0.0571420
  C       -3.9415050     1.0253280     0.0313370
  C        3.9413990     1.0251120    -0.0302390
  C       -1.9110240    -0.4097670    -0.0329750
  C        1.9110920    -0.4103270     0.0325030
  C       -0.6837130    -0.4127480    -0.0120990
  C        0.6837810    -0.4128680     0.0116400
  H       -3.7516860    -0.9979840     0.7738320
  H       -3.7208300    -0.8759060    -0.9776160
  H        3.7518700    -0.9975380    -0.7747680
  H        3.7209340    -0.8772010     0.9767210
  H       -3.5740244     1.6022994    -0.8198890
  H       -3.6247440     1.5093170     0.9575960
  H       -5.0347610     1.0001480     0.0102760
  H        3.6246290     1.5100350    -0.9560070
  H        3.5933130     1.6313650     0.8087280
  H        5.0346230     0.9999160    -0.0090680
units angstrom
no_reorient  #important for SAPT in psi4, default
symmetry c1  #important for SAPT in psi4, default
}

set PROPERTIES_ORIGIN ["COM"]
properties('MP2/aug-cc-pvtz', properties = ['dipole'])
--------------------------------------------------------------------------

    Molecular point group: c1
  Charge       = 0
  Multiplicity = 1
  Basis Set: AUG-CC-PVTZ
    Blend: AUG-CC-PVTZ
  Basis Set: (AUG-CC-PVTZ AUX)
    Blend: AUG-CC-PVTZ-JKFIT

    Orbital Energies [Eh]
    ---------------------

    Doubly Occupied:

       1A    -11.257343     2A    -11.256815     3A    -11.246143
       4A    -11.245562     5A    -11.241991     6A    -11.240929
       7A    -11.227460     8A    -11.227351     9A     -1.095685
      10A     -1.080864    11A     -1.032687    12A     -0.974243
      13A     -0.891027    14A     -0.868165    15A     -0.786064
      16A     -0.660782    17A     -0.649029    18A     -0.630454
      19A     -0.625887    20A     -0.559380    21A     -0.554836
      22A     -0.527409    23A     -0.525813    24A     -0.517149
      25A     -0.509634    26A     -0.452069    27A     -0.448765
      28A     -0.329262    29A     -0.327002

  @DF-RHF Final Energy:  -308.75858270656238

   => Energetics <=

    Nuclear Repulsion Energy =            288.6657796197667381
    One-Electron Energy =                -986.8691244836892338
    Two-Electron Energy =                 389.4447621573600600
    Total Energy =                       -308.7585827065623789
  Basis Set: (AUG-CC-PVTZ AUX)
    Blend: AUG-CC-PVTZ-RI
    Molecular point group: c1

    Geometry (in Angstrom), charge = 0, multiplicity = 1:

       Center              X                  Y                   Z               Mass
    ------------   -----------------  -----------------  -----------------  -----------------
         C           -3.349846253520    -0.379905862978    -0.097250687091    12.000000000000
         C            3.369043646480    -0.394268862978     0.062345912909    12.000000000000
         C           -3.944553353520     1.024032137022     0.036540912909    12.000000000000
         C            3.938350646480     1.023816137022    -0.025035087091    12.000000000000
         C           -1.914072353520    -0.411062862978    -0.027771087091    12.000000000000
         C            1.908043646480    -0.411622862978     0.037706912909    12.000000000000
         C           -0.686761353520    -0.414043862978    -0.006895087091    12.000000000000
         C            0.680732646480    -0.414163862978     0.016843912909    12.000000000000
         H           -3.754734353520    -0.999279862978     0.779035912909     1.007825032230
         H           -3.723878353520    -0.877201862978    -0.972412087091     1.007825032230
         H            3.748821646480    -0.998833862978    -0.769564087091     1.007825032230
         H            3.717885646480    -0.878496862978     0.981924912909     1.007825032230
         H           -3.577072753520     1.601003537022    -0.814685087091     1.007825032230
         H           -3.627792353520     1.508021137022     0.962799912909     1.007825032230
         H           -5.037809353520     0.998852137022     0.015479912909     1.007825032230
         H            3.621580646480     1.508739137022    -0.950803087091     1.007825032230
         H            3.590264646480     1.630069137022     0.813931912909     1.007825032230
         H            5.031574646480     0.998620137022    -0.003864087091     1.007825032230

  Basis Set: AUG-CC-PVTZ
    Blend: AUG-CC-PVTZ
  Basis Set: (AUG-CC-PVTZ AUX)
    Blend: AUG-CC-PVTZ-JKFIT
	 Reference Energy          =    -308.7585827065623789 [Eh]
	 Singles Energy            =      -0.0000000000000000 [Eh]
	 Same-Spin Energy          =      -0.3337469150995263 [Eh]
	 Opposite-Spin Energy      =      -1.1362897107663432 [Eh]
	 Correlation Energy        =      -1.4700366258658695 [Eh]
	 Total Energy              =    -310.2286193324282522 [Eh]

	 ================> DF-SCS-MP2 Energies <==================
	-----------------------------------------------------------
	 SCS Same-Spin Scale       =       0.3333333333333333 [-]
	 SCS Opposite-Spin Scale   =       1.2000000000000000 [-]
	 SCS Same-Spin Energy      =      -0.1112489716998421 [Eh]
	 SCS Opposite-Spin Energy  =      -1.3635476529196118 [Eh]
	 SCS Correlation Energy    =      -1.4747966246194539 [Eh]
	 SCS Total Energy          =    -310.2333793311818226 [Eh]
	-----------------------------------------------------------

  Dipole Moment: [D]
     X:     0.0334      Y:     0.2303      Z:    -0.0314     Total:     0.2348

*** Psi4 exiting successfully. Buy a developer a beer!
