                               Psi4 1.3.2 release

  ==> Input File <==

--------------------------------------------------------------------------
#psi4
#
memory 32 gb

molecule  {
0 1
  C       -3.3721060    -0.3925950    -0.0575320
  C        3.3720920    -0.3929730     0.0571420
  C       -3.9029094     1.0341967     0.1009982
  C        3.9413990     1.0251120    -0.0302390
  C       -1.9110240    -0.4097670    -0.0329750
  C        1.9110920    -0.4103270     0.0325030
  C       -0.6837130    -0.4127480    -0.0120990
  C        0.6837810    -0.4128680     0.0116400
  H       -3.7516860    -0.9979840     0.7738320
  H       -3.6910938    -0.9226267    -0.9625545
  H        3.7518700    -0.9975380    -0.7747680
  H        3.7209340    -0.8772010     0.9767210
  H       -3.5935250     1.6324230    -0.8070360
  H       -3.6247440     1.5093170     0.9575960
  H       -5.0347610     1.0001480     0.0102760
  H        3.6246290     1.5100350    -0.9560070
  H        3.5933130     1.6313650     0.8087280
  H        5.0346230     0.9999160    -0.0090680
units angstrom
no_reorient  #important for SAPT in psi4, default
symmetry c1  #important for SAPT in psi4, default
}

set PROPERTIES_ORIGIN ["COM"]
properties('MP2/aug-cc-pvtz', properties = ['dipole'])
--------------------------------------------------------------------------

    Molecular point group: c1
  Charge       = 0
  Multiplicity = 1
  Basis Set: AUG-CC-PVTZ
    Blend: AUG-CC-PVTZ
  Basis Set: (AUG-CC-PVTZ AUX)
    Blend: AUG-CC-PVTZ-JKFIT

    Orbital Energies [Eh]
    ---------------------

    Doubly Occupied:

       1A    -11.258020     2A    -11.256792     3A    -11.245131
       4A    -11.244814     5A    -11.240864     6A    -11.239637
       7A    -11.229298     8A    -11.226911     9A     -1.094173
      10A     -1.079724    11A     -1.032141    12A     -0.973230
      13A     -0.891025    14A     -0.869304    15A     -0.786082
      16A     -0.656026    17A     -0.645879    18A     -0.632373
      19A     -0.629712    20A     -0.562340    21A     -0.554278
      22A     -0.530869    23A     -0.525138    24A     -0.516145
      25A     -0.503887    26A     -0.451647    27A     -0.449815
      28A     -0.328278    29A     -0.327138

  @DF-RHF Final Energy:  -308.75405976373992

   => Energetics <=

    Nuclear Repulsion Energy =            288.5281098193796083
    One-Electron Energy =                -986.6029955988317397
    Two-Electron Energy =                 389.3208260157122709
    Total Energy =                       -308.7540597637399173
  Basis Set: (AUG-CC-PVTZ AUX)
    Blend: AUG-CC-PVTZ-RI
    Molecular point group: c1

    Geometry (in Angstrom), charge = 0, multiplicity = 1:

       Center              X                  Y                   Z               Mass
    ------------   -----------------  -----------------  -----------------  -----------------
         C           -3.376754735252    -0.393154401238    -0.065555478452    12.000000000000
         C            3.367443264748    -0.393532401238     0.049118521548    12.000000000000
         C           -3.907558135252     1.033637298762     0.092974721548    12.000000000000
         C            3.936750264748     1.024552598762    -0.038262478452    12.000000000000
         C           -1.915672735252    -0.410326401238    -0.040998478452    12.000000000000
         C            1.906443264748    -0.410886401238     0.024479521548    12.000000000000
         C           -0.688361735252    -0.413307401238    -0.020122478452    12.000000000000
         C            0.679132264748    -0.413427401238     0.003616521548    12.000000000000
         H           -3.756334735252    -0.998543401238     0.765808521548     1.007825032230
         H           -3.695742535252    -0.923186101238    -0.970577978452     1.007825032230
         H            3.747221264748    -0.998097401238    -0.782791478452     1.007825032230
         H            3.716285264748    -0.877760401238     0.968697521548     1.007825032230
         H           -3.598173735252     1.631863598762    -0.815059478452     1.007825032230
         H           -3.629392735252     1.508757598762     0.949572521548     1.007825032230
         H           -5.039409735252     0.999588598762     0.002252521548     1.007825032230
         H            3.619980264748     1.509475598762    -0.964030478452     1.007825032230
         H            3.588664264748     1.630805598762     0.800704521548     1.007825032230
         H            5.029974264748     0.999356598762    -0.017091478452     1.007825032230

  Basis Set: AUG-CC-PVTZ
    Blend: AUG-CC-PVTZ
  Basis Set: (AUG-CC-PVTZ AUX)
    Blend: AUG-CC-PVTZ-JKFIT
	 Reference Energy          =    -308.7540597637399173 [Eh]
	 Singles Energy            =      -0.0000000000000000 [Eh]
	 Same-Spin Energy          =      -0.3334199252972549 [Eh]
	 Opposite-Spin Energy      =      -1.1360608813444510 [Eh]
	 Correlation Energy        =      -1.4694808066417060 [Eh]
	 Total Energy              =    -310.2235405703816014 [Eh]

	 ================> DF-SCS-MP2 Energies <==================
	-----------------------------------------------------------
	 SCS Same-Spin Scale       =       0.3333333333333333 [-]
	 SCS Opposite-Spin Scale   =       1.2000000000000000 [-]
	 SCS Same-Spin Energy      =      -0.1111399750990850 [Eh]
	 SCS Opposite-Spin Energy  =      -1.3632730576133412 [Eh]
	 SCS Correlation Energy    =      -1.4744130327124261 [Eh]
	 SCS Total Energy          =    -310.2284727964523654 [Eh]
	-----------------------------------------------------------

  Dipole Moment: [D]
     X:    -0.0285      Y:     0.2100      Z:     0.0255     Total:     0.2134

*** Psi4 exiting successfully. Buy a developer a beer!
