                               Psi4 1.3.2 release

  ==> Input File <==

--------------------------------------------------------------------------
#psi4
#
memory 32 gb

molecule  {
0 1
  C       -3.3721060    -0.3925950    -0.0575320
  C        3.3720920    -0.3929730     0.0571420
  C       -3.9540285     1.0215066     0.0080530
  C        3.9413990     1.0251120    -0.0302390
  C       -1.9110240    -0.4097670    -0.0329750
  C        1.9110920    -0.4103270     0.0325030
  C       -0.6837130    -0.4127480    -0.0120990
  C        0.6837810    -0.4128680     0.0116400
  H       -3.7516860    -0.9979840     0.7738320
  H       -3.7305336    -0.8600316    -0.9820779
  H        3.7518700    -0.9975380    -0.7747680
  H        3.7209340    -0.8772010     0.9767210
  H       -3.5935250     1.6324230    -0.8070360
  H       -3.6247440     1.5093170     0.9575960
  H       -5.0347610     1.0001480     0.0102760
  H        3.6246290     1.5100350    -0.9560070
  H        3.5933130     1.6313650     0.8087280
  H        5.0346230     0.9999160    -0.0090680
units angstrom
no_reorient  #important for SAPT in psi4, default
symmetry c1  #important for SAPT in psi4, default
}

set PROPERTIES_ORIGIN ["COM"]
properties('MP2/aug-cc-pvtz', properties = ['dipole'])
--------------------------------------------------------------------------

    Molecular point group: c1
  Charge       = 0
  Multiplicity = 1
  Basis Set: AUG-CC-PVTZ
    Blend: AUG-CC-PVTZ
  Basis Set: (AUG-CC-PVTZ AUX)
    Blend: AUG-CC-PVTZ-JKFIT

    Orbital Energies [Eh]
    ---------------------

    Doubly Occupied:

       1A    -11.257226     2A    -11.257048     3A    -11.246089
       4A    -11.245899     5A    -11.241818     6A    -11.240714
       7A    -11.227249     8A    -11.226983     9A     -1.094081
      10A     -1.079326    11A     -1.032658    12A     -0.974102
      13A     -0.889919    14A     -0.867859    15A     -0.786374
      16A     -0.657160    17A     -0.647098    18A     -0.630635
      19A     -0.629136    20A     -0.557448    21A     -0.554515
      22A     -0.528736    23A     -0.525677    24A     -0.517051
      25A     -0.509564    26A     -0.451922    27A     -0.450875
      28A     -0.329070    29A     -0.328154

  @DF-RHF Final Energy:  -308.76159358695043

   => Energetics <=

    Nuclear Repulsion Energy =            288.2770458748860278
    One-Electron Energy =                -986.1085068566372911
    Two-Electron Energy =                 389.0698673948007809
    Total Energy =                       -308.7615935869504256
  Basis Set: (AUG-CC-PVTZ AUX)
    Blend: AUG-CC-PVTZ-RI
    Molecular point group: c1

    Geometry (in Angstrom), charge = 0, multiplicity = 1:

       Center              X                  Y                   Z               Mass
    ------------   -----------------  -----------------  -----------------  -----------------
         C           -3.370597227791    -0.392313547519    -0.054855654805    12.000000000000
         C            3.373600772209    -0.392691547519     0.059818345195    12.000000000000
         C           -3.952519727791     1.021788052481     0.010729345195    12.000000000000
         C            3.942907772209     1.025393452481    -0.027562654805    12.000000000000
         C           -1.909515227791    -0.409485547519    -0.030298654805    12.000000000000
         C            1.912600772209    -0.410045547519     0.035179345195    12.000000000000
         C           -0.682204227791    -0.412466547519    -0.009422654805    12.000000000000
         C            0.685289772209    -0.412586547519     0.014316345195    12.000000000000
         H           -3.750177227791    -0.997702547519     0.776508345195     1.007825032230
         H           -3.729024827791    -0.859750147519    -0.979401554805     1.007825032230
         H            3.753378772209    -0.997256547519    -0.772091654805     1.007825032230
         H            3.722442772209    -0.876919547519     0.979397345195     1.007825032230
         H           -3.592016227791     1.632704452481    -0.804359654805     1.007825032230
         H           -3.623235227791     1.509598452481     0.960272345195     1.007825032230
         H           -5.033252227791     1.000429452481     0.012952345195     1.007825032230
         H            3.626137772209     1.510316452481    -0.953330654805     1.007825032230
         H            3.594821772209     1.631646452481     0.811404345195     1.007825032230
         H            5.036131772209     1.000197452481    -0.006391654805     1.007825032230

  Basis Set: AUG-CC-PVTZ
    Blend: AUG-CC-PVTZ
  Basis Set: (AUG-CC-PVTZ AUX)
    Blend: AUG-CC-PVTZ-JKFIT
	 Reference Energy          =    -308.7615935869504256 [Eh]
	 Singles Energy            =      -0.0000000000000000 [Eh]
	 Same-Spin Energy          =      -0.3332988272536211 [Eh]
	 Opposite-Spin Energy      =      -1.1358014491672752 [Eh]
	 Correlation Energy        =      -1.4691002764208965 [Eh]
	 Total Energy              =    -310.2306938633713003 [Eh]

	 ================> DF-SCS-MP2 Energies <==================
	-----------------------------------------------------------
	 SCS Same-Spin Scale       =       0.3333333333333333 [-]
	 SCS Opposite-Spin Scale   =       1.2000000000000000 [-]
	 SCS Same-Spin Energy      =      -0.1110996090845404 [Eh]
	 SCS Opposite-Spin Energy  =      -1.3629617390007303 [Eh]
	 SCS Correlation Energy    =      -1.4740613480852707 [Eh]
	 SCS Total Energy          =    -310.2356549350357113 [Eh]
	-----------------------------------------------------------

  Dipole Moment: [D]
     X:     0.0117      Y:     0.2260      Z:    -0.0113     Total:     0.2266

*** Psi4 exiting successfully. Buy a developer a beer!
