                               Psi4 1.4a3.dev225

  ==> Input File <==

--------------------------------------------------------------------------
#psi4
#
memory 32 gb

molecule  {
0 1
  C       -3.3104600     0.6645600    -0.0001290
  C        3.3104610    -0.6645590    -0.0001300
  C       -4.1189600    -0.6381980     0.0003020
  C        4.1189570     0.6382020     0.0003020
  C       -1.8678680     0.4225120    -0.0001420
  C        1.8678690    -0.4225150    -0.0001410
  C       -0.6717070     0.1376470    -0.0001380
  C        0.6717080    -0.1376500    -0.0001380
  H       -3.5746830     1.2664600    -0.8780670
  H       -3.5697646     1.2559916     0.8614812
  H        3.5746860    -1.2664580    -0.8780680
  H        3.5745850    -1.2669760     0.8774840
  H       -3.8858290    -1.2341430     0.8855450
  H       -3.8859300    -1.2346660    -0.8846160
  H       -5.1908980    -0.4200070     0.0002980
  H        3.8859240     1.2346690    -0.8846160
  H        3.8858250     1.2341450     0.8855460
  H        5.1908960     0.4200140     0.0002970
units angstrom
no_reorient  #important for SAPT in psi4, default
symmetry c1  #important for SAPT in psi4, default
}

set PROPERTIES_ORIGIN ["COM"]
properties('MP2/aug-cc-pvtz', properties = ['dipole'])
--------------------------------------------------------------------------

    Molecular point group: c1
  Charge       = 0
  Multiplicity = 1
  Basis Set: AUG-CC-PVTZ
    Blend: AUG-CC-PVTZ
  Basis Set: (AUG-CC-PVTZ AUX)
    Blend: AUG-CC-PVTZ-JKFIT

    Orbital Energies [Eh]
    ---------------------

    Doubly Occupied:

       1A    -11.257642     2A    -11.255324     3A    -11.246600
       4A    -11.246418     5A    -11.242581     6A    -11.241540
       7A    -11.227436     8A    -11.227315     9A     -1.093589
      10A     -1.079124    11A     -1.031563    12A     -0.972858
      13A     -0.889868    14A     -0.868707    15A     -0.785941
      16A     -0.656646    17A     -0.645465    18A     -0.631485
      19A     -0.629314    20A     -0.556926    21A     -0.551928
      22A     -0.526731    23A     -0.524992    24A     -0.518609
      25A     -0.514554    26A     -0.450911    27A     -0.450531
      28A     -0.328669    29A     -0.328003

  @DF-RHF Final Energy:  -308.76164385944742

   => Energetics <=

    Nuclear Repulsion Energy =            288.1042729543281098
    One-Electron Energy =                -985.7692956579791144
    Two-Electron Energy =                 388.9033788442035302
    Total Energy =                       -308.7616438594474175
  Basis Set: (AUG-CC-PVTZ AUX)
    Blend: AUG-CC-PVTZ-RI
    Molecular point group: c1

    Geometry (in Angstrom), charge = 0, multiplicity = 1:

       Center              X                  Y                   Z               Mass
    ------------   -----------------  -----------------  -----------------  -----------------
         C           -3.310505712004     0.664664340369     0.000035019972    12.000000000000
         C            3.310415287996    -0.664454659631     0.000034019972    12.000000000000
         C           -4.119005712004    -0.638093659631     0.000466019972    12.000000000000
         C            4.118911287996     0.638306340369     0.000466019972    12.000000000000
         C           -1.867913712004     0.422616340369     0.000022019972    12.000000000000
         C            1.867823287996    -0.422410659631     0.000023019972    12.000000000000
         C           -0.671752712004     0.137751340369     0.000026019972    12.000000000000
         C            0.671662287996    -0.137545659631     0.000026019972    12.000000000000
         H           -3.574728712004     1.266564340369    -0.877902980028     1.007825032230
         H           -3.569810312004     1.256095940369     0.861645219972     1.007825032230
         H            3.574640287996    -1.266353659631    -0.877903980028     1.007825032230
         H            3.574539287996    -1.266871659631     0.877648019972     1.007825032230
         H           -3.885874712004    -1.234038659631     0.885709019972     1.007825032230
         H           -3.885975712004    -1.234561659631    -0.884451980028     1.007825032230
         H           -5.190943712004    -0.419902659631     0.000462019972     1.007825032230
         H            3.885878287996     1.234773340369    -0.884451980028     1.007825032230
         H            3.885779287996     1.234249340369     0.885710019972     1.007825032230
         H            5.190850287996     0.420118340369     0.000461019972     1.007825032230

  Basis Set: AUG-CC-PVTZ
    Blend: AUG-CC-PVTZ
  Basis Set: (AUG-CC-PVTZ AUX)
    Blend: AUG-CC-PVTZ-JKFIT
	 Reference Energy          =    -308.7616438594474175 [Eh]
	 Singles Energy            =      -0.0000000000000000 [Eh]
	 Same-Spin Energy          =      -0.3333871631529713 [Eh]
	 Opposite-Spin Energy      =      -1.1361569319973306 [Eh]
	 Correlation Energy        =      -1.4695440951503018 [Eh]
	 Total Energy              =    -310.2311879545977149 [Eh]

	 ================> DF-SCS-MP2 Energies <==================
	-----------------------------------------------------------
	 SCS Same-Spin Scale       =       0.3333333333333333 [-]
	 SCS Opposite-Spin Scale   =       1.2000000000000000 [-]
	 SCS Same-Spin Energy      =      -0.1111290543843238 [Eh]
	 SCS Opposite-Spin Energy  =      -1.3633883183967968 [Eh]
	 SCS Correlation Energy    =      -1.4745173727811205 [Eh]
	 SCS Total Energy          =    -310.2361612322285396 [Eh]
	-----------------------------------------------------------

  Dipole Moment: [D]
     X:    -0.0061      Y:     0.0066      Z:     0.0043     Total:     0.0099

*** Psi4 exiting successfully. Buy a developer a beer!
