                               Psi4 1.3.2 release

  ==> Input File <==

--------------------------------------------------------------------------
#psi4
#
memory 32 gb

molecule  {
0 1
  C       -3.3721060    -0.3925950    -0.0575320
  C        3.3720920    -0.3929730     0.0571420
  C       -3.9415050     1.0253280     0.0313370
  C        3.9413990     1.0251120    -0.0302390
  C       -1.9108395    -0.3885801    -0.0298048
  C        1.9110920    -0.4103270     0.0325030
  C       -0.6837130    -0.4127480    -0.0120990
  C        0.6835136    -0.3892605     0.0151641
  H       -3.7516860    -0.9979840     0.7738320
  H       -3.7208300    -0.8759060    -0.9776160
  H        3.7518700    -0.9975380    -0.7747680
  H        3.7209340    -0.8772010     0.9767210
  H       -3.5935250     1.6324230    -0.8070360
  H       -3.6247440     1.5093170     0.9575960
  H       -5.0347610     1.0001480     0.0102760
  H        3.6246290     1.5100350    -0.9560070
  H        3.5933130     1.6313650     0.8087280
  H        5.0346230     0.9999160    -0.0090680
units angstrom
no_reorient  #important for SAPT in psi4, default
symmetry c1  #important for SAPT in psi4, default
}

set PROPERTIES_ORIGIN ["COM"]
properties('MP2/aug-cc-pvtz', properties = ['dipole'])
--------------------------------------------------------------------------

    Molecular point group: c1
  Charge       = 0
  Multiplicity = 1
  Basis Set: AUG-CC-PVTZ
    Blend: AUG-CC-PVTZ
  Basis Set: (AUG-CC-PVTZ AUX)
    Blend: AUG-CC-PVTZ-JKFIT

    Orbital Energies [Eh]
    ---------------------

    Doubly Occupied:

       1A    -11.257148     2A    -11.257118     3A    -11.245887
       4A    -11.245667     5A    -11.241597     6A    -11.240513
       7A    -11.227144     8A    -11.226848     9A     -1.094133
      10A     -1.079470    11A     -1.032488    12A     -0.973658
      13A     -0.889586    14A     -0.867749    15A     -0.786252
      16A     -0.657241    17A     -0.646925    18A     -0.630791
      19A     -0.629501    20A     -0.555866    21A     -0.552836
      22A     -0.525901    23A     -0.525455    24A     -0.518296
      25A     -0.514087    26A     -0.451656    27A     -0.450997
      28A     -0.328733    29A     -0.328021

  @DF-RHF Final Energy:  -308.76219475984652

   => Energetics <=

    Nuclear Repulsion Energy =            288.4055172905369773
    One-Electron Energy =                -986.3722972325165301
    Two-Electron Energy =                 389.2045851821330302
    Total Energy =                       -308.7621947598465226
  Basis Set: (AUG-CC-PVTZ AUX)
    Blend: AUG-CC-PVTZ-RI
    Molecular point group: c1

    Geometry (in Angstrom), charge = 0, multiplicity = 1:

       Center              X                  Y                   Z               Mass
    ------------   -----------------  -----------------  -----------------  -----------------
         C           -3.372096750366    -0.397662344096    -0.058289312632    12.000000000000
         C            3.372101249634    -0.398040344096     0.056384687368    12.000000000000
         C           -3.941495750366     1.020260655904     0.030579687368    12.000000000000
         C            3.941408249634     1.020044655904    -0.030996312632    12.000000000000
         C           -1.910830250366    -0.393647444096    -0.030562112632    12.000000000000
         C            1.911101249634    -0.415394344096     0.031745687368    12.000000000000
         C           -0.683703750366    -0.417815344096    -0.012856312632    12.000000000000
         C            0.683522849634    -0.394327844096     0.014406787368    12.000000000000
         H           -3.751676750366    -1.003051344096     0.773074687368     1.007825032230
         H           -3.720820750366    -0.880973344096    -0.978373312632     1.007825032230
         H            3.751879249634    -1.002605344096    -0.775525312632     1.007825032230
         H            3.720943249634    -0.882268344096     0.975963687368     1.007825032230
         H           -3.593515750366     1.627355655904    -0.807793312632     1.007825032230
         H           -3.624734750366     1.504249655904     0.956838687368     1.007825032230
         H           -5.034751750366     0.995080655904     0.009518687368     1.007825032230
         H            3.624638249634     1.504967655904    -0.956764312632     1.007825032230
         H            3.593322249634     1.626297655904     0.807970687368     1.007825032230
         H            5.034632249634     0.994848655904    -0.009825312632     1.007825032230

  Basis Set: AUG-CC-PVTZ
    Blend: AUG-CC-PVTZ
  Basis Set: (AUG-CC-PVTZ AUX)
    Blend: AUG-CC-PVTZ-JKFIT
	 Reference Energy          =    -308.7621947598465226 [Eh]
	 Singles Energy            =      -0.0000000000000000 [Eh]
	 Same-Spin Energy          =      -0.3333281295481885 [Eh]
	 Opposite-Spin Energy      =      -1.1358035016783115 [Eh]
	 Correlation Energy        =      -1.4691316312264999 [Eh]
	 Total Energy              =    -310.2313263910730257 [Eh]

	 ================> DF-SCS-MP2 Energies <==================
	-----------------------------------------------------------
	 SCS Same-Spin Scale       =       0.3333333333333333 [-]
	 SCS Opposite-Spin Scale   =       1.2000000000000000 [-]
	 SCS Same-Spin Energy      =      -0.1111093765160628 [Eh]
	 SCS Opposite-Spin Energy  =      -1.3629642020139736 [Eh]
	 SCS Correlation Energy    =      -1.4740735785300365 [Eh]
	 SCS Total Energy          =    -310.2362683383765329 [Eh]
	-----------------------------------------------------------

  Dipole Moment: [D]
     X:     0.0077      Y:     0.2037      Z:    -0.0028     Total:     0.2039

*** Psi4 exiting successfully. Buy a developer a beer!
