                               Psi4 1.3.2 release

  ==> Input File <==

--------------------------------------------------------------------------
#psi4
#
memory 32 gb

molecule  {
0 1
  C       -3.3721060    -0.3925950    -0.0575320
  C        3.3720920    -0.3929730     0.0571420
  C       -3.9415050     1.0253280     0.0313370
  C        3.9413990     1.0251120    -0.0302390
  C       -1.9110240    -0.4097670    -0.0329750
  C        1.8111133    -0.4115146     0.0308169
  C       -0.6837130    -0.4127480    -0.0120990
  C        0.6837810    -0.4128680     0.0116400
  H       -3.7516860    -0.9979840     0.7738320
  H       -3.7208300    -0.8759060    -0.9776160
  H        3.7518700    -0.9975380    -0.7747680
  H        3.7209340    -0.8772010     0.9767210
  H       -3.5935250     1.6324230    -0.8070360
  H       -3.6247440     1.5093170     0.9575960
  H       -5.0347610     1.0001480     0.0102760
  H        3.6246290     1.5100350    -0.9560070
  H        3.5933130     1.6313650     0.8087280
  H        5.0346230     0.9999160    -0.0090680
units angstrom
no_reorient  #important for SAPT in psi4, default
symmetry c1  #important for SAPT in psi4, default
}

set PROPERTIES_ORIGIN ["COM"]
properties('MP2/aug-cc-pvtz', properties = ['dipole'])
--------------------------------------------------------------------------

    Molecular point group: c1
  Charge       = 0
  Multiplicity = 1
  Basis Set: AUG-CC-PVTZ
    Blend: AUG-CC-PVTZ
  Basis Set: (AUG-CC-PVTZ AUX)
    Blend: AUG-CC-PVTZ-JKFIT

    Orbital Energies [Eh]
    ---------------------

    Doubly Occupied:

       1A    -11.263489     2A    -11.256090     3A    -11.243183
       4A    -11.237716     5A    -11.226526     6A    -11.226090
       7A    -11.219755     8A    -11.211484     9A     -1.094925
      10A     -1.074399    11A     -1.033566    12A     -0.984627
      13A     -0.883208    14A     -0.862144    15A     -0.787061
      16A     -0.651217    17A     -0.634196    18A     -0.629465
      19A     -0.624684    20A     -0.554465    21A     -0.546756
      22A     -0.524831    23A     -0.520417    24A     -0.517715
      25A     -0.511914    26A     -0.463802    27A     -0.462463
      28A     -0.341523    29A     -0.340724

  @DF-RHF Final Energy:  -308.75268130290510

   => Energetics <=

    Nuclear Repulsion Energy =            289.0237707246039918
    One-Electron Energy =                -987.6960253387420607
    Two-Electron Energy =                 389.9195733112329663
    Total Energy =                       -308.7526813029051027
  Basis Set: (AUG-CC-PVTZ AUX)
    Blend: AUG-CC-PVTZ-RI
    Molecular point group: c1

    Geometry (in Angstrom), charge = 0, multiplicity = 1:

       Center              X                  Y                   Z               Mass
    ------------   -----------------  -----------------  -----------------  -----------------
         C           -3.360796134110    -0.392460674590    -0.057341287945    12.000000000000
         C            3.383401865890    -0.392838674590     0.057332712055    12.000000000000
         C           -3.930195134110     1.025462325410     0.031527712055    12.000000000000
         C            3.952708865890     1.025246325410    -0.030048287945    12.000000000000
         C           -1.899714134110    -0.409632674590    -0.032784287945    12.000000000000
         C            1.822423165890    -0.411380274590     0.031007612055    12.000000000000
         C           -0.672403134110    -0.412613674590    -0.011908287945    12.000000000000
         C            0.695090865890    -0.412733674590     0.011830712055    12.000000000000
         H           -3.740376134110    -0.997849674590     0.774022712055     1.007825032230
         H           -3.709520134110    -0.875771674590    -0.977425287945     1.007825032230
         H            3.763179865890    -0.997403674590    -0.774577287945     1.007825032230
         H            3.732243865890    -0.877066674590     0.976911712055     1.007825032230
         H           -3.582215134110     1.632557325410    -0.806845287945     1.007825032230
         H           -3.613434134110     1.509451325410     0.957786712055     1.007825032230
         H           -5.023451134110     1.000282325410     0.010466712055     1.007825032230
         H            3.635938865890     1.510169325410    -0.955816287945     1.007825032230
         H            3.604622865890     1.631499325410     0.808918712055     1.007825032230
         H            5.045932865890     1.000050325410    -0.008877287945     1.007825032230

  Basis Set: AUG-CC-PVTZ
    Blend: AUG-CC-PVTZ
  Basis Set: (AUG-CC-PVTZ AUX)
    Blend: AUG-CC-PVTZ-JKFIT
	 Reference Energy          =    -308.7526813029051027 [Eh]
	 Singles Energy            =      -0.0000000000000000 [Eh]
	 Same-Spin Energy          =      -0.3276999022261608 [Eh]
	 Opposite-Spin Energy      =      -1.1271972221054378 [Eh]
	 Correlation Energy        =      -1.4548971243315987 [Eh]
	 Total Energy              =    -310.2075784272366832 [Eh]

	 ================> DF-SCS-MP2 Energies <==================
	-----------------------------------------------------------
	 SCS Same-Spin Scale       =       0.3333333333333333 [-]
	 SCS Opposite-Spin Scale   =       1.2000000000000000 [-]
	 SCS Same-Spin Energy      =      -0.1092333007420536 [Eh]
	 SCS Opposite-Spin Energy  =      -1.3526366665265253 [Eh]
	 SCS Correlation Energy    =      -1.4618699672685789 [Eh]
	 SCS Total Energy          =    -310.2145512701736720 [Eh]
	-----------------------------------------------------------

  Dipole Moment: [D]
     X:     0.0120      Y:     0.2316      Z:    -0.0004     Total:     0.2319

*** Psi4 exiting successfully. Buy a developer a beer!
