                               Psi4 1.3.2 release

  ==> Input File <==

--------------------------------------------------------------------------
#psi4
#
memory 32 gb

molecule  {
0 1
  C       -3.3721060    -0.3925950    -0.0575320
  C        3.3720920    -0.3929730     0.0571420
  C       -3.9415050     1.0253280     0.0313370
  C        3.9413990     1.0251120    -0.0302390
  C       -1.9123152    -0.4457354    -0.1004902
  C        1.9110920    -0.4103270     0.0325030
  C       -0.6837130    -0.4127480    -0.0120990
  C        0.6837810    -0.4128680     0.0116400
  H       -3.7516860    -0.9979840     0.7738320
  H       -3.6659694    -0.8847084    -0.9919950
  H        3.7518700    -0.9975380    -0.7747680
  H        3.7209340    -0.8772010     0.9767210
  H       -3.5935250     1.6324230    -0.8070360
  H       -3.6247440     1.5093170     0.9575960
  H       -5.0347610     1.0001480     0.0102760
  H        3.6246290     1.5100350    -0.9560070
  H        3.5933130     1.6313650     0.8087280
  H        5.0346230     0.9999160    -0.0090680
units angstrom
no_reorient  #important for SAPT in psi4, default
symmetry c1  #important for SAPT in psi4, default
}

set PROPERTIES_ORIGIN ["COM"]
properties('MP2/aug-cc-pvtz', properties = ['dipole'])
--------------------------------------------------------------------------

    Molecular point group: c1
  Charge       = 0
  Multiplicity = 1
  Basis Set: AUG-CC-PVTZ
    Blend: AUG-CC-PVTZ
  Basis Set: (AUG-CC-PVTZ AUX)
    Blend: AUG-CC-PVTZ-JKFIT

    Orbital Energies [Eh]
    ---------------------

    Doubly Occupied:

       1A    -11.257227     2A    -11.257015     3A    -11.246476
       4A    -11.245550     5A    -11.241987     6A    -11.240602
       7A    -11.228255     8A    -11.227121     9A     -1.093843
      10A     -1.079303    11A     -1.031981    12A     -0.973062
      13A     -0.891410    14A     -0.868825    15A     -0.785442
      16A     -0.654740    17A     -0.644713    18A     -0.630544
      19A     -0.629148    20A     -0.558386    21A     -0.554393
      22A     -0.525540    23A     -0.524554    24A     -0.519332
      25A     -0.514805    26A     -0.451097    27A     -0.450075
      28A     -0.328194    29A     -0.326682

  @DF-RHF Final Energy:  -308.75986606428853

   => Energetics <=

    Nuclear Repulsion Energy =            288.2152569797110573
    One-Electron Energy =                -985.9896417683820573
    Two-Electron Energy =                 389.0145187243824694
    Total Energy =                       -308.7598660642885307
  Basis Set: (AUG-CC-PVTZ AUX)
    Blend: AUG-CC-PVTZ-RI
    Molecular point group: c1

    Geometry (in Angstrom), charge = 0, multiplicity = 1:

       Center              X                  Y                   Z               Mass
    ------------   -----------------  -----------------  -----------------  -----------------
         C           -3.372481280520    -0.388442500480    -0.049757822780    12.000000000000
         C            3.371716719480    -0.388820500480     0.064916177220    12.000000000000
         C           -3.941880280520     1.029480499520     0.039111177220    12.000000000000
         C            3.941023719480     1.029264499520    -0.022464822780    12.000000000000
         C           -1.912690480520    -0.441582900480    -0.092716022780    12.000000000000
         C            1.910716719480    -0.406174500480     0.040277177220    12.000000000000
         C           -0.684088280520    -0.408595500480    -0.004324822780    12.000000000000
         C            0.683405719480    -0.408715500480     0.019414177220    12.000000000000
         H           -3.752061280520    -0.993831500480     0.781606177220     1.007825032230
         H           -3.666344680520    -0.880555900480    -0.984220822780     1.007825032230
         H            3.751494719480    -0.993385500480    -0.766993822780     1.007825032230
         H            3.720558719480    -0.873048500480     0.984495177220     1.007825032230
         H           -3.593900280520     1.636575499520    -0.799261822780     1.007825032230
         H           -3.625119280520     1.513469499520     0.965370177220     1.007825032230
         H           -5.035136280520     1.004300499520     0.018050177220     1.007825032230
         H            3.624253719480     1.514187499520    -0.948232822780     1.007825032230
         H            3.592937719480     1.635517499520     0.816502177220     1.007825032230
         H            5.034247719480     1.004068499520    -0.001293822780     1.007825032230

  Basis Set: AUG-CC-PVTZ
    Blend: AUG-CC-PVTZ
  Basis Set: (AUG-CC-PVTZ AUX)
    Blend: AUG-CC-PVTZ-JKFIT
	 Reference Energy          =    -308.7598660642885307 [Eh]
	 Singles Energy            =      -0.0000000000000000 [Eh]
	 Same-Spin Energy          =      -0.3335708425186360 [Eh]
	 Opposite-Spin Energy      =      -1.1363645492402714 [Eh]
	 Correlation Energy        =      -1.4699353917589075 [Eh]
	 Total Energy              =    -310.2298014560474257 [Eh]

	 ================> DF-SCS-MP2 Energies <==================
	-----------------------------------------------------------
	 SCS Same-Spin Scale       =       0.3333333333333333 [-]
	 SCS Opposite-Spin Scale   =       1.2000000000000000 [-]
	 SCS Same-Spin Energy      =      -0.1111902808395453 [Eh]
	 SCS Opposite-Spin Energy  =      -1.3636374590883256 [Eh]
	 SCS Correlation Energy    =      -1.4748277399278709 [Eh]
	 SCS Total Energy          =    -310.2346938042164197 [Eh]
	-----------------------------------------------------------

  Dipole Moment: [D]
     X:    -0.0075      Y:     0.2609      Z:     0.0409     Total:     0.2642

*** Psi4 exiting successfully. Buy a developer a beer!
