                               Psi4 1.3.2 release

  ==> Input File <==

--------------------------------------------------------------------------
#psi4
#
memory 32 gb

molecule  {
0 1
  C       -3.3692331    -0.3161586    -0.0558259
  C        3.3720920    -0.3929730     0.0571420
  C       -3.9415050     1.0253280     0.0313370
  C        3.9413990     1.0251120    -0.0302390
  C       -1.9110240    -0.4097670    -0.0329750
  C        1.9110920    -0.4103270     0.0325030
  C       -0.6852627    -0.3485172    -0.0107330
  C        0.6837810    -0.4128680     0.0116400
  H       -3.7516860    -0.9979840     0.7738320
  H       -3.7208300    -0.8759060    -0.9776160
  H        3.7518700    -0.9975380    -0.7747680
  H        3.7209340    -0.8772010     0.9767210
  H       -3.5935250     1.6324230    -0.8070360
  H       -3.6247440     1.5093170     0.9575960
  H       -5.0347610     1.0001480     0.0102760
  H        3.6246290     1.5100350    -0.9560070
  H        3.5933130     1.6313650     0.8087280
  H        5.0346230     0.9999160    -0.0090680
units angstrom
no_reorient  #important for SAPT in psi4, default
symmetry c1  #important for SAPT in psi4, default
}

set PROPERTIES_ORIGIN ["COM"]
properties('MP2/aug-cc-pvtz', properties = ['dipole'])
--------------------------------------------------------------------------

    Molecular point group: c1
  Charge       = 0
  Multiplicity = 1
  Basis Set: AUG-CC-PVTZ
    Blend: AUG-CC-PVTZ
  Basis Set: (AUG-CC-PVTZ AUX)
    Blend: AUG-CC-PVTZ-JKFIT

    Orbital Energies [Eh]
    ---------------------

    Doubly Occupied:

       1A    -11.260995     2A    -11.257255     3A    -11.246259
       4A    -11.245999     5A    -11.242157     6A    -11.241053
       7A    -11.227463     8A    -11.223832     9A     -1.097412
      10A     -1.083157    11A     -1.035757    12A     -0.976572
      13A     -0.889546    14A     -0.865811    15A     -0.784060
      16A     -0.656255    17A     -0.646521    18A     -0.630422
      19A     -0.626076    20A     -0.576135    21A     -0.554941
      22A     -0.525875    23A     -0.519944    24A     -0.517154
      25A     -0.504286    26A     -0.453029    27A     -0.447688
      28A     -0.330817    29A     -0.326812

  @DF-RHF Final Energy:  -308.75520533744879

   => Energetics <=

    Nuclear Repulsion Energy =            288.9063968345926128
    One-Electron Energy =                -987.3366347780035994
    Two-Electron Energy =                 389.6750326059621443
    Total Energy =                       -308.7552053374487855
  Basis Set: (AUG-CC-PVTZ AUX)
    Blend: AUG-CC-PVTZ-RI
    Molecular point group: c1

    Geometry (in Angstrom), charge = 0, multiplicity = 1:

       Center              X                  Y                   Z               Mass
    ------------   -----------------  -----------------  -----------------  -----------------
         C           -3.369382914075    -0.332071462348    -0.056173454742    12.000000000000
         C            3.371942185925    -0.408885862348     0.056794445258    12.000000000000
         C           -3.941654814075     1.009415137652     0.030989445258    12.000000000000
         C            3.941249185925     1.009199137652    -0.030586554742    12.000000000000
         C           -1.911173814075    -0.425679862348    -0.033322554742    12.000000000000
         C            1.910942185925    -0.426239862348     0.032155445258    12.000000000000
         C           -0.685412514075    -0.364430062348    -0.011080554742    12.000000000000
         C            0.683631185925    -0.428780862348     0.011292445258    12.000000000000
         H           -3.751835814075    -1.013896862348     0.773484445258     1.007825032230
         H           -3.720979814075    -0.891818862348    -0.977963554742     1.007825032230
         H            3.751720185925    -1.013450862348    -0.775115554742     1.007825032230
         H            3.720784185925    -0.893113862348     0.976373445258     1.007825032230
         H           -3.593674814075     1.616510137652    -0.807383554742     1.007825032230
         H           -3.624893814075     1.493404137652     0.957248445258     1.007825032230
         H           -5.034910814075     0.984235137652     0.009928445258     1.007825032230
         H            3.624479185925     1.494122137652    -0.956354554742     1.007825032230
         H            3.593163185925     1.615452137652     0.808380445258     1.007825032230
         H            5.034473185925     0.984003137652    -0.009415554742     1.007825032230

  Basis Set: AUG-CC-PVTZ
    Blend: AUG-CC-PVTZ
  Basis Set: (AUG-CC-PVTZ AUX)
    Blend: AUG-CC-PVTZ-JKFIT
	 Reference Energy          =    -308.7552053374487855 [Eh]
	 Singles Energy            =      -0.0000000000000000 [Eh]
	 Same-Spin Energy          =      -0.3338334708489483 [Eh]
	 Opposite-Spin Energy      =      -1.1366002411349694 [Eh]
	 Correlation Energy        =      -1.4704337119839177 [Eh]
	 Total Energy              =    -310.2256390494326865 [Eh]

	 ================> DF-SCS-MP2 Energies <==================
	-----------------------------------------------------------
	 SCS Same-Spin Scale       =       0.3333333333333333 [-]
	 SCS Opposite-Spin Scale   =       1.2000000000000000 [-]
	 SCS Same-Spin Energy      =      -0.1112778236163161 [Eh]
	 SCS Opposite-Spin Energy  =      -1.3639202893619633 [Eh]
	 SCS Correlation Energy    =      -1.4751981129782794 [Eh]
	 SCS Total Energy          =    -310.2304034504270476 [Eh]
	-----------------------------------------------------------

  Dipole Moment: [D]
     X:     0.0146      Y:     0.2689      Z:     0.0009     Total:     0.2693

*** Psi4 exiting successfully. Buy a developer a beer!
