                               Psi4 1.3.2 release

  ==> Input File <==

--------------------------------------------------------------------------
#psi4
#
memory 32 gb

molecule  {
0 1
  C       -3.4113591    -0.4103287     0.0100377
  C        3.3720920    -0.3929730     0.0571420
  C       -3.9415050     1.0253280     0.0313370
  C        3.9413990     1.0251120    -0.0302390
  C       -1.9110240    -0.4097670    -0.0329750
  C        1.9110920    -0.4103270     0.0325030
  C       -0.6837130    -0.4127480    -0.0120990
  C        0.6837810    -0.4128680     0.0116400
  H       -3.7516860    -0.9979840     0.7738320
  H       -3.7208300    -0.8759060    -0.9776160
  H        3.7518700    -0.9975380    -0.7747680
  H        3.7209340    -0.8772010     0.9767210
  H       -3.6235632     1.6762104    -0.7858465
  H       -3.6247440     1.5093170     0.9575960
  H       -5.0347610     1.0001480     0.0102760
  H        3.6246290     1.5100350    -0.9560070
  H        3.5933130     1.6313650     0.8087280
  H        5.0346230     0.9999160    -0.0090680
units angstrom
no_reorient  #important for SAPT in psi4, default
symmetry c1  #important for SAPT in psi4, default
}

set PROPERTIES_ORIGIN ["COM"]
properties('MP2/aug-cc-pvtz', properties = ['dipole'])
--------------------------------------------------------------------------

    Molecular point group: c1
  Charge       = 0
  Multiplicity = 1
  Basis Set: AUG-CC-PVTZ
    Blend: AUG-CC-PVTZ
  Basis Set: (AUG-CC-PVTZ AUX)
    Blend: AUG-CC-PVTZ-JKFIT

    Orbital Energies [Eh]
    ---------------------

    Doubly Occupied:

       1A    -11.259431     2A    -11.256730     3A    -11.246226
       4A    -11.245048     5A    -11.240788     6A    -11.239577
       7A    -11.227573     8A    -11.226851     9A     -1.092155
      10A     -1.077197    11A     -1.032432    12A     -0.973302
      13A     -0.889005    14A     -0.868868    15A     -0.787011
      16A     -0.656808    17A     -0.647416    18A     -0.629909
      19A     -0.627307    20A     -0.557905    21A     -0.554020
      22A     -0.528136    23A     -0.525033    24A     -0.516715
      25A     -0.509927    26A     -0.452925    27A     -0.449883
      28A     -0.329394    29A     -0.327184

  @DF-RHF Final Energy:  -308.75517973654132

   => Energetics <=

    Nuclear Repulsion Energy =            287.8265439541041815
    One-Electron Energy =                -985.2139326312108096
    Two-Electron Energy =                 388.6322089405653060
    Total Energy =                       -308.7551797365413222
  Basis Set: (AUG-CC-PVTZ AUX)
    Blend: AUG-CC-PVTZ-RI
    Molecular point group: c1

    Geometry (in Angstrom), charge = 0, multiplicity = 1:

       Center              X                  Y                   Z               Mass
    ------------   -----------------  -----------------  -----------------  -----------------
         C           -3.406633373158    -0.408738626953     0.002192599756    12.000000000000
         C            3.376817726842    -0.391382926953     0.049296899756    12.000000000000
         C           -3.936779273158     1.026918073047     0.023491899756    12.000000000000
         C            3.946124726842     1.026702073047    -0.038084100244    12.000000000000
         C           -1.906298273158    -0.408176926953    -0.040820100244    12.000000000000
         C            1.915817726842    -0.408736926953     0.024657899756    12.000000000000
         C           -0.678987273158    -0.411157926953    -0.019944100244    12.000000000000
         C            0.688506726842    -0.411277926953     0.003794899756    12.000000000000
         H           -3.746960273158    -0.996393926953     0.765986899756     1.007825032230
         H           -3.716104273158    -0.874315926953    -0.985461100244     1.007825032230
         H            3.756595726842    -0.995947926953    -0.782613100244     1.007825032230
         H            3.725659726842    -0.875610926953     0.968875899756     1.007825032230
         H           -3.618837473158     1.677800473047    -0.793691600244     1.007825032230
         H           -3.620018273158     1.510907073047     0.949750899756     1.007825032230
         H           -5.030035273158     1.001738073047     0.002430899756     1.007825032230
         H            3.629354726842     1.511625073047    -0.963852100244     1.007825032230
         H            3.598038726842     1.632955073047     0.800882899756     1.007825032230
         H            5.039348726842     1.001506073047    -0.016913100244     1.007825032230

  Basis Set: AUG-CC-PVTZ
    Blend: AUG-CC-PVTZ
  Basis Set: (AUG-CC-PVTZ AUX)
    Blend: AUG-CC-PVTZ-JKFIT
	 Reference Energy          =    -308.7551797365413222 [Eh]
	 Singles Energy            =      -0.0000000000000000 [Eh]
	 Same-Spin Energy          =      -0.3328598848061946 [Eh]
	 Opposite-Spin Energy      =      -1.1356266459380011 [Eh]
	 Correlation Energy        =      -1.4684865307441957 [Eh]
	 Total Energy              =    -310.2236662672855232 [Eh]

	 ================> DF-SCS-MP2 Energies <==================
	-----------------------------------------------------------
	 SCS Same-Spin Scale       =       0.3333333333333333 [-]
	 SCS Opposite-Spin Scale   =       1.2000000000000000 [-]
	 SCS Same-Spin Energy      =      -0.1109532949353982 [Eh]
	 SCS Opposite-Spin Energy  =      -1.3627519751256012 [Eh]
	 SCS Correlation Energy    =      -1.4737052700609994 [Eh]
	 SCS Total Energy          =    -310.2288850066022974 [Eh]
	-----------------------------------------------------------

  Dipole Moment: [D]
     X:    -0.0545      Y:     0.2369      Z:     0.0437     Total:     0.2470

*** Psi4 exiting successfully. Buy a developer a beer!
