                               Psi4 1.4a3.dev225

  ==> Input File <==

--------------------------------------------------------------------------
#psi4
#
memory 32 gb

molecule  {
0 1
  C       -3.3104600     0.6645600    -0.0001290
  C        3.3104610    -0.6645590    -0.0001300
  C       -4.1189600    -0.6381980     0.0003020
  C        4.1189570     0.6382020     0.0003020
  C       -1.8678680     0.4225120    -0.0001420
  C        1.8678690    -0.4225150    -0.0001410
  C       -0.6717070     0.1376470    -0.0001380
  C        0.6717080    -0.1376500    -0.0001380
  H       -3.5746830     1.2664600    -0.8780670
  H       -3.5745810     1.2669770     0.8774850
  H        3.5795043    -1.2774340    -0.8940777
  H        3.5745850    -1.2669760     0.8774840
  H       -3.8858290    -1.2341430     0.8855450
  H       -3.8859300    -1.2346660    -0.8846160
  H       -5.1908980    -0.4200070     0.0002980
  H        3.8859240     1.2346690    -0.8846160
  H        3.8858250     1.2341450     0.8855460
  H        5.1908960     0.4200140     0.0002970
units angstrom
no_reorient  #important for SAPT in psi4, default
symmetry c1  #important for SAPT in psi4, default
}

set PROPERTIES_ORIGIN ["COM"]
properties('MP2/aug-cc-pvtz', properties = ['dipole'])
--------------------------------------------------------------------------

    Molecular point group: c1
  Charge       = 0
  Multiplicity = 1
  Basis Set: AUG-CC-PVTZ
    Blend: AUG-CC-PVTZ
  Basis Set: (AUG-CC-PVTZ AUX)
    Blend: AUG-CC-PVTZ-JKFIT

    Orbital Energies [Eh]
    ---------------------

    Doubly Occupied:

       1A    -11.260001     2A    -11.257715     3A    -11.246793
       4A    -11.246613     5A    -11.242758     6A    -11.241714
       7A    -11.227617     8A    -11.227491     9A     -1.093167
      10A     -1.078323    11A     -1.031156    12A     -0.972908
      13A     -0.889347    14A     -0.867619    15A     -0.785352
      16A     -0.655665    17A     -0.644737    18A     -0.629793
      19A     -0.627486    20A     -0.557095    21A     -0.552098
      22A     -0.526321    23A     -0.524555    24A     -0.517940
      25A     -0.513592    26A     -0.450928    27A     -0.450188
      28A     -0.328750    29A     -0.327917

  @DF-RHF Final Energy:  -308.76101683307155

   => Energetics <=

    Nuclear Repulsion Energy =            287.9303566972665749
    One-Electron Energy =                -985.4314672411087486
    Two-Electron Energy =                 388.7400937107706227
    Total Energy =                       -308.7610168330715510
  Basis Set: (AUG-CC-PVTZ AUX)
    Blend: AUG-CC-PVTZ-RI
    Molecular point group: c1

    Geometry (in Angstrom), charge = 0, multiplicity = 1:

       Center              X                  Y                   Z               Mass
    ------------   -----------------  -----------------  -----------------  -----------------
         C           -3.310505730055     0.664664251061     0.000035076026    12.000000000000
         C            3.310415269945    -0.664454748939     0.000034076026    12.000000000000
         C           -4.119005730055    -0.638093748939     0.000466076026    12.000000000000
         C            4.118911269945     0.638306251061     0.000466076026    12.000000000000
         C           -1.867913730055     0.422616251061     0.000022076026    12.000000000000
         C            1.867823269945    -0.422410748939     0.000023076026    12.000000000000
         C           -0.671752730055     0.137751251061     0.000026076026    12.000000000000
         C            0.671662269945    -0.137545748939     0.000026076026    12.000000000000
         H           -3.574728730055     1.266564251061    -0.877902923974     1.007825032230
         H           -3.574626730055     1.267081251061     0.877649076026     1.007825032230
         H            3.579458569945    -1.277329748939    -0.893913623974     1.007825032230
         H            3.574539269945    -1.266871748939     0.877648076026     1.007825032230
         H           -3.885874730055    -1.234038748939     0.885709076026     1.007825032230
         H           -3.885975730055    -1.234561748939    -0.884451923974     1.007825032230
         H           -5.190943730055    -0.419902748939     0.000462076026     1.007825032230
         H            3.885878269945     1.234773251061    -0.884451923974     1.007825032230
         H            3.885779269945     1.234249251061     0.885710076026     1.007825032230
         H            5.190850269945     0.420118251061     0.000461076026     1.007825032230

  Basis Set: AUG-CC-PVTZ
    Blend: AUG-CC-PVTZ
  Basis Set: (AUG-CC-PVTZ AUX)
    Blend: AUG-CC-PVTZ-JKFIT
	 Reference Energy          =    -308.7610168330715510 [Eh]
	 Singles Energy            =      -0.0000000000000000 [Eh]
	 Same-Spin Energy          =      -0.3334207682221175 [Eh]
	 Opposite-Spin Energy      =      -1.1364084724526566 [Eh]
	 Correlation Energy        =      -1.4698292406747742 [Eh]
	 Total Energy              =    -310.2308460737463065 [Eh]

	 ================> DF-SCS-MP2 Energies <==================
	-----------------------------------------------------------
	 SCS Same-Spin Scale       =       0.3333333333333333 [-]
	 SCS Opposite-Spin Scale   =       1.2000000000000000 [-]
	 SCS Same-Spin Energy      =      -0.1111402560740392 [Eh]
	 SCS Opposite-Spin Energy  =      -1.3636901669431880 [Eh]
	 SCS Correlation Energy    =      -1.4748304230172271 [Eh]
	 SCS Total Energy          =    -310.2358472560887890 [Eh]
	-----------------------------------------------------------

  Dipole Moment: [D]
     X:    -0.0067      Y:     0.0071      Z:     0.0049     Total:     0.0110

*** Psi4 exiting successfully. Buy a developer a beer!
