                               Psi4 1.3.2 release

  ==> Input File <==

--------------------------------------------------------------------------
#psi4
#
memory 32 gb

molecule  {
0 1
  C       -3.3721060    -0.3925950    -0.0575320
  C        3.3720920    -0.3929730     0.0571420
  C       -3.9415050     1.0253280     0.0313370
  C        3.9413990     1.0251120    -0.0302390
  C       -1.9110240    -0.4097670    -0.0329750
  C        1.9110920    -0.4103270     0.0325030
  C       -0.5837278    -0.4129909    -0.0103983
  C        0.6837810    -0.4128680     0.0116400
  H       -3.7516860    -0.9979840     0.7738320
  H       -3.7208300    -0.8759060    -0.9776160
  H        3.7518700    -0.9975380    -0.7747680
  H        3.7209340    -0.8772010     0.9767210
  H       -3.5935250     1.6324230    -0.8070360
  H       -3.6247440     1.5093170     0.9575960
  H       -5.0347610     1.0001480     0.0102760
  H        3.6246290     1.5100350    -0.9560070
  H        3.5933130     1.6313650     0.8087280
  H        5.0346230     0.9999160    -0.0090680
units angstrom
no_reorient  #important for SAPT in psi4, default
symmetry c1  #important for SAPT in psi4, default
}

set PROPERTIES_ORIGIN ["COM"]
properties('MP2/aug-cc-pvtz', properties = ['dipole'])
--------------------------------------------------------------------------

    Molecular point group: c1
  Charge       = 0
  Multiplicity = 1
  Basis Set: AUG-CC-PVTZ
    Blend: AUG-CC-PVTZ
  Basis Set: (AUG-CC-PVTZ AUX)
    Blend: AUG-CC-PVTZ-JKFIT

    Orbital Energies [Eh]
    ---------------------

    Doubly Occupied:

       1A    -11.272481     2A    -11.261672     3A    -11.257947
       4A    -11.253876     5A    -11.247062     6A    -11.230079
       7A    -11.228530     8A    -11.227634     9A     -1.098698
      10A     -1.078726    11A     -1.044093    12A     -0.958562
      13A     -0.898849    14A     -0.864856    15A     -0.801219
      16A     -0.657411    17A     -0.647827    18A     -0.632071
      19A     -0.630465    20A     -0.557347    21A     -0.554479
      22A     -0.527167    23A     -0.526243    24A     -0.519609
      25A     -0.514923    26A     -0.459689    27A     -0.458881
      28A     -0.306228    29A     -0.305293

  @DF-RHF Final Energy:  -308.71966392408228

   => Energetics <=

    Nuclear Repulsion Energy =            288.3243883987636309
    One-Electron Energy =                -986.0442734668042704
    Two-Electron Energy =                 389.0002211439583562
    Total Energy =                       -308.7196639240822833
  Basis Set: (AUG-CC-PVTZ AUX)
    Blend: AUG-CC-PVTZ-RI
    Molecular point group: c1

    Geometry (in Angstrom), charge = 0, multiplicity = 1:

       Center              X                  Y                   Z               Mass
    ------------   -----------------  -----------------  -----------------  -----------------
         C           -3.383416857893    -0.392567542868    -0.057724416437    12.000000000000
         C            3.360781142107    -0.392945542868     0.056949583563    12.000000000000
         C           -3.952815857893     1.025355457132     0.031144583563    12.000000000000
         C            3.930088142107     1.025139457132    -0.030431416437    12.000000000000
         C           -1.922334857893    -0.409739542868    -0.033167416437    12.000000000000
         C            1.899781142107    -0.410299542868     0.032310583563    12.000000000000
         C           -0.595038657893    -0.412963442868    -0.010590716437    12.000000000000
         C            0.672470142107    -0.412840542868     0.011447583563    12.000000000000
         H           -3.762996857893    -0.997956542868     0.773639583563     1.007825032230
         H           -3.732140857893    -0.875878542868    -0.977808416437     1.007825032230
         H            3.740559142107    -0.997510542868    -0.774960416437     1.007825032230
         H            3.709623142107    -0.877173542868     0.976528583563     1.007825032230
         H           -3.604835857893     1.632450457132    -0.807228416437     1.007825032230
         H           -3.636054857893     1.509344457132     0.957403583563     1.007825032230
         H           -5.046071857893     1.000175457132     0.010083583563     1.007825032230
         H            3.613318142107     1.510062457132    -0.956199416437     1.007825032230
         H            3.582002142107     1.631392457132     0.808535583563     1.007825032230
         H            5.023312142107     0.999943457132    -0.009260416437     1.007825032230

  Basis Set: AUG-CC-PVTZ
    Blend: AUG-CC-PVTZ
  Basis Set: (AUG-CC-PVTZ AUX)
    Blend: AUG-CC-PVTZ-JKFIT
	 Reference Energy          =    -308.7196639240822833 [Eh]
	 Singles Energy            =      -0.0000000000000000 [Eh]
	 Same-Spin Energy          =      -0.3415494150570276 [Eh]
	 Opposite-Spin Energy      =      -1.1482777737831364 [Eh]
	 Correlation Energy        =      -1.4898271888401640 [Eh]
	 Total Energy              =    -310.2094911129224215 [Eh]

	 ================> DF-SCS-MP2 Energies <==================
	-----------------------------------------------------------
	 SCS Same-Spin Scale       =       0.3333333333333333 [-]
	 SCS Opposite-Spin Scale   =       1.2000000000000000 [-]
	 SCS Same-Spin Energy      =      -0.1138498050190092 [Eh]
	 SCS Opposite-Spin Energy  =      -1.3779333285397637 [Eh]
	 SCS Correlation Energy    =      -1.4917831335587728 [Eh]
	 SCS Total Energy          =    -310.2114470576410667 [Eh]
	-----------------------------------------------------------

  Dipole Moment: [D]
     X:     0.0173      Y:     0.2334      Z:     0.0009     Total:     0.2340

*** Psi4 exiting successfully. Buy a developer a beer!
