                               Psi4 1.3.2 release

  ==> Input File <==

--------------------------------------------------------------------------
#psi4
#
memory 32 gb

molecule  {
0 1
  C       -3.3715932    -0.3671006    -0.0569706
  C        3.3720920    -0.3929730     0.0571420
  C       -3.9415050     1.0253280     0.0313370
  C        3.9413990     1.0251120    -0.0302390
  C       -1.9110240    -0.4097670    -0.0329750
  C        1.9110920    -0.4103270     0.0325030
  C       -0.6838558    -0.3913299    -0.0116371
  C        0.6837810    -0.4128680     0.0116400
  H       -3.7516860    -0.9979840     0.7738320
  H       -3.7208300    -0.8759060    -0.9776160
  H        3.7518700    -0.9975380    -0.7747680
  H        3.7209340    -0.8772010     0.9767210
  H       -3.5935250     1.6324230    -0.8070360
  H       -3.6247440     1.5093170     0.9575960
  H       -5.0347610     1.0001480     0.0102760
  H        3.6246290     1.5100350    -0.9560070
  H        3.5933130     1.6313650     0.8087280
  H        5.0346230     0.9999160    -0.0090680
units angstrom
no_reorient  #important for SAPT in psi4, default
symmetry c1  #important for SAPT in psi4, default
}

set PROPERTIES_ORIGIN ["COM"]
properties('MP2/aug-cc-pvtz', properties = ['dipole'])
--------------------------------------------------------------------------

    Molecular point group: c1
  Charge       = 0
  Multiplicity = 1
  Basis Set: AUG-CC-PVTZ
    Blend: AUG-CC-PVTZ
  Basis Set: (AUG-CC-PVTZ AUX)
    Blend: AUG-CC-PVTZ-JKFIT

    Orbital Energies [Eh]
    ---------------------

    Doubly Occupied:

       1A    -11.258283     2A    -11.257149     3A    -11.245880
       4A    -11.245724     5A    -11.241650     6A    -11.240571
       7A    -11.227248     8A    -11.226047     9A     -1.094855
      10A     -1.080608    11A     -1.033565    12A     -0.974676
      13A     -0.889834    14A     -0.867319    15A     -0.785765
      16A     -0.656459    17A     -0.646521    18A     -0.630402
      19A     -0.628206    20A     -0.561955    21A     -0.554720
      22A     -0.525682    23A     -0.523995    24A     -0.517534
      25A     -0.511529    26A     -0.452332    27A     -0.450100
      28A     -0.329421    29A     -0.327524

  @DF-RHF Final Energy:  -308.76150863592369

   => Energetics <=

    Nuclear Repulsion Energy =            288.5287016380230511
    One-Electron Energy =                -986.6093100140501519
    Two-Electron Energy =                 389.3190997401034679
    Total Energy =                       -308.7615086359236898
  Basis Set: (AUG-CC-PVTZ AUX)
    Blend: AUG-CC-PVTZ-RI
    Molecular point group: c1

    Geometry (in Angstrom), charge = 0, multiplicity = 1:

       Center              X                  Y                   Z               Mass
    ------------   -----------------  -----------------  -----------------  -----------------
         C           -3.371635184242    -0.372407552121    -0.057086386213    12.000000000000
         C            3.372050015758    -0.398279952121     0.057026213787    12.000000000000
         C           -3.941546984242     1.020021047879     0.031221213787    12.000000000000
         C            3.941357015758     1.019805047879    -0.030354786213    12.000000000000
         C           -1.911065984242    -0.415073952121    -0.033090786213    12.000000000000
         C            1.911050015758    -0.415633952121     0.032387213787    12.000000000000
         C           -0.683897784242    -0.396636852121    -0.011752886213    12.000000000000
         C            0.683739015758    -0.418174952121     0.011524213787    12.000000000000
         H           -3.751727984242    -1.003290952121     0.773716213787     1.007825032230
         H           -3.720871984242    -0.881212952121    -0.977731786213     1.007825032230
         H            3.751828015758    -1.002844952121    -0.774883786213     1.007825032230
         H            3.720892015758    -0.882507952121     0.976605213787     1.007825032230
         H           -3.593566984242     1.627116047879    -0.807151786213     1.007825032230
         H           -3.624785984242     1.504010047879     0.957480213787     1.007825032230
         H           -5.034802984242     0.994841047879     0.010160213787     1.007825032230
         H            3.624587015758     1.504728047879    -0.956122786213     1.007825032230
         H            3.593271015758     1.626058047879     0.808612213787     1.007825032230
         H            5.034581015758     0.994609047879    -0.009183786213     1.007825032230

  Basis Set: AUG-CC-PVTZ
    Blend: AUG-CC-PVTZ
  Basis Set: (AUG-CC-PVTZ AUX)
    Blend: AUG-CC-PVTZ-JKFIT
	 Reference Energy          =    -308.7615086359236898 [Eh]
	 Singles Energy            =      -0.0000000000000000 [Eh]
	 Same-Spin Energy          =      -0.3334334999064781 [Eh]
	 Opposite-Spin Energy      =      -1.1359295084377119 [Eh]
	 Correlation Energy        =      -1.4693630083441900 [Eh]
	 Total Energy              =    -310.2308716442678929 [Eh]

	 ================> DF-SCS-MP2 Energies <==================
	-----------------------------------------------------------
	 SCS Same-Spin Scale       =       0.3333333333333333 [-]
	 SCS Opposite-Spin Scale   =       1.2000000000000000 [-]
	 SCS Same-Spin Energy      =      -0.1111444999688260 [Eh]
	 SCS Opposite-Spin Energy  =      -1.3631154101252543 [Eh]
	 SCS Correlation Energy    =      -1.4742599100940803 [Eh]
	 SCS Total Energy          =    -310.2357685460177663 [Eh]
	-----------------------------------------------------------

  Dipole Moment: [D]
     X:     0.0036      Y:     0.2380      Z:     0.0004     Total:     0.2381

*** Psi4 exiting successfully. Buy a developer a beer!
