                               Psi4 1.3.2 release

  ==> Input File <==

--------------------------------------------------------------------------
#psi4
#
memory 32 gb

molecule  {
0 1
  C       -3.3721738    -0.4180946    -0.0580860
  C        3.3720920    -0.3929730     0.0571420
  C       -3.9415050     1.0253280     0.0313370
  C        3.9413990     1.0251120    -0.0302390
  C       -1.9110240    -0.4097670    -0.0329750
  C        1.9110920    -0.4103270     0.0325030
  C       -0.6839440    -0.4341651    -0.0125672
  C        0.6837810    -0.4128680     0.0116400
  H       -3.7516860    -0.9979840     0.7738320
  H       -3.7208300    -0.8759060    -0.9776160
  H        3.7518700    -0.9975380    -0.7747680
  H        3.7209340    -0.8772010     0.9767210
  H       -3.5935250     1.6324230    -0.8070360
  H       -3.6247440     1.5093170     0.9575960
  H       -5.0347610     1.0001480     0.0102760
  H        3.6246290     1.5100350    -0.9560070
  H        3.5933130     1.6313650     0.8087280
  H        5.0346230     0.9999160    -0.0090680
units angstrom
no_reorient  #important for SAPT in psi4, default
symmetry c1  #important for SAPT in psi4, default
}

set PROPERTIES_ORIGIN ["COM"]
properties('MP2/aug-cc-pvtz', properties = ['dipole'])
--------------------------------------------------------------------------

    Molecular point group: c1
  Charge       = 0
  Multiplicity = 1
  Basis Set: AUG-CC-PVTZ
    Blend: AUG-CC-PVTZ
  Basis Set: (AUG-CC-PVTZ AUX)
    Blend: AUG-CC-PVTZ-JKFIT

    Orbital Energies [Eh]
    ---------------------

    Doubly Occupied:

       1A    -11.257067     2A    -11.256067     3A    -11.245743
       4A    -11.245580     5A    -11.241479     6A    -11.240401
       7A    -11.228251     8A    -11.227073     9A     -1.093394
      10A     -1.078146    11A     -1.031324    12A     -0.972981
      13A     -0.890054    14A     -0.868699    15A     -0.786445
      16A     -0.656852    17A     -0.646504    18A     -0.632466
      19A     -0.629914    20A     -0.555139    21A     -0.548081
      22A     -0.526643    23A     -0.525467    24A     -0.520602
      25A     -0.515462    26A     -0.451565    27A     -0.450771
      28A     -0.328422    29A     -0.328226

  @DF-RHF Final Energy:  -308.76211078040245

   => Energetics <=

    Nuclear Repulsion Energy =            288.1383014596539738
    One-Electron Energy =                -985.8431935984825714
    Two-Electron Energy =                 388.9427813584262026
    Total Energy =                       -308.7621107804024518
  Basis Set: (AUG-CC-PVTZ AUX)
    Blend: AUG-CC-PVTZ-RI
    Molecular point group: c1

    Geometry (in Angstrom), charge = 0, multiplicity = 1:

       Center              X                  Y                   Z               Mass
    ------------   -----------------  -----------------  -----------------  -----------------
         C           -3.372140126886    -0.412787214153    -0.057970390994    12.000000000000
         C            3.372125673114    -0.387665614153     0.057257609006    12.000000000000
         C           -3.941471326886     1.030635385847     0.031452609006    12.000000000000
         C            3.941432673114     1.030419385847    -0.030123390994    12.000000000000
         C           -1.910990326886    -0.404459614153    -0.032859390994    12.000000000000
         C            1.911125673114    -0.405019614153     0.032618609006    12.000000000000
         C           -0.683910326886    -0.428857714153    -0.012451590994    12.000000000000
         C            0.683814673114    -0.407560614153     0.011755609006    12.000000000000
         H           -3.751652326886    -0.992676614153     0.773947609006     1.007825032230
         H           -3.720796326886    -0.870598614153    -0.977500390994     1.007825032230
         H            3.751903673114    -0.992230614153    -0.774652390994     1.007825032230
         H            3.720967673114    -0.871893614153     0.976836609006     1.007825032230
         H           -3.593491326886     1.637730385847    -0.806920390994     1.007825032230
         H           -3.624710326886     1.514624385847     0.957711609006     1.007825032230
         H           -5.034727326886     1.005455385847     0.010391609006     1.007825032230
         H            3.624662673114     1.515342385847    -0.955891390994     1.007825032230
         H            3.593346673114     1.636672385847     0.808843609006     1.007825032230
         H            5.034656673114     1.005223385847    -0.008952390994     1.007825032230

  Basis Set: AUG-CC-PVTZ
    Blend: AUG-CC-PVTZ
  Basis Set: (AUG-CC-PVTZ AUX)
    Blend: AUG-CC-PVTZ-JKFIT
	 Reference Energy          =    -308.7621107804024518 [Eh]
	 Singles Energy            =      -0.0000000000000000 [Eh]
	 Same-Spin Energy          =      -0.3331562057808675 [Eh]
	 Opposite-Spin Energy      =      -1.1356221036679646 [Eh]
	 Correlation Energy        =      -1.4687783094488320 [Eh]
	 Total Energy              =    -310.2308890898513027 [Eh]

	 ================> DF-SCS-MP2 Energies <==================
	-----------------------------------------------------------
	 SCS Same-Spin Scale       =       0.3333333333333333 [-]
	 SCS Opposite-Spin Scale   =       1.2000000000000000 [-]
	 SCS Same-Spin Energy      =      -0.1110520685936225 [Eh]
	 SCS Opposite-Spin Energy  =      -1.3627465244015575 [Eh]
	 SCS Correlation Energy    =      -1.4737985929951800 [Eh]
	 SCS Total Energy          =    -310.2359093733976465 [Eh]
	-----------------------------------------------------------

  Dipole Moment: [D]
     X:    -0.0024      Y:     0.2155      Z:     0.0001     Total:     0.2155

*** Psi4 exiting successfully. Buy a developer a beer!
