                               Psi4 1.3.2 release

  ==> Input File <==

--------------------------------------------------------------------------
#psi4
#
memory 32 gb

molecule  {
0 1
  C       -3.3721060    -0.3925950    -0.0575320
  C        3.3720920    -0.3929730     0.0571420
  C       -3.9415050     1.0253280     0.0313370
  C        3.9413990     1.0251120    -0.0302390
  C       -1.9110240    -0.4097670    -0.0329750
  C        1.7111345    -0.4127021     0.0291308
  C       -0.6837130    -0.4127480    -0.0120990
  C        0.6837810    -0.4128680     0.0116400
  H       -3.7516860    -0.9979840     0.7738320
  H       -3.7208300    -0.8759060    -0.9776160
  H        3.7518700    -0.9975380    -0.7747680
  H        3.7209340    -0.8772010     0.9767210
  H       -3.5935250     1.6324230    -0.8070360
  H       -3.6247440     1.5093170     0.9575960
  H       -5.0347610     1.0001480     0.0102760
  H        3.6246290     1.5100350    -0.9560070
  H        3.5933130     1.6313650     0.8087280
  H        5.0346230     0.9999160    -0.0090680
units angstrom
no_reorient  #important for SAPT in psi4, default
symmetry c1  #important for SAPT in psi4, default
}

set PROPERTIES_ORIGIN ["COM"]
properties('MP2/aug-cc-pvtz', properties = ['dipole'])
--------------------------------------------------------------------------

    Molecular point group: c1
  Charge       = 0
  Multiplicity = 1
  Basis Set: AUG-CC-PVTZ
    Blend: AUG-CC-PVTZ
  Basis Set: (AUG-CC-PVTZ AUX)
    Blend: AUG-CC-PVTZ-JKFIT

    Orbital Energies [Eh]
    ---------------------

    Doubly Occupied:

       1A    -11.269292     2A    -11.254674     3A    -11.239939
       4A    -11.233717     5A    -11.225913     6A    -11.225583
       7A    -11.194918     8A    -11.179932     9A     -1.101976
      10A     -1.075245    11A     -1.031328    12A     -0.989314
      13A     -0.879996    14A     -0.853607    15A     -0.783976
      16A     -0.648699    17A     -0.628293    18A     -0.621515
      19A     -0.618457    20A     -0.553500    21A     -0.540921
      22A     -0.523765    23A     -0.518938    24A     -0.512904
      25A     -0.510783    26A     -0.481386    27A     -0.478358
      28A     -0.351296    29A     -0.350571

  @DF-RHF Final Energy:  -308.67318412001811

   => Energetics <=

    Nuclear Repulsion Energy =            290.1405879024698606
    One-Electron Energy =                -989.8699469260444630
    Two-Electron Energy =                 391.0561749035564958
    Total Energy =                       -308.6731841200181066
  Basis Set: (AUG-CC-PVTZ AUX)
    Blend: AUG-CC-PVTZ-RI
    Molecular point group: c1

    Geometry (in Angstrom), charge = 0, multiplicity = 1:

       Center              X                  Y                   Z               Mass
    ------------   -----------------  -----------------  -----------------  -----------------
         C           -3.349486128558    -0.392326339795    -0.057150549505    12.000000000000
         C            3.394711871442    -0.392704339795     0.057523450495    12.000000000000
         C           -3.918885128558     1.025596660205     0.031718450495    12.000000000000
         C            3.964018871442     1.025380660205    -0.029857549505    12.000000000000
         C           -1.888404128558    -0.409498339795    -0.032593549505    12.000000000000
         C            1.733754371442    -0.412433439795     0.029512250495    12.000000000000
         C           -0.661093128558    -0.412479339795    -0.011717549505    12.000000000000
         C            0.706400871442    -0.412599339795     0.012021450495    12.000000000000
         H           -3.729066128558    -0.997715339795     0.774213450495     1.007825032230
         H           -3.698210128558    -0.875637339795    -0.977234549505     1.007825032230
         H            3.774489871442    -0.997269339795    -0.774386549505     1.007825032230
         H            3.743553871442    -0.876932339795     0.977102450495     1.007825032230
         H           -3.570905128558     1.632691660205    -0.806654549505     1.007825032230
         H           -3.602124128558     1.509585660205     0.957977450495     1.007825032230
         H           -5.012141128558     1.000416660205     0.010657450495     1.007825032230
         H            3.647248871442     1.510303660205    -0.955625549505     1.007825032230
         H            3.615932871442     1.631633660205     0.809109450495     1.007825032230
         H            5.057242871442     1.000184660205    -0.008686549505     1.007825032230

  Basis Set: AUG-CC-PVTZ
    Blend: AUG-CC-PVTZ
  Basis Set: (AUG-CC-PVTZ AUX)
    Blend: AUG-CC-PVTZ-JKFIT
	 Reference Energy          =    -308.6731841200181066 [Eh]
	 Singles Energy            =      -0.0000000000000000 [Eh]
	 Same-Spin Energy          =      -0.3233811123532129 [Eh]
	 Opposite-Spin Energy      =      -1.1205243342948186 [Eh]
	 Correlation Energy        =      -1.4439054466480314 [Eh]
	 Total Energy              =    -310.1170895666661522 [Eh]

	 ================> DF-SCS-MP2 Energies <==================
	-----------------------------------------------------------
	 SCS Same-Spin Scale       =       0.3333333333333333 [-]
	 SCS Opposite-Spin Scale   =       1.2000000000000000 [-]
	 SCS Same-Spin Energy      =      -0.1077937041177376 [Eh]
	 SCS Opposite-Spin Energy  =      -1.3446292011537821 [Eh]
	 SCS Correlation Energy    =      -1.4524229052715198 [Eh]
	 SCS Total Energy          =    -310.1256070252896393 [Eh]
	-----------------------------------------------------------

  Dipole Moment: [D]
     X:     0.0917      Y:     0.2397      Z:    -0.0003     Total:     0.2567

*** Psi4 exiting successfully. Buy a developer a beer!
