                               Psi4 1.3.2 release

  ==> Input File <==

--------------------------------------------------------------------------
#psi4
#
memory 32 gb

molecule  {
0 1
  C       -3.3721060    -0.3925950    -0.0575320
  C        3.3720920    -0.3929730     0.0571420
  C       -3.9415050     1.0253280     0.0313370
  C        3.9413990     1.0251120    -0.0302390
  C       -1.9111982    -0.4037650    -0.0217240
  C        1.9110920    -0.4103270     0.0325030
  C       -0.6837130    -0.4127480    -0.0120990
  C        0.6837810    -0.4128680     0.0116400
  H       -3.7516860    -0.9979840     0.7738320
  H       -3.7298845    -0.8743094    -0.9749731
  H        3.7518700    -0.9975380    -0.7747680
  H        3.7209340    -0.8772010     0.9767210
  H       -3.5935250     1.6324230    -0.8070360
  H       -3.6247440     1.5093170     0.9575960
  H       -5.0347610     1.0001480     0.0102760
  H        3.6246290     1.5100350    -0.9560070
  H        3.5933130     1.6313650     0.8087280
  H        5.0346230     0.9999160    -0.0090680
units angstrom
no_reorient  #important for SAPT in psi4, default
symmetry c1  #important for SAPT in psi4, default
}

set PROPERTIES_ORIGIN ["COM"]
properties('MP2/aug-cc-pvtz', properties = ['dipole'])
--------------------------------------------------------------------------

    Molecular point group: c1
  Charge       = 0
  Multiplicity = 1
  Basis Set: AUG-CC-PVTZ
    Blend: AUG-CC-PVTZ
  Basis Set: (AUG-CC-PVTZ AUX)
    Blend: AUG-CC-PVTZ-JKFIT

    Orbital Energies [Eh]
    ---------------------

    Doubly Occupied:

       1A    -11.257155     2A    -11.257070     3A    -11.245894
       4A    -11.245737     5A    -11.241641     6A    -11.240557
       7A    -11.227185     8A    -11.226950     9A     -1.094072
      10A     -1.079369    11A     -1.032520    12A     -0.973842
      13A     -0.889764    14A     -0.867858    15A     -0.786361
      16A     -0.657197    17A     -0.646988    18A     -0.630662
      19A     -0.629324    20A     -0.555951    21A     -0.553280
      22A     -0.525703    23A     -0.525584    24A     -0.518302
      25A     -0.514017    26A     -0.451723    27A     -0.450978
      28A     -0.328861    29A     -0.328051

  @DF-RHF Final Energy:  -308.76237779800545

   => Energetics <=

    Nuclear Repulsion Energy =            288.3431078009694488
    One-Electron Energy =                -986.2457761786162109
    Two-Electron Energy =                 389.1402905796412597
    Total Energy =                       -308.7623777980054456
  Basis Set: (AUG-CC-PVTZ AUX)
    Blend: AUG-CC-PVTZ-RI
    Molecular point group: c1

    Geometry (in Angstrom), charge = 0, multiplicity = 1:

       Center              X                  Y                   Z               Mass
    ------------   -----------------  -----------------  -----------------  -----------------
         C           -3.372000397421    -0.393289160101    -0.058829894519    12.000000000000
         C            3.372197602579    -0.393667160101     0.055844105481    12.000000000000
         C           -3.941399397421     1.024633839899     0.030039105481    12.000000000000
         C            3.941504602579     1.024417839899    -0.031536894519    12.000000000000
         C           -1.911092597421    -0.404459160101    -0.023021894519    12.000000000000
         C            1.911197602579    -0.411021160101     0.031205105481    12.000000000000
         C           -0.683607397421    -0.413442160101    -0.013396894519    12.000000000000
         C            0.683886602579    -0.413562160101     0.010342105481    12.000000000000
         H           -3.751580397421    -0.998678160101     0.772534105481     1.007825032230
         H           -3.729778897421    -0.875003560101    -0.976270994519     1.007825032230
         H            3.751975602579    -0.998232160101    -0.776065894519     1.007825032230
         H            3.721039602579    -0.877895160101     0.975423105481     1.007825032230
         H           -3.593419397421     1.631728839899    -0.808333894519     1.007825032230
         H           -3.624638397421     1.508622839899     0.956298105481     1.007825032230
         H           -5.034655397421     0.999453839899     0.008978105481     1.007825032230
         H            3.624734602579     1.509340839899    -0.957304894519     1.007825032230
         H            3.593418602579     1.630670839899     0.807430105481     1.007825032230
         H            5.034728602579     0.999221839899    -0.010365894519     1.007825032230

  Basis Set: AUG-CC-PVTZ
    Blend: AUG-CC-PVTZ
  Basis Set: (AUG-CC-PVTZ AUX)
    Blend: AUG-CC-PVTZ-JKFIT
	 Reference Energy          =    -308.7623777980054456 [Eh]
	 Singles Energy            =      -0.0000000000000000 [Eh]
	 Same-Spin Energy          =      -0.3332950489886226 [Eh]
	 Opposite-Spin Energy      =      -1.1357509158685217 [Eh]
	 Correlation Energy        =      -1.4690459648571443 [Eh]
	 Total Energy              =    -310.2314237628625619 [Eh]

	 ================> DF-SCS-MP2 Energies <==================
	-----------------------------------------------------------
	 SCS Same-Spin Scale       =       0.3333333333333333 [-]
	 SCS Opposite-Spin Scale   =       1.2000000000000000 [-]
	 SCS Same-Spin Energy      =      -0.1110983496628742 [Eh]
	 SCS Opposite-Spin Energy  =      -1.3629010990422261 [Eh]
	 SCS Correlation Energy    =      -1.4739994487051002 [Eh]
	 SCS Total Energy          =    -310.2363772467105605 [Eh]
	-----------------------------------------------------------

  Dipole Moment: [D]
     X:     0.0063      Y:     0.2200      Z:    -0.0063     Total:     0.2202

*** Psi4 exiting successfully. Buy a developer a beer!
