                               Psi4 1.3.2 release

  ==> Input File <==

--------------------------------------------------------------------------
#psi4
#
memory 32 gb

molecule  {
0 1
  C       -3.3721060    -0.3925950    -0.0575320
  C        3.3720920    -0.3929730     0.0571420
  C       -3.9290877     1.0302164     0.0318969
  C        3.9413990     1.0251120    -0.0302390
  C       -1.9109451    -0.3970453    -0.0320862
  C        1.9110920    -0.4103270     0.0325030
  C       -0.6837130    -0.4127480    -0.0120990
  C        0.6837810    -0.4128680     0.0116400
  H       -3.7516860    -0.9979840     0.7738320
  H       -3.7208300    -0.8759060    -0.9776160
  H        3.7518700    -0.9975380    -0.7747680
  H        3.7209340    -0.8772010     0.9767210
  H       -3.5935250     1.6324230    -0.8070360
  H       -3.6247440     1.5093170     0.9575960
  H       -5.0347610     1.0001480     0.0102760
  H        3.6246290     1.5100350    -0.9560070
  H        3.5933130     1.6313650     0.8087280
  H        5.0346230     0.9999160    -0.0090680
units angstrom
no_reorient  #important for SAPT in psi4, default
symmetry c1  #important for SAPT in psi4, default
}

set PROPERTIES_ORIGIN ["COM"]
properties('MP2/aug-cc-pvtz', properties = ['dipole'])
--------------------------------------------------------------------------

    Molecular point group: c1
  Charge       = 0
  Multiplicity = 1
  Basis Set: AUG-CC-PVTZ
    Blend: AUG-CC-PVTZ
  Basis Set: (AUG-CC-PVTZ AUX)
    Blend: AUG-CC-PVTZ-JKFIT

    Orbital Energies [Eh]
    ---------------------

    Doubly Occupied:

       1A    -11.257209     2A    -11.257064     3A    -11.245664
       4A    -11.245474     5A    -11.241409     6A    -11.240326
       7A    -11.227112     8A    -11.227050     9A     -1.094116
      10A     -1.079499    11A     -1.032421    12A     -0.973614
      13A     -0.889656    14A     -0.867857    15A     -0.786235
      16A     -0.656814    17A     -0.646568    18A     -0.631683
      19A     -0.629843    20A     -0.555566    21A     -0.551908
      22A     -0.525569    23A     -0.524067    24A     -0.520098
      25A     -0.515152    26A     -0.451557    27A     -0.450978
      28A     -0.328623    29A     -0.327941

  @DF-RHF Final Energy:  -308.76219723965352

   => Energetics <=

    Nuclear Repulsion Energy =            288.4218410020708916
    One-Electron Energy =                -986.4059349695245373
    Two-Electron Energy =                 389.2218967278001287
    Total Energy =                       -308.7621972396535170
  Basis Set: (AUG-CC-PVTZ AUX)
    Blend: AUG-CC-PVTZ-RI
    Molecular point group: c1

    Geometry (in Angstrom), charge = 0, multiplicity = 1:

       Center              X                  Y                   Z               Mass
    ------------   -----------------  -----------------  -----------------  -----------------
         C           -3.373519748950    -0.394587146315    -0.057695909179    12.000000000000
         C            3.370678251050    -0.394965146315     0.056978090821    12.000000000000
         C           -3.930501448950     1.028224253685     0.031732990821    12.000000000000
         C            3.939985251050     1.023119853685    -0.030402909179    12.000000000000
         C           -1.912358848950    -0.399037446315    -0.032250109179    12.000000000000
         C            1.909678251050    -0.412319146315     0.032339090821    12.000000000000
         C           -0.685126748950    -0.414740146315    -0.012262909179    12.000000000000
         C            0.682367251050    -0.414860146315     0.011476090821    12.000000000000
         H           -3.753099748950    -0.999976146315     0.773668090821     1.007825032230
         H           -3.722243748950    -0.877898146315    -0.977779909179     1.007825032230
         H            3.750456251050    -0.999530146315    -0.774931909179     1.007825032230
         H            3.719520251050    -0.879193146315     0.976557090821     1.007825032230
         H           -3.594938748950     1.630430853685    -0.807199909179     1.007825032230
         H           -3.626157748950     1.507324853685     0.957432090821     1.007825032230
         H           -5.036174748950     0.998155853685     0.010112090821     1.007825032230
         H            3.623215251050     1.508042853685    -0.956170909179     1.007825032230
         H            3.591899251050     1.629372853685     0.808564090821     1.007825032230
         H            5.033209251050     0.997923853685    -0.009231909179     1.007825032230

  Basis Set: AUG-CC-PVTZ
    Blend: AUG-CC-PVTZ
  Basis Set: (AUG-CC-PVTZ AUX)
    Blend: AUG-CC-PVTZ-JKFIT
	 Reference Energy          =    -308.7621972396535170 [Eh]
	 Singles Energy            =      -0.0000000000000000 [Eh]
	 Same-Spin Energy          =      -0.3332986287685840 [Eh]
	 Opposite-Spin Energy      =      -1.1357482427841039 [Eh]
	 Correlation Energy        =      -1.4690468715526879 [Eh]
	 Total Energy              =    -310.2312441112061947 [Eh]

	 ================> DF-SCS-MP2 Energies <==================
	-----------------------------------------------------------
	 SCS Same-Spin Scale       =       0.3333333333333333 [-]
	 SCS Opposite-Spin Scale   =       1.2000000000000000 [-]
	 SCS Same-Spin Energy      =      -0.1110995429228613 [Eh]
	 SCS Opposite-Spin Energy  =      -1.3628978913409246 [Eh]
	 SCS Correlation Energy    =      -1.4739974342637860 [Eh]
	 SCS Total Energy          =    -310.2361946739172822 [Eh]
	-----------------------------------------------------------

  Dipole Moment: [D]
     X:     0.0007      Y:     0.2171      Z:    -0.0003     Total:     0.2171

*** Psi4 exiting successfully. Buy a developer a beer!
