                               Psi4 1.4a3.dev225

  ==> Input File <==

--------------------------------------------------------------------------
#psi4
#
memory 32 gb

molecule  {
0 1
  C       -3.3104600     0.6645600    -0.0001290
  C        3.3104610    -0.6645590    -0.0001300
  C       -4.1189600    -0.6381980     0.0003020
  C        4.1189570     0.6382020     0.0003020
  C       -1.8678680     0.4225120    -0.0001420
  C        1.8678690    -0.4225150    -0.0001410
  C       -0.6717070     0.1376470    -0.0001380
  C        0.6717080    -0.1376500    -0.0001380
  H       -3.5746830     1.2664600    -0.8780670
  H       -3.5745810     1.2669770     0.8774850
  H        3.5626402    -1.2390180    -0.8380437
  H        3.5745850    -1.2669760     0.8774840
  H       -3.8858290    -1.2341430     0.8855450
  H       -3.8859300    -1.2346660    -0.8846160
  H       -5.1908980    -0.4200070     0.0002980
  H        3.8859240     1.2346690    -0.8846160
  H        3.8858250     1.2341450     0.8855460
  H        5.1908960     0.4200140     0.0002970
units angstrom
no_reorient  #important for SAPT in psi4, default
symmetry c1  #important for SAPT in psi4, default
}

set PROPERTIES_ORIGIN ["COM"]
properties('MP2/aug-cc-pvtz', properties = ['dipole'])
--------------------------------------------------------------------------

    Molecular point group: c1
  Charge       = 0
  Multiplicity = 1
  Basis Set: AUG-CC-PVTZ
    Blend: AUG-CC-PVTZ
  Basis Set: (AUG-CC-PVTZ AUX)
    Blend: AUG-CC-PVTZ-JKFIT

    Orbital Energies [Eh]
    ---------------------

    Doubly Occupied:

       1A    -11.257598     2A    -11.251754     3A    -11.246501
       4A    -11.246262     5A    -11.242476     6A    -11.241428
       7A    -11.227403     8A    -11.227111     9A     -1.094041
      10A     -1.079799    11A     -1.031922    12A     -0.972846
      13A     -0.890383    14A     -0.869596    15A     -0.786456
      16A     -0.657864    17A     -0.646252    18A     -0.633574
      19A     -0.629389    20A     -0.556822    21A     -0.551821
      22A     -0.527389    23A     -0.525225    24A     -0.519079
      25A     -0.514939    26A     -0.451122    27A     -0.450547
      28A     -0.328655    29A     -0.328045

  @DF-RHF Final Energy:  -308.76072917299501

   => Energetics <=

    Nuclear Repulsion Energy =            288.2405785474243203
    One-Electron Energy =                -986.0300236031687291
    Two-Electron Energy =                 389.0287158827493954
    Total Energy =                       -308.7607291729950134
  Basis Set: (AUG-CC-PVTZ AUX)
    Blend: AUG-CC-PVTZ-RI
    Molecular point group: c1

    Geometry (in Angstrom), charge = 0, multiplicity = 1:

       Center              X                  Y                   Z               Mass
    ------------   -----------------  -----------------  -----------------  -----------------
         C           -3.310345508124     0.664299269490    -0.000497290106    12.000000000000
         C            3.310575491876    -0.664819730510    -0.000498290106    12.000000000000
         C           -4.118845508124    -0.638458730510    -0.000066290106    12.000000000000
         C            4.119071491876     0.637941269490    -0.000066290106    12.000000000000
         C           -1.867753508124     0.422251269490    -0.000510290106    12.000000000000
         C            1.867983491876    -0.422775730510    -0.000509290106    12.000000000000
         C           -0.671592508124     0.137386269490    -0.000506290106    12.000000000000
         C            0.671822491876    -0.137910730510    -0.000506290106    12.000000000000
         H           -3.574568508124     1.266199269490    -0.878435290106     1.007825032230
         H           -3.574466508124     1.266716269490     0.877116709894     1.007825032230
         H            3.562754691876    -1.239278730510    -0.838411990106     1.007825032230
         H            3.574699491876    -1.267236730510     0.877115709894     1.007825032230
         H           -3.885714508124    -1.234403730510     0.885176709894     1.007825032230
         H           -3.885815508124    -1.234926730510    -0.884984290106     1.007825032230
         H           -5.190783508124    -0.420267730510    -0.000070290106     1.007825032230
         H            3.886038491876     1.234408269490    -0.884984290106     1.007825032230
         H            3.885939491876     1.233884269490     0.885177709894     1.007825032230
         H            5.191010491876     0.419753269490    -0.000071290106     1.007825032230

  Basis Set: AUG-CC-PVTZ
    Blend: AUG-CC-PVTZ
  Basis Set: (AUG-CC-PVTZ AUX)
    Blend: AUG-CC-PVTZ-JKFIT
	 Reference Energy          =    -308.7607291729950134 [Eh]
	 Singles Energy            =      -0.0000000000000000 [Eh]
	 Same-Spin Energy          =      -0.3333668452464963 [Eh]
	 Opposite-Spin Energy      =      -1.1359985280827702 [Eh]
	 Correlation Energy        =      -1.4693653733292664 [Eh]
	 Total Energy              =    -310.2300945463242670 [Eh]

	 ================> DF-SCS-MP2 Energies <==================
	-----------------------------------------------------------
	 SCS Same-Spin Scale       =       0.3333333333333333 [-]
	 SCS Opposite-Spin Scale   =       1.2000000000000000 [-]
	 SCS Same-Spin Energy      =      -0.1111222817488321 [Eh]
	 SCS Opposite-Spin Energy  =      -1.3631982336993242 [Eh]
	 SCS Correlation Energy    =      -1.4743205154481562 [Eh]
	 SCS Total Energy          =    -310.2350496884431550 [Eh]
	-----------------------------------------------------------

  Dipole Moment: [D]
     X:     0.0139      Y:    -0.0153      Z:    -0.0096     Total:     0.0227

*** Psi4 exiting successfully. Buy a developer a beer!
