                               Psi4 1.3.2 release

  ==> Input File <==

--------------------------------------------------------------------------
#psi4
#
memory 32 gb

molecule  {
0 1
  C       -3.3721060    -0.3925950    -0.0575320
  C        3.3720920    -0.3929730     0.0571420
  C       -3.9043030     0.9326873     0.0255307
  C        3.9413990     1.0251120    -0.0302390
  C       -1.9110240    -0.4097670    -0.0329750
  C        1.9110920    -0.4103270     0.0325030
  C       -0.6837130    -0.4127480    -0.0120990
  C        0.6837810    -0.4128680     0.0116400
  H       -3.7516860    -0.9979840     0.7738320
  H       -3.7208300    -0.8759060    -0.9776160
  H        3.7518700    -0.9975380    -0.7747680
  H        3.7209340    -0.8772010     0.9767210
  H       -3.5935250     1.6324230    -0.8070360
  H       -3.6247440     1.5093170     0.9575960
  H       -5.0347610     1.0001480     0.0102760
  H        3.6246290     1.5100350    -0.9560070
  H        3.5933130     1.6313650     0.8087280
  H        5.0346230     0.9999160    -0.0090680
units angstrom
no_reorient  #important for SAPT in psi4, default
symmetry c1  #important for SAPT in psi4, default
}

set PROPERTIES_ORIGIN ["COM"]
properties('MP2/aug-cc-pvtz', properties = ['dipole'])
--------------------------------------------------------------------------

    Molecular point group: c1
  Charge       = 0
  Multiplicity = 1
  Basis Set: AUG-CC-PVTZ
    Blend: AUG-CC-PVTZ
  Basis Set: (AUG-CC-PVTZ AUX)
    Blend: AUG-CC-PVTZ-JKFIT

    Orbital Energies [Eh]
    ---------------------

    Doubly Occupied:

       1A    -11.257542     2A    -11.253622     3A    -11.246529
       4A    -11.246254     5A    -11.242429     6A    -11.241242
       7A    -11.231437     8A    -11.227484     9A     -1.103110
      10A     -1.085607    11A     -1.037344    12A     -0.975705
      13A     -0.886456    14A     -0.862228    15A     -0.787060
      16A     -0.660843    17A     -0.648864    18A     -0.635214
      19A     -0.630447    20A     -0.584332    21A     -0.555227
      22A     -0.526003    23A     -0.516979    24A     -0.504087
      25A     -0.494520    26A     -0.454524    27A     -0.450558
      28A     -0.330698    29A     -0.328817

  @DF-RHF Final Energy:  -308.75072021357346

   => Energetics <=

    Nuclear Repulsion Energy =            289.5247859906182839
    One-Electron Energy =                -988.5406914296269179
    Two-Electron Energy =                 390.2651852254351752
    Total Energy =                       -308.7507202135734588
  Basis Set: (AUG-CC-PVTZ AUX)
    Blend: AUG-CC-PVTZ-RI
    Molecular point group: c1

    Geometry (in Angstrom), charge = 0, multiplicity = 1:

       Center              X                  Y                   Z               Mass
    ------------   -----------------  -----------------  -----------------  -----------------
         C           -3.376314568803    -0.382115130648    -0.056875194285    12.000000000000
         C            3.367883431197    -0.382493130648     0.057798805715    12.000000000000
         C           -3.908511568803     0.943167169352     0.026187505715    12.000000000000
         C            3.937190431197     1.035591869352    -0.029582194285    12.000000000000
         C           -1.915232568803    -0.399287130648    -0.032318194285    12.000000000000
         C            1.906883431197    -0.399847130648     0.033159805715    12.000000000000
         C           -0.687921568803    -0.402268130648    -0.011442194285    12.000000000000
         C            0.679572431197    -0.402388130648     0.012296805715    12.000000000000
         H           -3.755894568803    -0.987504130648     0.774488805715     1.007825032230
         H           -3.725038568803    -0.865426130648    -0.976959194285     1.007825032230
         H            3.747661431197    -0.987058130648    -0.774111194285     1.007825032230
         H            3.716725431197    -0.866721130648     0.977377805715     1.007825032230
         H           -3.597733568803     1.642902869352    -0.806379194285     1.007825032230
         H           -3.628952568803     1.519796869352     0.958252805715     1.007825032230
         H           -5.038969568803     1.010627869352     0.010932805715     1.007825032230
         H            3.620420431197     1.520514869352    -0.955350194285     1.007825032230
         H            3.589104431197     1.641844869352     0.809384805715     1.007825032230
         H            5.030414431197     1.010395869352    -0.008411194285     1.007825032230

  Basis Set: AUG-CC-PVTZ
    Blend: AUG-CC-PVTZ
  Basis Set: (AUG-CC-PVTZ AUX)
    Blend: AUG-CC-PVTZ-JKFIT
	 Reference Energy          =    -308.7507202135734588 [Eh]
	 Singles Energy            =      -0.0000000000000000 [Eh]
	 Same-Spin Energy          =      -0.3341268392916898 [Eh]
	 Opposite-Spin Energy      =      -1.1369180853701204 [Eh]
	 Correlation Energy        =      -1.4710449246618102 [Eh]
	 Total Energy              =    -310.2217651382352415 [Eh]

	 ================> DF-SCS-MP2 Energies <==================
	-----------------------------------------------------------
	 SCS Same-Spin Scale       =       0.3333333333333333 [-]
	 SCS Opposite-Spin Scale   =       1.2000000000000000 [-]
	 SCS Same-Spin Energy      =      -0.1113756130972299 [Eh]
	 SCS Opposite-Spin Energy  =      -1.3643017024441444 [Eh]
	 SCS Correlation Energy    =      -1.4756773155413743 [Eh]
	 SCS Total Energy          =    -310.2263975291148199 [Eh]
	-----------------------------------------------------------

  Dipole Moment: [D]
     X:     0.0706      Y:     0.1930      Z:    -0.0010     Total:     0.2055

*** Psi4 exiting successfully. Buy a developer a beer!
