                               Psi4 1.4a3.dev225

  ==> Input File <==

--------------------------------------------------------------------------
#psi4
#
memory 32 gb

molecule  {
0 1
  C       -3.3104600     0.6645600    -0.0001290
  C        3.3104610    -0.6645590    -0.0001300
  C       -4.1084138    -0.6212046     0.0002964
  C        4.1189570     0.6382020     0.0003020
  C       -1.8678680     0.4225120    -0.0001420
  C        1.8678690    -0.4225150    -0.0001410
  C       -0.6717070     0.1376470    -0.0001380
  C        0.6717080    -0.1376500    -0.0001380
  H       -3.5746830     1.2664600    -0.8780670
  H       -3.5745810     1.2669770     0.8774850
  H        3.5746860    -1.2664580    -0.8780680
  H        3.5745850    -1.2669760     0.8774840
  H       -3.8858290    -1.2341430     0.8855450
  H       -3.8859300    -1.2346660    -0.8846160
  H       -5.1908980    -0.4200070     0.0002980
  H        3.8859240     1.2346690    -0.8846160
  H        3.8858250     1.2341450     0.8855460
  H        5.1908960     0.4200140     0.0002970
units angstrom
no_reorient  #important for SAPT in psi4, default
symmetry c1  #important for SAPT in psi4, default
}

set PROPERTIES_ORIGIN ["COM"]
properties('MP2/aug-cc-pvtz', properties = ['dipole'])
--------------------------------------------------------------------------

    Molecular point group: c1
  Charge       = 0
  Multiplicity = 1
  Basis Set: AUG-CC-PVTZ
    Blend: AUG-CC-PVTZ
  Basis Set: (AUG-CC-PVTZ AUX)
    Blend: AUG-CC-PVTZ-JKFIT

    Orbital Energies [Eh]
    ---------------------

    Doubly Occupied:

       1A    -11.257763     2A    -11.257066     3A    -11.246822
       4A    -11.246640     5A    -11.242831     6A    -11.241790
       7A    -11.228050     8A    -11.227534     9A     -1.094421
      10A     -1.080180    11A     -1.032349    12A     -0.973228
      13A     -0.888734    14A     -0.867256    15A     -0.785814
      16A     -0.656694    17A     -0.645529    18A     -0.630665
      19A     -0.629223    20A     -0.560748    21A     -0.553665
      22A     -0.525856    23A     -0.521930    24A     -0.517167
      25A     -0.511202    26A     -0.451567    27A     -0.450417
      28A     -0.329122    29A     -0.328134

  @DF-RHF Final Energy:  -308.76099609236201

   => Energetics <=

    Nuclear Repulsion Energy =            288.2469160293006212
    One-Electron Energy =                -986.0510312573817373
    Two-Electron Energy =                 389.0431191357191665
    Total Energy =                       -308.7609960923620065
  Basis Set: (AUG-CC-PVTZ AUX)
    Blend: AUG-CC-PVTZ-RI
    Molecular point group: c1

    Geometry (in Angstrom), charge = 0, multiplicity = 1:

       Center              X                  Y                   Z               Mass
    ------------   -----------------  -----------------  -----------------  -----------------
         C           -3.311652981224     0.662637608588    -0.000116394953    12.000000000000
         C            3.309268018776    -0.666481391412    -0.000117394953    12.000000000000
         C           -4.109606781224    -0.623126991412     0.000309005047    12.000000000000
         C            4.117764018776     0.636279608588     0.000314605047    12.000000000000
         C           -1.869060981224     0.420589608588    -0.000129394953    12.000000000000
         C            1.866676018776    -0.424437391412    -0.000128394953    12.000000000000
         C           -0.672899981224     0.135724608588    -0.000125394953    12.000000000000
         C            0.670515018776    -0.139572391412    -0.000125394953    12.000000000000
         H           -3.575875981224     1.264537608588    -0.878054394953     1.007825032230
         H           -3.575773981224     1.265054608588     0.877497605047     1.007825032230
         H            3.573493018776    -1.268380391412    -0.878055394953     1.007825032230
         H            3.573392018776    -1.268898391412     0.877496605047     1.007825032230
         H           -3.887021981224    -1.236065391412     0.885557605047     1.007825032230
         H           -3.887122981224    -1.236588391412    -0.884603394953     1.007825032230
         H           -5.192090981224    -0.421929391412     0.000310605047     1.007825032230
         H            3.884731018776     1.232746608588    -0.884603394953     1.007825032230
         H            3.884632018776     1.232222608588     0.885558605047     1.007825032230
         H            5.189703018776     0.418091608588     0.000309605047     1.007825032230

  Basis Set: AUG-CC-PVTZ
    Blend: AUG-CC-PVTZ
  Basis Set: (AUG-CC-PVTZ AUX)
    Blend: AUG-CC-PVTZ-JKFIT
	 Reference Energy          =    -308.7609960923620065 [Eh]
	 Singles Energy            =      -0.0000000000000000 [Eh]
	 Same-Spin Energy          =      -0.3335123319696095 [Eh]
	 Opposite-Spin Energy      =      -1.1364060326134919 [Eh]
	 Correlation Energy        =      -1.4699183645831013 [Eh]
	 Total Energy              =    -310.2309144569451291 [Eh]

	 ================> DF-SCS-MP2 Energies <==================
	-----------------------------------------------------------
	 SCS Same-Spin Scale       =       0.3333333333333333 [-]
	 SCS Opposite-Spin Scale   =       1.2000000000000000 [-]
	 SCS Same-Spin Energy      =      -0.1111707773232032 [Eh]
	 SCS Opposite-Spin Energy  =      -1.3636872391361903 [Eh]
	 SCS Correlation Energy    =      -1.4748580164593934 [Eh]
	 SCS Total Energy          =    -310.2358541088213997 [Eh]
	-----------------------------------------------------------

  Dipole Moment: [D]
     X:     0.0139      Y:     0.0034      Z:     0.0001     Total:     0.0143

*** Psi4 exiting successfully. Buy a developer a beer!
