                               Psi4 1.4a3.dev225

  ==> Input File <==

--------------------------------------------------------------------------
#psi4
#
memory 32 gb

molecule  {
0 1
  C       -3.3104600     0.6645600    -0.0001290
  C        3.3104610    -0.6645590    -0.0001300
  C       -4.1189600    -0.6381980     0.0003020
  C        4.1189570     0.6382020     0.0003020
  C       -1.8185573     0.4142383    -0.0001424
  C        1.8678690    -0.4225150    -0.0001410
  C       -0.6717070     0.1376470    -0.0001380
  C        0.6717080    -0.1376500    -0.0001380
  H       -3.5746830     1.2664600    -0.8780670
  H       -3.5745810     1.2669770     0.8774850
  H        3.5746860    -1.2664580    -0.8780680
  H        3.5745850    -1.2669760     0.8774840
  H       -3.8858290    -1.2341430     0.8855450
  H       -3.8859300    -1.2346660    -0.8846160
  H       -5.1908980    -0.4200070     0.0002980
  H        3.8859240     1.2346690    -0.8846160
  H        3.8858250     1.2341450     0.8855460
  H        5.1908960     0.4200140     0.0002970
units angstrom
no_reorient  #important for SAPT in psi4, default
symmetry c1  #important for SAPT in psi4, default
}

set PROPERTIES_ORIGIN ["COM"]
properties('MP2/aug-cc-pvtz', properties = ['dipole'])
--------------------------------------------------------------------------

    Molecular point group: c1
  Charge       = 0
  Multiplicity = 1
  Basis Set: AUG-CC-PVTZ
    Blend: AUG-CC-PVTZ
  Basis Set: (AUG-CC-PVTZ AUX)
    Blend: AUG-CC-PVTZ-JKFIT

    Orbital Energies [Eh]
    ---------------------

    Doubly Occupied:

       1A    -11.260898     2A    -11.257240     3A    -11.245460
       4A    -11.240660     5A    -11.233853     6A    -11.227863
       7A    -11.227200     8A    -11.226815     9A     -1.092976
      10A     -1.075119    11A     -1.032383    12A     -0.979007
      13A     -0.885582    14A     -0.865863    15A     -0.786546
      16A     -0.652476    17A     -0.640093    18A     -0.629381
      19A     -0.626406    20A     -0.555511    21A     -0.549075
      22A     -0.525652    23A     -0.522851    24A     -0.517711
      25A     -0.512912    26A     -0.456343    27A     -0.455634
      28A     -0.335363    29A     -0.334672

  @DF-RHF Final Energy:  -308.76401750562843

   => Energetics <=

    Nuclear Repulsion Energy =            288.3071271596072620
    One-Electron Energy =                -986.2391966568526414
    Two-Electron Energy =                 389.1680519916169487
    Total Energy =                       -308.7640175056284306
  Basis Set: (AUG-CC-PVTZ AUX)
    Blend: AUG-CC-PVTZ-RI
    Molecular point group: c1

    Geometry (in Angstrom), charge = 0, multiplicity = 1:

       Center              X                  Y                   Z               Mass
    ------------   -----------------  -----------------  -----------------  -----------------
         C           -3.316038177987     0.665495924964    -0.000116983198    12.000000000000
         C            3.304882822013    -0.663623075036    -0.000117983198    12.000000000000
         C           -4.124538177987    -0.637262075036     0.000314016802    12.000000000000
         C            4.113378822013     0.639137924964     0.000314016802    12.000000000000
         C           -1.824135477987     0.415174224964    -0.000130383198    12.000000000000
         C            1.862290822013    -0.421579075036    -0.000128983198    12.000000000000
         C           -0.677285177987     0.138582924964    -0.000125983198    12.000000000000
         C            0.666129822013    -0.136714075036    -0.000125983198    12.000000000000
         H           -3.580261177987     1.267395924964    -0.878054983198     1.007825032230
         H           -3.580159177987     1.267912924964     0.877497016802     1.007825032230
         H            3.569107822013    -1.265522075036    -0.878055983198     1.007825032230
         H            3.569006822013    -1.266040075036     0.877496016802     1.007825032230
         H           -3.891407177987    -1.233207075036     0.885557016802     1.007825032230
         H           -3.891508177987    -1.233730075036    -0.884603983198     1.007825032230
         H           -5.196476177987    -0.419071075036     0.000310016802     1.007825032230
         H            3.880345822013     1.235604924964    -0.884603983198     1.007825032230
         H            3.880246822013     1.235080924964     0.885558016802     1.007825032230
         H            5.185317822013     0.420949924964     0.000309016802     1.007825032230

  Basis Set: AUG-CC-PVTZ
    Blend: AUG-CC-PVTZ
  Basis Set: (AUG-CC-PVTZ AUX)
    Blend: AUG-CC-PVTZ-JKFIT
	 Reference Energy          =    -308.7640175056284306 [Eh]
	 Singles Energy            =      -0.0000000000000000 [Eh]
	 Same-Spin Energy          =      -0.3304481374743488 [Eh]
	 Opposite-Spin Energy      =      -1.1317735953003181 [Eh]
	 Correlation Energy        =      -1.4622217327746667 [Eh]
	 Total Energy              =    -310.2262392384030818 [Eh]

	 ================> DF-SCS-MP2 Energies <==================
	-----------------------------------------------------------
	 SCS Same-Spin Scale       =       0.3333333333333333 [-]
	 SCS Opposite-Spin Scale   =       1.2000000000000000 [-]
	 SCS Same-Spin Energy      =      -0.1101493791581162 [Eh]
	 SCS Opposite-Spin Energy  =      -1.3581283143603817 [Eh]
	 SCS Correlation Energy    =      -1.4682776935184980 [Eh]
	 SCS Total Energy          =    -310.2322951991469040 [Eh]
	-----------------------------------------------------------

  Dipole Moment: [D]
     X:     0.0038      Y:    -0.0071      Z:     0.0001     Total:     0.0080

*** Psi4 exiting successfully. Buy a developer a beer!
