                               Psi4 1.3.2 release

  ==> Input File <==

--------------------------------------------------------------------------
#psi4
#
memory 32 gb

molecule  {
0 1
  C       -3.3721060    -0.3925950    -0.0575320
  C        3.3720920    -0.3929730     0.0571420
  C       -3.9415050     1.0253280     0.0313370
  C        3.9413990     1.0251120    -0.0302390
  C       -2.1109820    -0.4074169    -0.0363358
  C        1.9110920    -0.4103270     0.0325030
  C       -0.6837130    -0.4127480    -0.0120990
  C        0.6837810    -0.4128680     0.0116400
  H       -3.7516860    -0.9979840     0.7738320
  H       -3.7208300    -0.8759060    -0.9776160
  H        3.7518700    -0.9975380    -0.7747680
  H        3.7209340    -0.8772010     0.9767210
  H       -3.5935250     1.6324230    -0.8070360
  H       -3.6247440     1.5093170     0.9575960
  H       -5.0347610     1.0001480     0.0102760
  H        3.6246290     1.5100350    -0.9560070
  H        3.5933130     1.6313650     0.8087280
  H        5.0346230     0.9999160    -0.0090680
units angstrom
no_reorient  #important for SAPT in psi4, default
symmetry c1  #important for SAPT in psi4, default
}

set PROPERTIES_ORIGIN ["COM"]
properties('MP2/aug-cc-pvtz', properties = ['dipole'])
--------------------------------------------------------------------------

    Molecular point group: c1
  Charge       = 0
  Multiplicity = 1
  Basis Set: AUG-CC-PVTZ
    Blend: AUG-CC-PVTZ
  Basis Set: (AUG-CC-PVTZ AUX)
    Blend: AUG-CC-PVTZ-JKFIT

    Orbital Energies [Eh]
    ---------------------

    Doubly Occupied:

       1A    -11.287139     2A    -11.285461     3A    -11.256442
       4A    -11.246541     5A    -11.245796     6A    -11.243278
       7A    -11.234611     8A    -11.226288     9A     -1.136829
      10A     -1.086122    11A     -1.026006    12A     -0.951232
      13A     -0.909827    14A     -0.863475    15A     -0.770890
      16A     -0.678977    17A     -0.652410    18A     -0.648883
      19A     -0.629188    20A     -0.577492    21A     -0.553873
      22A     -0.537726    23A     -0.529271    24A     -0.524710
      25A     -0.515122    26A     -0.436488    27A     -0.436354
      28A     -0.296115    29A     -0.295113

  @DF-RHF Final Energy:  -308.64429693142449

   => Energetics <=

    Nuclear Repulsion Energy =            288.1031401761550228
    One-Electron Energy =                -985.3315636897870036
    Two-Electron Energy =                 388.5841265822074320
    Total Energy =                       -308.6442969314244920
  Basis Set: (AUG-CC-PVTZ AUX)
    Blend: AUG-CC-PVTZ-RI
    Molecular point group: c1

    Geometry (in Angstrom), charge = 0, multiplicity = 1:

       Center              X                  Y                   Z               Mass
    ------------   -----------------  -----------------  -----------------  -----------------
         C           -3.349486071996    -0.392860873498    -0.057151839119    12.000000000000
         C            3.394711928004    -0.393238873498     0.057522160881    12.000000000000
         C           -3.918885071996     1.025062126502     0.031717160881    12.000000000000
         C            3.964018928004     1.024846126502    -0.029858839119    12.000000000000
         C           -2.088362071996    -0.407682773498    -0.035955639119    12.000000000000
         C            1.933711928004    -0.410592873498     0.032883160881    12.000000000000
         C           -0.661093071996    -0.413013873498    -0.011718839119    12.000000000000
         C            0.706400928004    -0.413133873498     0.012020160881    12.000000000000
         H           -3.729066071996    -0.998249873498     0.774212160881     1.007825032230
         H           -3.698210071996    -0.876171873498    -0.977235839119     1.007825032230
         H            3.774489928004    -0.997803873498    -0.774387839119     1.007825032230
         H            3.743553928004    -0.877466873498     0.977101160881     1.007825032230
         H           -3.570905071996     1.632157126502    -0.806655839119     1.007825032230
         H           -3.602124071996     1.509051126502     0.957976160881     1.007825032230
         H           -5.012141071996     0.999882126502     0.010656160881     1.007825032230
         H            3.647248928004     1.509769126502    -0.955626839119     1.007825032230
         H            3.615932928004     1.631099126502     0.809108160881     1.007825032230
         H            5.057242928004     0.999650126502    -0.008687839119     1.007825032230

  Basis Set: AUG-CC-PVTZ
    Blend: AUG-CC-PVTZ
  Basis Set: (AUG-CC-PVTZ AUX)
    Blend: AUG-CC-PVTZ-JKFIT
	 Reference Energy          =    -308.6442969314244920 [Eh]
	 Singles Energy            =      -0.0000000000000000 [Eh]
	 Same-Spin Energy          =      -0.3484002688284336 [Eh]
	 Opposite-Spin Energy      =      -1.1593178531555248 [Eh]
	 Correlation Energy        =      -1.5077181219839584 [Eh]
	 Total Energy              =    -310.1520150534084337 [Eh]

	 ================> DF-SCS-MP2 Energies <==================
	-----------------------------------------------------------
	 SCS Same-Spin Scale       =       0.3333333333333333 [-]
	 SCS Opposite-Spin Scale   =       1.2000000000000000 [-]
	 SCS Same-Spin Energy      =      -0.1161334229428112 [Eh]
	 SCS Opposite-Spin Energy  =      -1.3911814237866298 [Eh]
	 SCS Correlation Energy    =      -1.5073148467294410 [Eh]
	 SCS Total Energy          =    -310.1516117781539492 [Eh]
	-----------------------------------------------------------

  Dipole Moment: [D]
     X:    -0.2919      Y:     0.2316      Z:    -0.0042     Total:     0.3727

*** Psi4 exiting successfully. Buy a developer a beer!
