                               Psi4 1.3.2 release

  ==> Input File <==

--------------------------------------------------------------------------
#psi4
#
memory 32 gb

molecule  {
0 1
  C       -3.3721060    -0.3925950    -0.0575320
  C        3.3720920    -0.3929730     0.0571420
  C       -3.9415050     1.0253280     0.0313370
  C        3.9413990     1.0251120    -0.0302390
  C       -1.9114837    -0.3977622    -0.0104758
  C        1.9110920    -0.4103270     0.0325030
  C       -0.6837130    -0.4127480    -0.0120990
  C        0.6837810    -0.4128680     0.0116400
  H       -3.7516860    -0.9979840     0.7738320
  H       -3.7389118    -0.8726762    -0.9722604
  H        3.7518700    -0.9975380    -0.7747680
  H        3.7209340    -0.8772010     0.9767210
  H       -3.5935250     1.6324230    -0.8070360
  H       -3.6247440     1.5093170     0.9575960
  H       -5.0347610     1.0001480     0.0102760
  H        3.6246290     1.5100350    -0.9560070
  H        3.5933130     1.6313650     0.8087280
  H        5.0346230     0.9999160    -0.0090680
units angstrom
no_reorient  #important for SAPT in psi4, default
symmetry c1  #important for SAPT in psi4, default
}

set PROPERTIES_ORIGIN ["COM"]
properties('MP2/aug-cc-pvtz', properties = ['dipole'])
--------------------------------------------------------------------------

    Molecular point group: c1
  Charge       = 0
  Multiplicity = 1
  Basis Set: AUG-CC-PVTZ
    Blend: AUG-CC-PVTZ
  Basis Set: (AUG-CC-PVTZ AUX)
    Blend: AUG-CC-PVTZ-JKFIT

    Orbital Energies [Eh]
    ---------------------

    Doubly Occupied:

       1A    -11.257215     2A    -11.257026     3A    -11.246059
       4A    -11.245871     5A    -11.241814     6A    -11.240705
       7A    -11.227221     8A    -11.226742     9A     -1.094119
      10A     -1.079407    11A     -1.032591    12A     -0.973859
      13A     -0.889593    14A     -0.867680    15A     -0.786488
      16A     -0.657831    17A     -0.647446    18A     -0.630575
      19A     -0.629035    20A     -0.555818    21A     -0.552917
      22A     -0.525790    23A     -0.525634    24A     -0.518164
      25A     -0.513779    26A     -0.451759    27A     -0.451001
      28A     -0.328890    29A     -0.328144

  @DF-RHF Final Energy:  -308.76211530082480

   => Energetics <=

    Nuclear Repulsion Energy =            288.3475383113709540
    One-Electron Energy =                -986.2529577390706663
    Two-Electron Energy =                 389.1433041268749093
    Total Energy =                       -308.7621153008248029
  Basis Set: (AUG-CC-PVTZ AUX)
    Blend: AUG-CC-PVTZ-RI
    Molecular point group: c1

    Geometry (in Angstrom), charge = 0, multiplicity = 1:

       Center              X                  Y                   Z               Mass
    ------------   -----------------  -----------------  -----------------  -----------------
         C           -3.371882334210    -0.393983737732    -0.060128109060    12.000000000000
         C            3.372315665790    -0.394361737732     0.054545890940    12.000000000000
         C           -3.941281334210     1.023939262268     0.028740890940    12.000000000000
         C            3.941622665790     1.023723262268    -0.032835109060    12.000000000000
         C           -1.911260034210    -0.399150937732    -0.013071909060    12.000000000000
         C            1.911315665790    -0.411715737732     0.029906890940    12.000000000000
         C           -0.683489334210    -0.414136737732    -0.014695109060    12.000000000000
         C            0.684004665790    -0.414256737732     0.009043890940    12.000000000000
         H           -3.751462334210    -0.999372737732     0.771235890940     1.007825032230
         H           -3.738688134210    -0.874064937732    -0.974856509060     1.007825032230
         H            3.752093665790    -0.998926737732    -0.777364109060     1.007825032230
         H            3.721157665790    -0.878589737732     0.974124890940     1.007825032230
         H           -3.593301334210     1.631034262268    -0.809632109060     1.007825032230
         H           -3.624520334210     1.507928262268     0.954999890940     1.007825032230
         H           -5.034537334210     0.998759262268     0.007679890940     1.007825032230
         H            3.624852665790     1.508646262268    -0.958603109060     1.007825032230
         H            3.593536665790     1.629976262268     0.806131890940     1.007825032230
         H            5.034846665790     0.998527262268    -0.011664109060     1.007825032230

  Basis Set: AUG-CC-PVTZ
    Blend: AUG-CC-PVTZ
  Basis Set: (AUG-CC-PVTZ AUX)
    Blend: AUG-CC-PVTZ-JKFIT
	 Reference Energy          =    -308.7621153008248029 [Eh]
	 Singles Energy            =      -0.0000000000000000 [Eh]
	 Same-Spin Energy          =      -0.3333281299805080 [Eh]
	 Opposite-Spin Energy      =      -1.1358052513882240 [Eh]
	 Correlation Energy        =      -1.4691333813687319 [Eh]
	 Total Energy              =    -310.2312486821935522 [Eh]

	 ================> DF-SCS-MP2 Energies <==================
	-----------------------------------------------------------
	 SCS Same-Spin Scale       =       0.3333333333333333 [-]
	 SCS Opposite-Spin Scale   =       1.2000000000000000 [-]
	 SCS Same-Spin Energy      =      -0.1111093766601693 [Eh]
	 SCS Opposite-Spin Energy  =      -1.3629663016658686 [Eh]
	 SCS Correlation Energy    =      -1.4740756783260380 [Eh]
	 SCS Total Energy          =    -310.2361909791508197 [Eh]
	-----------------------------------------------------------

  Dipole Moment: [D]
     X:     0.0141      Y:     0.2142      Z:    -0.0129     Total:     0.2150

*** Psi4 exiting successfully. Buy a developer a beer!
