                               Psi4 1.4a3.dev225

  ==> Input File <==

--------------------------------------------------------------------------
#psi4
#
memory 32 gb

molecule  {
0 1
  C       -3.3104600     0.6645600    -0.0001290
  C        3.3104610    -0.6645590    -0.0001300
  C       -4.1189600    -0.6381980     0.0003020
  C        4.1189570     0.6382020     0.0003020
  C       -1.8678680     0.4225120    -0.0001420
  C        1.8678690    -0.4225150    -0.0001410
  C       -0.6717070     0.1376470    -0.0001380
  C        0.6717080    -0.1376500    -0.0001380
  H       -3.5746830     1.2664600    -0.8780670
  H       -3.5625400     1.2395134     0.8374754
  H        3.5746860    -1.2664580    -0.8780680
  H        3.5745850    -1.2669760     0.8774840
  H       -3.8858290    -1.2341430     0.8855450
  H       -3.8859300    -1.2346660    -0.8846160
  H       -5.1908980    -0.4200070     0.0002980
  H        3.8859240     1.2346690    -0.8846160
  H        3.8858250     1.2341450     0.8855460
  H        5.1908960     0.4200140     0.0002970
units angstrom
no_reorient  #important for SAPT in psi4, default
symmetry c1  #important for SAPT in psi4, default
}

set PROPERTIES_ORIGIN ["COM"]
properties('MP2/aug-cc-pvtz', properties = ['dipole'])
--------------------------------------------------------------------------

    Molecular point group: c1
  Charge       = 0
  Multiplicity = 1
  Basis Set: AUG-CC-PVTZ
    Blend: AUG-CC-PVTZ
  Basis Set: (AUG-CC-PVTZ AUX)
    Blend: AUG-CC-PVTZ-JKFIT

    Orbital Energies [Eh]
    ---------------------

    Doubly Occupied:

       1A    -11.257598     2A    -11.251754     3A    -11.246501
       4A    -11.246262     5A    -11.242476     6A    -11.241428
       7A    -11.227403     8A    -11.227111     9A     -1.094041
      10A     -1.079799    11A     -1.031922    12A     -0.972846
      13A     -0.890383    14A     -0.869596    15A     -0.786456
      16A     -0.657864    17A     -0.646252    18A     -0.633574
      19A     -0.629389    20A     -0.556822    21A     -0.551821
      22A     -0.527389    23A     -0.525225    24A     -0.519079
      25A     -0.514938    26A     -0.451123    27A     -0.450547
      28A     -0.328655    29A     -0.328045

  @DF-RHF Final Energy:  -308.76072917293368

   => Energetics <=

    Nuclear Repulsion Energy =            288.2405781080875613
    One-Electron Energy =                -986.0300227144814471
    Two-Electron Energy =                 389.0287154334602064
    Total Energy =                       -308.7607291729336794
  Basis Set: (AUG-CC-PVTZ AUX)
    Blend: AUG-CC-PVTZ-RI
    Molecular point group: c1

    Geometry (in Angstrom), charge = 0, multiplicity = 1:

       Center              X                  Y                   Z               Mass
    ------------   -----------------  -----------------  -----------------  -----------------
         C           -3.310574351265     0.664820895953     0.000263093550    12.000000000000
         C            3.310346648735    -0.664298104047     0.000262093550    12.000000000000
         C           -4.119074351265    -0.637937104047     0.000694093550    12.000000000000
         C            4.118842648735     0.638462895953     0.000694093550    12.000000000000
         C           -1.867982351265     0.422772895953     0.000250093550    12.000000000000
         C            1.867754648735    -0.422254104047     0.000251093550    12.000000000000
         C           -0.671821351265     0.137907895953     0.000254093550    12.000000000000
         C            0.671593648735    -0.137389104047     0.000254093550    12.000000000000
         H           -3.574797351265     1.266720895953    -0.877674906450     1.007825032230
         H           -3.562654351265     1.239774295953     0.837867493550     1.007825032230
         H            3.574571648735    -1.266197104047    -0.877675906450     1.007825032230
         H            3.574470648735    -1.266715104047     0.877876093550     1.007825032230
         H           -3.885943351265    -1.233882104047     0.885937093550     1.007825032230
         H           -3.886044351265    -1.234405104047    -0.884223906450     1.007825032230
         H           -5.191012351265    -0.419746104047     0.000690093550     1.007825032230
         H            3.885809648735     1.234929895953    -0.884223906450     1.007825032230
         H            3.885710648735     1.234405895953     0.885938093550     1.007825032230
         H            5.190781648735     0.420274895953     0.000689093550     1.007825032230

  Basis Set: AUG-CC-PVTZ
    Blend: AUG-CC-PVTZ
  Basis Set: (AUG-CC-PVTZ AUX)
    Blend: AUG-CC-PVTZ-JKFIT
	 Reference Energy          =    -308.7607291729336794 [Eh]
	 Singles Energy            =      -0.0000000000000000 [Eh]
	 Same-Spin Energy          =      -0.3333668472200211 [Eh]
	 Opposite-Spin Energy      =      -1.1359985398858750 [Eh]
	 Correlation Energy        =      -1.4693653871058960 [Eh]
	 Total Energy              =    -310.2300945600395607 [Eh]

	 ================> DF-SCS-MP2 Energies <==================
	-----------------------------------------------------------
	 SCS Same-Spin Scale       =       0.3333333333333333 [-]
	 SCS Opposite-Spin Scale   =       1.2000000000000000 [-]
	 SCS Same-Spin Energy      =      -0.1111222824066737 [Eh]
	 SCS Opposite-Spin Energy  =      -1.3631982478630500 [Eh]
	 SCS Correlation Energy    =      -1.4743205302697238 [Eh]
	 SCS Total Energy          =    -310.2350497032034014 [Eh]
	-----------------------------------------------------------

  Dipole Moment: [D]
     X:    -0.0139      Y:     0.0153      Z:     0.0097     Total:     0.0228

*** Psi4 exiting successfully. Buy a developer a beer!
