                               Psi4 1.4a3.dev225

  ==> Input File <==

--------------------------------------------------------------------------
#psi4
#
memory 32 gb

molecule  {
0 1
  C       -3.3104600     0.6645600    -0.0001290
  C        3.3104610    -0.6645590    -0.0001300
  C       -4.1189600    -0.6381980     0.0003020
  C        4.1084108     0.6212085     0.0002964
  C       -1.8678680     0.4225120    -0.0001420
  C        1.8678690    -0.4225150    -0.0001410
  C       -0.6717070     0.1376470    -0.0001380
  C        0.6717080    -0.1376500    -0.0001380
  H       -3.5746830     1.2664600    -0.8780670
  H       -3.5745810     1.2669770     0.8774850
  H        3.5746860    -1.2664580    -0.8780680
  H        3.5745850    -1.2669760     0.8774840
  H       -3.8858290    -1.2341430     0.8855450
  H       -3.8859300    -1.2346660    -0.8846160
  H       -5.1908980    -0.4200070     0.0002980
  H        3.8859240     1.2346690    -0.8846160
  H        3.8858250     1.2341450     0.8855460
  H        5.1908960     0.4200140     0.0002970
units angstrom
no_reorient  #important for SAPT in psi4, default
symmetry c1  #important for SAPT in psi4, default
}

set PROPERTIES_ORIGIN ["COM"]
properties('MP2/aug-cc-pvtz', properties = ['dipole'])
--------------------------------------------------------------------------

    Molecular point group: c1
  Charge       = 0
  Multiplicity = 1
  Basis Set: AUG-CC-PVTZ
    Blend: AUG-CC-PVTZ
  Basis Set: (AUG-CC-PVTZ AUX)
    Blend: AUG-CC-PVTZ-JKFIT

    Orbital Energies [Eh]
    ---------------------

    Doubly Occupied:

       1A    -11.257763     2A    -11.257066     3A    -11.246822
       4A    -11.246640     5A    -11.242831     6A    -11.241790
       7A    -11.228050     8A    -11.227534     9A     -1.094421
      10A     -1.080180    11A     -1.032349    12A     -0.973228
      13A     -0.888734    14A     -0.867256    15A     -0.785814
      16A     -0.656694    17A     -0.645529    18A     -0.630665
      19A     -0.629223    20A     -0.560748    21A     -0.553665
      22A     -0.525856    23A     -0.521930    24A     -0.517167
      25A     -0.511202    26A     -0.451567    27A     -0.450417
      28A     -0.329122    29A     -0.328134

  @DF-RHF Final Energy:  -308.76099609345408

   => Energetics <=

    Nuclear Repulsion Energy =            288.2469170318623242
    One-Electron Energy =                -986.0510332414097547
    Two-Electron Energy =                 389.0431201160932915
    Total Energy =                       -308.7609960934540823
  Basis Set: (AUG-CC-PVTZ AUX)
    Blend: AUG-CC-PVTZ-RI
    Molecular point group: c1

    Geometry (in Angstrom), charge = 0, multiplicity = 1:

       Center              X                  Y                   Z               Mass
    ------------   -----------------  -----------------  -----------------  -----------------
         C           -3.309266923769     0.666482343949    -0.000116394953    12.000000000000
         C            3.311654076231    -0.662636656051    -0.000117394953    12.000000000000
         C           -4.117766923769    -0.636275656051     0.000314605047    12.000000000000
         C            4.109603876231     0.623130843949     0.000309005047    12.000000000000
         C           -1.866674923769     0.424434343949    -0.000129394953    12.000000000000
         C            1.869062076231    -0.420592656051    -0.000128394953    12.000000000000
         C           -0.670513923769     0.139569343949    -0.000125394953    12.000000000000
         C            0.672901076231    -0.135727656051    -0.000125394953    12.000000000000
         H           -3.573489923769     1.268382343949    -0.878054394953     1.007825032230
         H           -3.573387923769     1.268899343949     0.877497605047     1.007825032230
         H            3.575879076231    -1.264535656051    -0.878055394953     1.007825032230
         H            3.575778076231    -1.265053656051     0.877496605047     1.007825032230
         H           -3.884635923769    -1.232220656051     0.885557605047     1.007825032230
         H           -3.884736923769    -1.232743656051    -0.884603394953     1.007825032230
         H           -5.189704923769    -0.418084656051     0.000310605047     1.007825032230
         H            3.887117076231     1.236591343949    -0.884603394953     1.007825032230
         H            3.887018076231     1.236067343949     0.885558605047     1.007825032230
         H            5.192089076231     0.421936343949     0.000309605047     1.007825032230

  Basis Set: AUG-CC-PVTZ
    Blend: AUG-CC-PVTZ
  Basis Set: (AUG-CC-PVTZ AUX)
    Blend: AUG-CC-PVTZ-JKFIT
	 Reference Energy          =    -308.7609960934540823 [Eh]
	 Singles Energy            =      -0.0000000000000000 [Eh]
	 Same-Spin Energy          =      -0.3335123317682647 [Eh]
	 Opposite-Spin Energy      =      -1.1364060314726521 [Eh]
	 Correlation Energy        =      -1.4699183632409167 [Eh]
	 Total Energy              =    -310.2309144566950181 [Eh]

	 ================> DF-SCS-MP2 Energies <==================
	-----------------------------------------------------------
	 SCS Same-Spin Scale       =       0.3333333333333333 [-]
	 SCS Opposite-Spin Scale   =       1.2000000000000000 [-]
	 SCS Same-Spin Energy      =      -0.1111707772560882 [Eh]
	 SCS Opposite-Spin Energy  =      -1.3636872377671825 [Eh]
	 SCS Correlation Energy    =      -1.4748580150232706 [Eh]
	 SCS Total Energy          =    -310.2358541084773265 [Eh]
	-----------------------------------------------------------

  Dipole Moment: [D]
     X:    -0.0139      Y:    -0.0034      Z:     0.0001     Total:     0.0143

*** Psi4 exiting successfully. Buy a developer a beer!
