                               Psi4 1.3.2 release

  ==> Input File <==

--------------------------------------------------------------------------
#psi4
#
memory 32 gb

molecule  {
0 1
  C       -3.3785427    -0.3958220    -0.0462823
  C        3.3720920    -0.3929730     0.0571420
  C       -3.9415050     1.0253280     0.0313370
  C        3.9413990     1.0251120    -0.0302390
  C       -1.9110240    -0.4097670    -0.0329750
  C        1.9110920    -0.4103270     0.0325030
  C       -0.6837130    -0.4127480    -0.0120990
  C        0.6837810    -0.4128680     0.0116400
  H       -3.7516860    -0.9979840     0.7738320
  H       -3.7208300    -0.8759060    -0.9776160
  H        3.7518700    -0.9975380    -0.7747680
  H        3.7209340    -0.8772010     0.9767210
  H       -3.5984673     1.6398398    -0.8036625
  H       -3.6247440     1.5093170     0.9575960
  H       -5.0347610     1.0001480     0.0102760
  H        3.6246290     1.5100350    -0.9560070
  H        3.5933130     1.6313650     0.8087280
  H        5.0346230     0.9999160    -0.0090680
units angstrom
no_reorient  #important for SAPT in psi4, default
symmetry c1  #important for SAPT in psi4, default
}

set PROPERTIES_ORIGIN ["COM"]
properties('MP2/aug-cc-pvtz', properties = ['dipole'])
--------------------------------------------------------------------------

    Molecular point group: c1
  Charge       = 0
  Multiplicity = 1
  Basis Set: AUG-CC-PVTZ
    Blend: AUG-CC-PVTZ
  Basis Set: (AUG-CC-PVTZ AUX)
    Blend: AUG-CC-PVTZ-JKFIT

    Orbital Energies [Eh]
    ---------------------

    Doubly Occupied:

       1A    -11.257342     2A    -11.257044     3A    -11.245800
       4A    -11.245575     5A    -11.241404     6A    -11.240313
       7A    -11.227148     8A    -11.227106     9A     -1.093671
      10A     -1.078959    11A     -1.032416    12A     -0.973706
      13A     -0.889728    14A     -0.868065    15A     -0.786319
      16A     -0.656177    17A     -0.646061    18A     -0.631054
      19A     -0.629660    20A     -0.555902    21A     -0.553208
      22A     -0.526165    23A     -0.525491    24A     -0.518382
      25A     -0.514203    26A     -0.451872    27A     -0.450945
      28A     -0.328858    29A     -0.327930

  @DF-RHF Final Energy:  -308.76242973083890

   => Energetics <=

    Nuclear Repulsion Energy =            288.2511604651891162
    One-Electron Energy =                -986.0661744500231407
    Two-Electron Energy =                 389.0525842539950645
    Total Energy =                       -308.7624297308389032
  Basis Set: (AUG-CC-PVTZ AUX)
    Blend: AUG-CC-PVTZ-RI
    Molecular point group: c1

    Geometry (in Angstrom), charge = 0, multiplicity = 1:

       Center              X                  Y                   Z               Mass
    ------------   -----------------  -----------------  -----------------  -----------------
         C           -3.377767727200    -0.395527434736    -0.047586988720    12.000000000000
         C            3.372866972800    -0.392678434736     0.055837311280    12.000000000000
         C           -3.940730027200     1.025622565264     0.030032311280    12.000000000000
         C            3.942173972800     1.025406565264    -0.031543688720    12.000000000000
         C           -1.910249027200    -0.409472434736    -0.034279688720    12.000000000000
         C            1.911866972800    -0.410032434736     0.031198311280    12.000000000000
         C           -0.682938027200    -0.412453434736    -0.013403688720    12.000000000000
         C            0.684555972800    -0.412573434736     0.010335311280    12.000000000000
         H           -3.750911027200    -0.997689434736     0.772527311280     1.007825032230
         H           -3.720055027200    -0.875611434736    -0.978920688720     1.007825032230
         H            3.752644972800    -0.997243434736    -0.776072688720     1.007825032230
         H            3.721708972800    -0.876906434736     0.975416311280     1.007825032230
         H           -3.597692327200     1.640134365264    -0.804967188720     1.007825032230
         H           -3.623969027200     1.509611565264     0.956291311280     1.007825032230
         H           -5.033986027200     1.000442565264     0.008971311280     1.007825032230
         H            3.625403972800     1.510329565264    -0.957311688720     1.007825032230
         H            3.594087972800     1.631659565264     0.807423311280     1.007825032230
         H            5.035397972800     1.000210565264    -0.010372688720     1.007825032230

  Basis Set: AUG-CC-PVTZ
    Blend: AUG-CC-PVTZ
  Basis Set: (AUG-CC-PVTZ AUX)
    Blend: AUG-CC-PVTZ-JKFIT
	 Reference Energy          =    -308.7624297308389032 [Eh]
	 Singles Energy            =      -0.0000000000000000 [Eh]
	 Same-Spin Energy          =      -0.3331860831548402 [Eh]
	 Opposite-Spin Energy      =      -1.1356528482993351 [Eh]
	 Correlation Energy        =      -1.4688389314541752 [Eh]
	 Total Energy              =    -310.2312686622930755 [Eh]

	 ================> DF-SCS-MP2 Energies <==================
	-----------------------------------------------------------
	 SCS Same-Spin Scale       =       0.3333333333333333 [-]
	 SCS Opposite-Spin Scale   =       1.2000000000000000 [-]
	 SCS Same-Spin Energy      =      -0.1110620277182801 [Eh]
	 SCS Opposite-Spin Energy  =      -1.3627834179592020 [Eh]
	 SCS Correlation Energy    =      -1.4738454456774821 [Eh]
	 SCS Total Energy          =    -310.2362751765163580 [Eh]
	-----------------------------------------------------------

  Dipole Moment: [D]
     X:    -0.0088      Y:     0.2262      Z:     0.0078     Total:     0.2265

*** Psi4 exiting successfully. Buy a developer a beer!
