                               Psi4 1.4a3.dev225

  ==> Input File <==

--------------------------------------------------------------------------
#psi4
#
memory 32 gb

molecule  {
0 1
  C       -3.3104600     0.6645600    -0.0001290
  C        3.3104610    -0.6645590    -0.0001300
  C       -4.1189600    -0.6381980     0.0003020
  C        4.0925915     0.5957183     0.0002879
  C       -1.8678680     0.4225120    -0.0001420
  C        1.8678690    -0.4225150    -0.0001410
  C       -0.6717070     0.1376470    -0.0001380
  C        0.6717080    -0.1376500    -0.0001380
  H       -3.5746830     1.2664600    -0.8780670
  H       -3.5745810     1.2669770     0.8774850
  H        3.5746860    -1.2664580    -0.8780680
  H        3.5745850    -1.2669760     0.8774840
  H       -3.8858290    -1.2341430     0.8855450
  H       -3.8859300    -1.2346660    -0.8846160
  H       -5.1908980    -0.4200070     0.0002980
  H        3.8859240     1.2346690    -0.8846160
  H        3.8858250     1.2341450     0.8855460
  H        5.1908960     0.4200140     0.0002970
units angstrom
no_reorient  #important for SAPT in psi4, default
symmetry c1  #important for SAPT in psi4, default
}

set PROPERTIES_ORIGIN ["COM"]
properties('MP2/aug-cc-pvtz', properties = ['dipole'])
--------------------------------------------------------------------------

    Molecular point group: c1
  Charge       = 0
  Multiplicity = 1
  Basis Set: AUG-CC-PVTZ
    Blend: AUG-CC-PVTZ
  Basis Set: (AUG-CC-PVTZ AUX)
    Blend: AUG-CC-PVTZ-JKFIT

    Orbital Energies [Eh]
    ---------------------

    Doubly Occupied:

       1A    -11.257894     2A    -11.256077     3A    -11.247039
       4A    -11.246823     5A    -11.243092     6A    -11.242032
       7A    -11.229173     8A    -11.227643     9A     -1.096617
      10A     -1.082247    11A     -1.033831    12A     -0.973782
      13A     -0.887595    14A     -0.865668    15A     -0.786078
      16A     -0.657788    17A     -0.646254    18A     -0.631769
      19A     -0.629547    20A     -0.568904    21A     -0.554391
      22A     -0.525869    23A     -0.516843    24A     -0.515828
      25A     -0.505239    26A     -0.452472    27A     -0.450387
      28A     -0.329709    29A     -0.328397

  @DF-RHF Final Energy:  -308.75863235510064

   => Energetics <=

    Nuclear Repulsion Energy =            288.5998948260870520
    One-Electron Energy =                -986.7390732479087774
    Two-Electron Energy =                 389.3805460667210809
    Total Energy =                       -308.7586323551006444
  Basis Set: (AUG-CC-PVTZ AUX)
    Blend: AUG-CC-PVTZ-RI
    Molecular point group: c1

    Geometry (in Angstrom), charge = 0, multiplicity = 1:

       Center              X                  Y                   Z               Mass
    ------------   -----------------  -----------------  -----------------  -----------------
         C           -3.307477380677     0.669365898297    -0.000115433398    12.000000000000
         C            3.313443619323    -0.659753101703    -0.000116433398    12.000000000000
         C           -4.115977380677    -0.633392101703     0.000315566602    12.000000000000
         C            4.095574119323     0.600524198297     0.000301466602    12.000000000000
         C           -1.864885380677     0.427317898297    -0.000128433398    12.000000000000
         C            1.870851619323    -0.417709101703    -0.000127433398    12.000000000000
         C           -0.668724380677     0.142452898297    -0.000124433398    12.000000000000
         C            0.674690619323    -0.132844101703    -0.000124433398    12.000000000000
         H           -3.571700380677     1.271265898297    -0.878053433398     1.007825032230
         H           -3.571598380677     1.271782898297     0.877498566602     1.007825032230
         H            3.577668619323    -1.261652101703    -0.878054433398     1.007825032230
         H            3.577567619323    -1.262170101703     0.877497566602     1.007825032230
         H           -3.882846380677    -1.229337101703     0.885558566602     1.007825032230
         H           -3.882947380677    -1.229860101703    -0.884602433398     1.007825032230
         H           -5.187915380677    -0.415201101703     0.000311566602     1.007825032230
         H            3.888906619323     1.239474898297    -0.884602433398     1.007825032230
         H            3.888807619323     1.238950898297     0.885559566602     1.007825032230
         H            5.193878619323     0.424819898297     0.000310566602     1.007825032230

  Basis Set: AUG-CC-PVTZ
    Blend: AUG-CC-PVTZ
  Basis Set: (AUG-CC-PVTZ AUX)
    Blend: AUG-CC-PVTZ-JKFIT
	 Reference Energy          =    -308.7586323551006444 [Eh]
	 Singles Energy            =      -0.0000000000000000 [Eh]
	 Same-Spin Energy          =      -0.3337289366822149 [Eh]
	 Opposite-Spin Energy      =      -1.1366939014268400 [Eh]
	 Correlation Energy        =      -1.4704228381090549 [Eh]
	 Total Energy              =    -310.2290551932097173 [Eh]

	 ================> DF-SCS-MP2 Energies <==================
	-----------------------------------------------------------
	 SCS Same-Spin Scale       =       0.3333333333333333 [-]
	 SCS Opposite-Spin Scale   =       1.2000000000000000 [-]
	 SCS Same-Spin Energy      =      -0.1112429788940716 [Eh]
	 SCS Opposite-Spin Energy  =      -1.3640326817122079 [Eh]
	 SCS Correlation Energy    =      -1.4752756606062796 [Eh]
	 SCS Total Energy          =    -310.2339080157069020 [Eh]
	-----------------------------------------------------------

  Dipole Moment: [D]
     X:    -0.0359      Y:    -0.0092      Z:     0.0001     Total:     0.0371

*** Psi4 exiting successfully. Buy a developer a beer!
