                               Psi4 1.3.2 release

  ==> Input File <==

--------------------------------------------------------------------------
#psi4
#
memory 32 gb

molecule  {
0 1
  C       -3.3721060    -0.3925950    -0.0575320
  C        3.3720920    -0.3929730     0.0571420
  C       -3.9415050     1.0253280     0.0313370
  C        3.9413990     1.0251120    -0.0302390
  C       -1.9108347    -0.4309548    -0.0361388
  C        1.9110920    -0.4103270     0.0325030
  C       -0.6837130    -0.4127480    -0.0120990
  C        0.6836319    -0.4364754     0.0081086
  H       -3.7516860    -0.9979840     0.7738320
  H       -3.7208300    -0.8759060    -0.9776160
  H        3.7518700    -0.9975380    -0.7747680
  H        3.7209340    -0.8772010     0.9767210
  H       -3.5935250     1.6324230    -0.8070360
  H       -3.6247440     1.5093170     0.9575960
  H       -5.0347610     1.0001480     0.0102760
  H        3.6246290     1.5100350    -0.9560070
  H        3.5933130     1.6313650     0.8087280
  H        5.0346230     0.9999160    -0.0090680
units angstrom
no_reorient  #important for SAPT in psi4, default
symmetry c1  #important for SAPT in psi4, default
}

set PROPERTIES_ORIGIN ["COM"]
properties('MP2/aug-cc-pvtz', properties = ['dipole'])
--------------------------------------------------------------------------

    Molecular point group: c1
  Charge       = 0
  Multiplicity = 1
  Basis Set: AUG-CC-PVTZ
    Blend: AUG-CC-PVTZ
  Basis Set: (AUG-CC-PVTZ AUX)
    Blend: AUG-CC-PVTZ-JKFIT

    Orbital Energies [Eh]
    ---------------------

    Doubly Occupied:

       1A    -11.257131     2A    -11.257119     3A    -11.245884
       4A    -11.245701     5A    -11.241578     6A    -11.240484
       7A    -11.227448     8A    -11.227210     9A     -1.093904
      10A     -1.079161    11A     -1.032423    12A     -0.973857
      13A     -0.890304    14A     -0.868235    15A     -0.786045
      16A     -0.656102    17A     -0.645885    18A     -0.630787
      19A     -0.629499    20A     -0.556754    21A     -0.553927
      22A     -0.525718    23A     -0.525161    24A     -0.518607
      25A     -0.514336    26A     -0.451651    27A     -0.450823
      28A     -0.328844    29A     -0.327741

  @DF-RHF Final Energy:  -308.76229681945750

   => Energetics <=

    Nuclear Repulsion Energy =            288.2465888433495138
    One-Electron Energy =                -986.0531327190436741
    Two-Electron Energy =                 389.0442470562366566
    Total Energy =                       -308.7622968194575037
  Basis Set: (AUG-CC-PVTZ AUX)
    Blend: AUG-CC-PVTZ-RI
    Molecular point group: c1

    Geometry (in Angstrom), charge = 0, multiplicity = 1:

       Center              X                  Y                   Z               Mass
    ------------   -----------------  -----------------  -----------------  -----------------
         C           -3.372110675935    -0.387527606799    -0.056774638328    12.000000000000
         C            3.372087324065    -0.387905606799     0.057899361672    12.000000000000
         C           -3.941509675935     1.030395393201     0.032094361672    12.000000000000
         C            3.941394324065     1.030179393201    -0.029481638328    12.000000000000
         C           -1.910839375935    -0.425887406799    -0.035381438328    12.000000000000
         C            1.911087324065    -0.405259606799     0.033260361672    12.000000000000
         C           -0.683717675935    -0.407680606799    -0.011341638328    12.000000000000
         C            0.683627224065    -0.431408006799     0.008865961672    12.000000000000
         H           -3.751690675935    -0.992916606799     0.774589361672     1.007825032230
         H           -3.720834675935    -0.870838606799    -0.976858638328     1.007825032230
         H            3.751865324065    -0.992470606799    -0.774010638328     1.007825032230
         H            3.720929324065    -0.872133606799     0.977478361672     1.007825032230
         H           -3.593529675935     1.637490393201    -0.806278638328     1.007825032230
         H           -3.624748675935     1.514384393201     0.958353361672     1.007825032230
         H           -5.034765675935     1.005215393201     0.011033361672     1.007825032230
         H            3.624624324065     1.515102393201    -0.955249638328     1.007825032230
         H            3.593308324065     1.636432393201     0.809485361672     1.007825032230
         H            5.034618324065     1.004983393201    -0.008310638328     1.007825032230

  Basis Set: AUG-CC-PVTZ
    Blend: AUG-CC-PVTZ
  Basis Set: (AUG-CC-PVTZ AUX)
    Blend: AUG-CC-PVTZ-JKFIT
	 Reference Energy          =    -308.7622968194575037 [Eh]
	 Singles Energy            =      -0.0000000000000000 [Eh]
	 Same-Spin Energy          =      -0.3332781011794236 [Eh]
	 Opposite-Spin Energy      =      -1.1357553620064624 [Eh]
	 Correlation Energy        =      -1.4690334631858861 [Eh]
	 Total Energy              =    -310.2313302826433983 [Eh]

	 ================> DF-SCS-MP2 Energies <==================
	-----------------------------------------------------------
	 SCS Same-Spin Scale       =       0.3333333333333333 [-]
	 SCS Opposite-Spin Scale   =       1.2000000000000000 [-]
	 SCS Same-Spin Energy      =      -0.1110927003931412 [Eh]
	 SCS Opposite-Spin Energy  =      -1.3629064344077548 [Eh]
	 SCS Correlation Energy    =      -1.4739991348008961 [Eh]
	 SCS Total Energy          =    -310.2362959542584235 [Eh]
	-----------------------------------------------------------

  Dipole Moment: [D]
     X:    -0.0040      Y:     0.2483      Z:     0.0032     Total:     0.2484

*** Psi4 exiting successfully. Buy a developer a beer!
