                               Psi4 1.3.2 release

  ==> Input File <==

--------------------------------------------------------------------------
#psi4
#
memory 32 gb

molecule  {
0 1
  C       -3.3721060    -0.3925950    -0.0575320
  C        3.3720920    -0.3929730     0.0571420
  C       -3.9415050     1.0253280     0.0313370
  C        3.9413990     1.0251120    -0.0302390
  C       -1.9109611    -0.4157677    -0.0442279
  C        1.9110920    -0.4103270     0.0325030
  C       -0.6837130    -0.4127480    -0.0120990
  C        0.6837810    -0.4128680     0.0116400
  H       -3.7516860    -0.9979840     0.7738320
  H       -3.7117489    -0.8774658    -0.9801888
  H        3.7518700    -0.9975380    -0.7747680
  H        3.7209340    -0.8772010     0.9767210
  H       -3.5935250     1.6324230    -0.8070360
  H       -3.6247440     1.5093170     0.9575960
  H       -5.0347610     1.0001480     0.0102760
  H        3.6246290     1.5100350    -0.9560070
  H        3.5933130     1.6313650     0.8087280
  H        5.0346230     0.9999160    -0.0090680
units angstrom
no_reorient  #important for SAPT in psi4, default
symmetry c1  #important for SAPT in psi4, default
}

set PROPERTIES_ORIGIN ["COM"]
properties('MP2/aug-cc-pvtz', properties = ['dipole'])
--------------------------------------------------------------------------

    Molecular point group: c1
  Charge       = 0
  Multiplicity = 1
  Basis Set: AUG-CC-PVTZ
    Blend: AUG-CC-PVTZ
  Basis Set: (AUG-CC-PVTZ AUX)
    Blend: AUG-CC-PVTZ-JKFIT

    Orbital Energies [Eh]
    ---------------------

    Doubly Occupied:

       1A    -11.257143     2A    -11.257065     3A    -11.245726
       4A    -11.245571     5A    -11.241459     6A    -11.240377
       7A    -11.227352     8A    -11.227133     9A     -1.093989
      10A     -1.079312    11A     -1.032374    12A     -0.973736
      13A     -0.890153    14A     -0.868185    15A     -0.786105
      16A     -0.656147    17A     -0.646060    18A     -0.630927
      19A     -0.629594    20A     -0.556415    21A     -0.553818
      22A     -0.525567    23A     -0.525412    24A     -0.518617
      25A     -0.514378    26A     -0.451611    27A     -0.450854
      28A     -0.328765    29A     -0.327777

  @DF-RHF Final Energy:  -308.76244451182833

   => Energetics <=

    Nuclear Repulsion Energy =            288.3238083418607403
    One-Electron Energy =                -986.2092594196088839
    Two-Electron Energy =                 389.1230065659198090
    Total Energy =                       -308.7624445118283347
  Basis Set: (AUG-CC-PVTZ AUX)
    Blend: AUG-CC-PVTZ-RI
    Molecular point group: c1

    Geometry (in Angstrom), charge = 0, multiplicity = 1:

       Center              X                  Y                   Z               Mass
    ------------   -----------------  -----------------  -----------------  -----------------
         C           -3.372199521291    -0.391901377983    -0.056234609320    12.000000000000
         C            3.371998478709    -0.392279377983     0.058439390680    12.000000000000
         C           -3.941598521291     1.026021622017     0.032634390680    12.000000000000
         C            3.941305478709     1.025805622017    -0.028941609320    12.000000000000
         C           -1.911054621291    -0.415074077983    -0.042930509320    12.000000000000
         C            1.910998478709    -0.409633377983     0.033800390680    12.000000000000
         C           -0.683806521291    -0.412054377983    -0.010801609320    12.000000000000
         C            0.683687478709    -0.412174377983     0.012937390680    12.000000000000
         H           -3.751779521291    -0.997290377983     0.775129390680     1.007825032230
         H           -3.711842421291    -0.876772177983    -0.978891409320     1.007825032230
         H            3.751776478709    -0.996844377983    -0.773470609320     1.007825032230
         H            3.720840478709    -0.876507377983     0.978018390680     1.007825032230
         H           -3.593618521291     1.633116622017    -0.805738609320     1.007825032230
         H           -3.624837521291     1.510010622017     0.958893390680     1.007825032230
         H           -5.034854521291     1.000841622017     0.011573390680     1.007825032230
         H            3.624535478709     1.510728622017    -0.954709609320     1.007825032230
         H            3.593219478709     1.632058622017     0.810025390680     1.007825032230
         H            5.034529478709     1.000609622017    -0.007770609320     1.007825032230

  Basis Set: AUG-CC-PVTZ
    Blend: AUG-CC-PVTZ
  Basis Set: (AUG-CC-PVTZ AUX)
    Blend: AUG-CC-PVTZ-JKFIT
	 Reference Energy          =    -308.7624445118283347 [Eh]
	 Singles Energy            =      -0.0000000000000000 [Eh]
	 Same-Spin Energy          =      -0.3332827737731423 [Eh]
	 Opposite-Spin Energy      =      -1.1357503714264654 [Eh]
	 Correlation Energy        =      -1.4690331451996077 [Eh]
	 Total Energy              =    -310.2314776570279378 [Eh]

	 ================> DF-SCS-MP2 Energies <==================
	-----------------------------------------------------------
	 SCS Same-Spin Scale       =       0.3333333333333333 [-]
	 SCS Opposite-Spin Scale   =       1.2000000000000000 [-]
	 SCS Same-Spin Energy      =      -0.1110942579243808 [Eh]
	 SCS Opposite-Spin Energy  =      -1.3629004457117584 [Eh]
	 SCS Correlation Energy    =      -1.4739947036361392 [Eh]
	 SCS Total Energy          =    -310.2364392154644861 [Eh]
	-----------------------------------------------------------

  Dipole Moment: [D]
     X:    -0.0049      Y:     0.2317      Z:     0.0068     Total:     0.2318

*** Psi4 exiting successfully. Buy a developer a beer!
