                               Psi4 1.3.2 release

  ==> Input File <==

--------------------------------------------------------------------------
#psi4
#
memory 32 gb

molecule  {
0 1
  C       -3.3721060    -0.3925950    -0.0575320
  C        3.3720920    -0.3929730     0.0571420
  C       -3.9415050     1.0253280     0.0313370
  C        3.9413990     1.0251120    -0.0302390
  C       -1.9109761    -0.4203612    -0.0345578
  C        1.9110920    -0.4103270     0.0325030
  C       -0.6837130    -0.4127480    -0.0120990
  C        0.6837585    -0.4246722     0.0098751
  H       -3.7516860    -0.9979840     0.7738320
  H       -3.7208300    -0.8759060    -0.9776160
  H        3.7518700    -0.9975380    -0.7747680
  H        3.7209340    -0.8772010     0.9767210
  H       -3.5935250     1.6324230    -0.8070360
  H       -3.6247440     1.5093170     0.9575960
  H       -5.0347610     1.0001480     0.0102760
  H        3.6246290     1.5100350    -0.9560070
  H        3.5933130     1.6313650     0.8087280
  H        5.0346230     0.9999160    -0.0090680
units angstrom
no_reorient  #important for SAPT in psi4, default
symmetry c1  #important for SAPT in psi4, default
}

set PROPERTIES_ORIGIN ["COM"]
properties('MP2/aug-cc-pvtz', properties = ['dipole'])
--------------------------------------------------------------------------

    Molecular point group: c1
  Charge       = 0
  Multiplicity = 1
  Basis Set: AUG-CC-PVTZ
    Blend: AUG-CC-PVTZ
  Basis Set: (AUG-CC-PVTZ AUX)
    Blend: AUG-CC-PVTZ-JKFIT

    Orbital Energies [Eh]
    ---------------------

    Doubly Occupied:

       1A    -11.257116     2A    -11.257105     3A    -11.245809
       4A    -11.245656     5A    -11.241535     6A    -11.240452
       7A    -11.227302     8A    -11.227178     9A     -1.093969
      10A     -1.079254    11A     -1.032434    12A     -0.973840
      13A     -0.890129    14A     -0.868139    15A     -0.786160
      16A     -0.656357    17A     -0.646233    18A     -0.630791
      19A     -0.629502    20A     -0.556417    21A     -0.553799
      22A     -0.525647    23A     -0.525367    24A     -0.518533
      25A     -0.514276    26A     -0.451668    27A     -0.450881
      28A     -0.328840    29A     -0.327846

  @DF-RHF Final Energy:  -308.76245285289940

   => Energetics <=

    Nuclear Repulsion Energy =            288.2931711956643994
    One-Electron Energy =                -986.1467803372124763
    Two-Electron Energy =                 389.0911562886486763
    Total Energy =                       -308.7624528528994006
  Basis Set: (AUG-CC-PVTZ AUX)
    Blend: AUG-CC-PVTZ-RI
    Molecular point group: c1

    Geometry (in Angstrom), charge = 0, multiplicity = 1:

       Center              X                  Y                   Z               Mass
    ------------   -----------------  -----------------  -----------------  -----------------
         C           -3.372109001699    -0.390061223249    -0.057153321044    12.000000000000
         C            3.372088998301    -0.390439223249     0.057520678956    12.000000000000
         C           -3.941508001699     1.027861776751     0.031715678956    12.000000000000
         C            3.941395998301     1.027645776751    -0.029860321044    12.000000000000
         C           -1.910979101699    -0.417827423249    -0.034179121044    12.000000000000
         C            1.911088998301    -0.407793223249     0.032881678956    12.000000000000
         C           -0.683716001699    -0.410214223249    -0.011720321044    12.000000000000
         C            0.683755498301    -0.422138423249     0.010253778956    12.000000000000
         H           -3.751689001699    -0.995450223249     0.774210678956     1.007825032230
         H           -3.720833001699    -0.873372223249    -0.977237321044     1.007825032230
         H            3.751866998301    -0.995004223249    -0.774389321044     1.007825032230
         H            3.720930998301    -0.874667223249     0.977099678956     1.007825032230
         H           -3.593528001699     1.634956776751    -0.806657321044     1.007825032230
         H           -3.624747001699     1.511850776751     0.957974678956     1.007825032230
         H           -5.034764001699     1.002681776751     0.010654678956     1.007825032230
         H            3.624625998301     1.512568776751    -0.955628321044     1.007825032230
         H            3.593309998301     1.633898776751     0.809106678956     1.007825032230
         H            5.034619998301     1.002449776751    -0.008689321044     1.007825032230

  Basis Set: AUG-CC-PVTZ
    Blend: AUG-CC-PVTZ
  Basis Set: (AUG-CC-PVTZ AUX)
    Blend: AUG-CC-PVTZ-JKFIT
	 Reference Energy          =    -308.7624528528994006 [Eh]
	 Singles Energy            =      -0.0000000000000000 [Eh]
	 Same-Spin Energy          =      -0.3332731714192479 [Eh]
	 Opposite-Spin Energy      =      -1.1357321037780705 [Eh]
	 Correlation Energy        =      -1.4690052751973184 [Eh]
	 Total Energy              =    -310.2314581280967332 [Eh]

	 ================> DF-SCS-MP2 Energies <==================
	-----------------------------------------------------------
	 SCS Same-Spin Scale       =       0.3333333333333333 [-]
	 SCS Opposite-Spin Scale   =       1.2000000000000000 [-]
	 SCS Same-Spin Energy      =      -0.1110910571397493 [Eh]
	 SCS Opposite-Spin Energy  =      -1.3628785245336845 [Eh]
	 SCS Correlation Energy    =      -1.4739695816734337 [Eh]
	 SCS Total Energy          =    -310.2364224345728303 [Eh]
	-----------------------------------------------------------

  Dipole Moment: [D]
     X:    -0.0024      Y:     0.2370      Z:     0.0017     Total:     0.2371

*** Psi4 exiting successfully. Buy a developer a beer!
