                               Psi4 1.3.2 release

  ==> Input File <==

--------------------------------------------------------------------------
#psi4
#
memory 32 gb

molecule  {
0 1
  C       -3.3721060    -0.3925950    -0.0575320
  C        3.3720920    -0.3929730     0.0571420
  C       -3.9415050     1.0253280     0.0313370
  C        3.9413990     1.0251120    -0.0302390
  C       -1.9110240    -0.4097670    -0.0329750
  C        1.9110920    -0.4103270     0.0325030
  C       -0.6837130    -0.4127480    -0.0120990
  C        0.8837509    -0.4128855     0.0151114
  H       -3.7516860    -0.9979840     0.7738320
  H       -3.7208300    -0.8759060    -0.9776160
  H        3.7518700    -0.9975380    -0.7747680
  H        3.7209340    -0.8772010     0.9767210
  H       -3.5935250     1.6324230    -0.8070360
  H       -3.6247440     1.5093170     0.9575960
  H       -5.0347610     1.0001480     0.0102760
  H        3.6246290     1.5100350    -0.9560070
  H        3.5933130     1.6313650     0.8087280
  H        5.0346230     0.9999160    -0.0090680
units angstrom
no_reorient  #important for SAPT in psi4, default
symmetry c1  #important for SAPT in psi4, default
}

set PROPERTIES_ORIGIN ["COM"]
properties('MP2/aug-cc-pvtz', properties = ['dipole'])
--------------------------------------------------------------------------

    Molecular point group: c1
  Charge       = 0
  Multiplicity = 1
  Basis Set: AUG-CC-PVTZ
    Blend: AUG-CC-PVTZ
  Basis Set: (AUG-CC-PVTZ AUX)
    Blend: AUG-CC-PVTZ-JKFIT

    Orbital Energies [Eh]
    ---------------------

    Doubly Occupied:

       1A    -11.257114     2A    -11.256394     3A    -11.245999
       4A    -11.243227     5A    -11.226767     6A    -11.223419
       7A    -11.208583     8A    -11.183044     9A     -1.106467
      10A     -1.080843    11A     -1.029849    12A     -0.989020
      13A     -0.877562    14A     -0.868855    15A     -0.726272
      16A     -0.651646    17A     -0.639057    18A     -0.629731
      19A     -0.626962    20A     -0.555823    21A     -0.552593
      22A     -0.524874    23A     -0.521285    24A     -0.519632
      25A     -0.513924    26A     -0.459352    27A     -0.457507
      28A     -0.365097    29A     -0.364336

  @DF-RHF Final Energy:  -308.67204477500809

   => Energetics <=

    Nuclear Repulsion Energy =            289.6509710872628602
    One-Electron Energy =                -988.8355656290646039
    Two-Electron Energy =                 390.5125497667936543
    Total Energy =                       -308.6720447750080893
  Basis Set: (AUG-CC-PVTZ AUX)
    Blend: AUG-CC-PVTZ-RI
    Molecular point group: c1

    Geometry (in Angstrom), charge = 0, multiplicity = 1:

       Center              X                  Y                   Z               Mass
    ------------   -----------------  -----------------  -----------------  -----------------
         C           -3.394727530876    -0.392593041027    -0.057924725170    12.000000000000
         C            3.349470469124    -0.392971041027     0.056749274830    12.000000000000
         C           -3.964126530876     1.025329958973     0.030944274830    12.000000000000
         C            3.918777469124     1.025113958973    -0.030631725170    12.000000000000
         C           -1.933645530876    -0.409765041027    -0.033367725170    12.000000000000
         C            1.888470469124    -0.410325041027     0.032110274830    12.000000000000
         C           -0.706334530876    -0.412746041027    -0.012491725170    12.000000000000
         C            0.861129369124    -0.412883541027     0.014718674830    12.000000000000
         H           -3.774307530876    -0.997982041027     0.773439274830     1.007825032230
         H           -3.743451530876    -0.875904041027    -0.978008725170     1.007825032230
         H            3.729248469124    -0.997536041027    -0.775160725170     1.007825032230
         H            3.698312469124    -0.877199041027     0.976328274830     1.007825032230
         H           -3.616146530876     1.632424958973    -0.807428725170     1.007825032230
         H           -3.647365530876     1.509318958973     0.957203274830     1.007825032230
         H           -5.057382530876     1.000149958973     0.009883274830     1.007825032230
         H            3.602007469124     1.510036958973    -0.956399725170     1.007825032230
         H            3.570691469124     1.631366958973     0.808335274830     1.007825032230
         H            5.012001469124     0.999917958973    -0.009460725170     1.007825032230

  Basis Set: AUG-CC-PVTZ
    Blend: AUG-CC-PVTZ
  Basis Set: (AUG-CC-PVTZ AUX)
    Blend: AUG-CC-PVTZ-JKFIT
	 Reference Energy          =    -308.6720447750080893 [Eh]
	 Singles Energy            =      -0.0000000000000000 [Eh]
	 Same-Spin Energy          =      -0.3222357912760955 [Eh]
	 Opposite-Spin Energy      =      -1.1190715324365725 [Eh]
	 Correlation Energy        =      -1.4413073237126679 [Eh]
	 Total Energy              =    -310.1133520987207817 [Eh]

	 ================> DF-SCS-MP2 Energies <==================
	-----------------------------------------------------------
	 SCS Same-Spin Scale       =       0.3333333333333333 [-]
	 SCS Opposite-Spin Scale   =       1.2000000000000000 [-]
	 SCS Same-Spin Energy      =      -0.1074119304253651 [Eh]
	 SCS Opposite-Spin Energy  =      -1.3428858389238869 [Eh]
	 SCS Correlation Energy    =      -1.4502977693492520 [Eh]
	 SCS Total Energy          =    -310.1223425443573660 [Eh]
	-----------------------------------------------------------

  Dipole Moment: [D]
     X:    -0.1288      Y:     0.1972      Z:    -0.0003     Total:     0.2356

*** Psi4 exiting successfully. Buy a developer a beer!
