                               Psi4 1.3.2 release

  ==> Input File <==

--------------------------------------------------------------------------
#psi4
#
memory 32 gb

molecule  {
0 1
  C       -3.3721060    -0.3925950    -0.0575320
  C        3.3720920    -0.3929730     0.0571420
  C       -4.0150653     0.9937433     0.0278372
  C        3.9413990     1.0251120    -0.0302390
  C       -1.9138333    -0.4860360    -0.0383446
  C        1.9110920    -0.4103270     0.0325030
  C       -0.6837130    -0.4127480    -0.0120990
  C        0.6837810    -0.4128680     0.0116400
  H       -3.7516860    -0.9979840     0.7738320
  H       -3.7208300    -0.8759060    -0.9776160
  H        3.7518700    -0.9975380    -0.7747680
  H        3.7209340    -0.8772010     0.9767210
  H       -3.5935250     1.6324230    -0.8070360
  H       -3.6247440     1.5093170     0.9575960
  H       -5.0347610     1.0001480     0.0102760
  H        3.6246290     1.5100350    -0.9560070
  H        3.5933130     1.6313650     0.8087280
  H        5.0346230     0.9999160    -0.0090680
units angstrom
no_reorient  #important for SAPT in psi4, default
symmetry c1  #important for SAPT in psi4, default
}

set PROPERTIES_ORIGIN ["COM"]
properties('MP2/aug-cc-pvtz', properties = ['dipole'])
--------------------------------------------------------------------------

    Molecular point group: c1
  Charge       = 0
  Multiplicity = 1
  Basis Set: AUG-CC-PVTZ
    Blend: AUG-CC-PVTZ
  Basis Set: (AUG-CC-PVTZ AUX)
    Blend: AUG-CC-PVTZ-JKFIT

    Orbital Energies [Eh]
    ---------------------

    Doubly Occupied:

       1A    -11.257643     2A    -11.257007     3A    -11.248558
       4A    -11.246761     5A    -11.244042     6A    -11.241637
       7A    -11.229045     8A    -11.227673     9A     -1.093929
      10A     -1.078797    11A     -1.032874    12A     -0.974768
      13A     -0.892719    14A     -0.869498    15A     -0.786464
      16A     -0.655697    17A     -0.645964    18A     -0.630738
      19A     -0.623761    20A     -0.578975    21A     -0.555435
      22A     -0.526224    23A     -0.522111    24A     -0.517135
      25A     -0.499299    26A     -0.451396    27A     -0.450313
      28A     -0.329670    29A     -0.327475

  @DF-RHF Final Energy:  -308.75232740772708

   => Energetics <=

    Nuclear Repulsion Energy =            287.7695823647703719
    One-Electron Energy =                -985.0525994934564551
    Two-Electron Energy =                 388.5306897209590034
    Total Energy =                       -308.7523274077270798
  Basis Set: (AUG-CC-PVTZ AUX)
    Blend: AUG-CC-PVTZ-RI
    Molecular point group: c1

    Geometry (in Angstrom), charge = 0, multiplicity = 1:

       Center              X                  Y                   Z               Mass
    ------------   -----------------  -----------------  -----------------  -----------------
         C           -3.363466890831    -0.380394174661    -0.056528684045    12.000000000000
         C            3.380731109169    -0.380772174661     0.058145315955    12.000000000000
         C           -4.006426190831     1.005944125339     0.028840515955    12.000000000000
         C            3.950038109169     1.037312825339    -0.029235684045    12.000000000000
         C           -1.905194190831    -0.473835174661    -0.037341284045    12.000000000000
         C            1.919731109169    -0.398126174661     0.033506315955    12.000000000000
         C           -0.675073890831    -0.400547174661    -0.011095684045    12.000000000000
         C            0.692420109169    -0.400667174661     0.012643315955    12.000000000000
         H           -3.743046890831    -0.985783174661     0.774835315955     1.007825032230
         H           -3.712190890831    -0.863705174661    -0.976612684045     1.007825032230
         H            3.760509109169    -0.985337174661    -0.773764684045     1.007825032230
         H            3.729573109169    -0.865000174661     0.977724315955     1.007825032230
         H           -3.584885890831     1.644623825339    -0.806032684045     1.007825032230
         H           -3.616104890831     1.521517825339     0.958599315955     1.007825032230
         H           -5.026121890831     1.012348825339     0.011279315955     1.007825032230
         H            3.633268109169     1.522235825339    -0.955003684045     1.007825032230
         H            3.601952109169     1.643565825339     0.809731315955     1.007825032230
         H            5.043262109169     1.012116825339    -0.008064684045     1.007825032230

  Basis Set: AUG-CC-PVTZ
    Blend: AUG-CC-PVTZ
  Basis Set: (AUG-CC-PVTZ AUX)
    Blend: AUG-CC-PVTZ-JKFIT
	 Reference Energy          =    -308.7523274077270798 [Eh]
	 Singles Energy            =      -0.0000000000000000 [Eh]
	 Same-Spin Energy          =      -0.3336772624380765 [Eh]
	 Opposite-Spin Energy      =      -1.1368406693887261 [Eh]
	 Correlation Energy        =      -1.4705179318268027 [Eh]
	 Total Energy              =    -310.2228453395538850 [Eh]

	 ================> DF-SCS-MP2 Energies <==================
	-----------------------------------------------------------
	 SCS Same-Spin Scale       =       0.3333333333333333 [-]
	 SCS Opposite-Spin Scale   =       1.2000000000000000 [-]
	 SCS Same-Spin Energy      =      -0.1112257541460255 [Eh]
	 SCS Opposite-Spin Energy  =      -1.3642088032664712 [Eh]
	 SCS Correlation Energy    =      -1.4754345574124967 [Eh]
	 SCS Total Energy          =    -310.2277619651395639 [Eh]
	-----------------------------------------------------------

  Dipole Moment: [D]
     X:     0.0461      Y:     0.2676      Z:     0.0036     Total:     0.2715

*** Psi4 exiting successfully. Buy a developer a beer!
