                               Psi4 1.3.2 release

  ==> Input File <==

--------------------------------------------------------------------------
#psi4
#
memory 32 gb

molecule  {
0 1
  C       -3.3981079    -0.4048525    -0.0125012
  C        3.3720920    -0.3929730     0.0571420
  C       -3.9415050     1.0253280     0.0313370
  C        3.9413990     1.0251120    -0.0302390
  C       -1.9110240    -0.4097670    -0.0329750
  C        1.9110920    -0.4103270     0.0325030
  C       -0.6837130    -0.4127480    -0.0120990
  C        0.6837810    -0.4128680     0.0116400
  H       -3.7516860    -0.9979840     0.7738320
  H       -3.7208300    -0.8759060    -0.9776160
  H        3.7518700    -0.9975380    -0.7747680
  H        3.7209340    -0.8772010     0.9767210
  H       -3.6134495     1.6618070    -0.7931615
  H       -3.6247440     1.5093170     0.9575960
  H       -5.0347610     1.0001480     0.0102760
  H        3.6246290     1.5100350    -0.9560070
  H        3.5933130     1.6313650     0.8087280
  H        5.0346230     0.9999160    -0.0090680
units angstrom
no_reorient  #important for SAPT in psi4, default
symmetry c1  #important for SAPT in psi4, default
}

set PROPERTIES_ORIGIN ["COM"]
properties('MP2/aug-cc-pvtz', properties = ['dipole'])
--------------------------------------------------------------------------

    Molecular point group: c1
  Charge       = 0
  Multiplicity = 1
  Basis Set: AUG-CC-PVTZ
    Blend: AUG-CC-PVTZ
  Basis Set: (AUG-CC-PVTZ AUX)
    Blend: AUG-CC-PVTZ-JKFIT

    Orbital Energies [Eh]
    ---------------------

    Doubly Occupied:

       1A    -11.258412     2A    -11.256857     3A    -11.246026
       4A    -11.245268     5A    -11.241035     6A    -11.239887
       7A    -11.227311     8A    -11.226954     9A     -1.092710
      10A     -1.077867    11A     -1.032389    12A     -0.973451
      13A     -0.889204    14A     -0.868411    15A     -0.786683
      16A     -0.655964    17A     -0.646322    18A     -0.630391
      19A     -0.629178    20A     -0.556112    21A     -0.553391
      22A     -0.528211    23A     -0.525258    24A     -0.517219
      25A     -0.512370    26A     -0.452619    27A     -0.450389
      28A     -0.329192    29A     -0.327544

  @DF-RHF Final Energy:  -308.75953111391311

   => Energetics <=

    Nuclear Repulsion Energy =            287.9969791290741341
    One-Electron Energy =                -985.5597623132691751
    Two-Electron Energy =                 388.8032520702819284
    Total Energy =                       -308.7595311139131127
  Basis Set: (AUG-CC-PVTZ AUX)
    Blend: AUG-CC-PVTZ-RI
    Molecular point group: c1

    Geometry (in Angstrom), charge = 0, multiplicity = 1:

       Center              X                  Y                   Z               Mass
    ------------   -----------------  -----------------  -----------------  -----------------
         C           -3.394977290343    -0.403745073422    -0.017727110737    12.000000000000
         C            3.375222609657    -0.391865573422     0.051916089263    12.000000000000
         C           -3.938374390343     1.026435426578     0.026111089263    12.000000000000
         C            3.944529609657     1.026219426578    -0.035464910737    12.000000000000
         C           -1.907893390343    -0.408659573422    -0.038200910737    12.000000000000
         C            1.914222609657    -0.409219573422     0.027277089263    12.000000000000
         C           -0.680582390343    -0.411640573422    -0.017324910737    12.000000000000
         C            0.686911609657    -0.411760573422     0.006414089263    12.000000000000
         H           -3.748555390343    -0.996876573422     0.768606089263     1.007825032230
         H           -3.717699390343    -0.874798573422    -0.982841910737     1.007825032230
         H            3.755000609657    -0.996430573422    -0.779993910737     1.007825032230
         H            3.724064609657    -0.876093573422     0.971495089263     1.007825032230
         H           -3.610318890343     1.662914426578    -0.798387410737     1.007825032230
         H           -3.621613390343     1.510424426578     0.952370089263     1.007825032230
         H           -5.031630390343     1.001255426578     0.005050089263     1.007825032230
         H            3.627759609657     1.511142426578    -0.961232910737     1.007825032230
         H            3.596443609657     1.632472426578     0.803502089263     1.007825032230
         H            5.037753609657     1.001023426578    -0.014293910737     1.007825032230

  Basis Set: AUG-CC-PVTZ
    Blend: AUG-CC-PVTZ
  Basis Set: (AUG-CC-PVTZ AUX)
    Blend: AUG-CC-PVTZ-JKFIT
	 Reference Energy          =    -308.7595311139131127 [Eh]
	 Singles Energy            =      -0.0000000000000000 [Eh]
	 Same-Spin Energy          =      -0.3329613845659799 [Eh]
	 Opposite-Spin Energy      =      -1.1355610498783819 [Eh]
	 Correlation Energy        =      -1.4685224344443619 [Eh]
	 Total Energy              =    -310.2280535483574795 [Eh]

	 ================> DF-SCS-MP2 Energies <==================
	-----------------------------------------------------------
	 SCS Same-Spin Scale       =       0.3333333333333333 [-]
	 SCS Opposite-Spin Scale   =       1.2000000000000000 [-]
	 SCS Same-Spin Energy      =      -0.1109871281886600 [Eh]
	 SCS Opposite-Spin Energy  =      -1.3626732598540583 [Eh]
	 SCS Correlation Energy    =      -1.4736603880427182 [Eh]
	 SCS Total Energy          =    -310.2331915019558437 [Eh]
	-----------------------------------------------------------

  Dipole Moment: [D]
     X:    -0.0359      Y:     0.2308      Z:     0.0296     Total:     0.2354

*** Psi4 exiting successfully. Buy a developer a beer!
