                               Psi4 1.3.2 release

  ==> Input File <==

--------------------------------------------------------------------------
#psi4
#
memory 32 gb

molecule  {
0 1
  C       -3.3721060    -0.3925950    -0.0575320
  C        3.3720920    -0.3929730     0.0571420
  C       -3.9415050     1.0253280     0.0313370
  C        3.9413990     1.0251120    -0.0302390
  C       -1.9110240    -0.4097670    -0.0329750
  C        1.9110920    -0.4103270     0.0325030
  C       -0.6837130    -0.4127480    -0.0120990
  C        0.4838111    -0.4128505     0.0081686
  H       -3.7516860    -0.9979840     0.7738320
  H       -3.7208300    -0.8759060    -0.9776160
  H        3.7518700    -0.9975380    -0.7747680
  H        3.7209340    -0.8772010     0.9767210
  H       -3.5935250     1.6324230    -0.8070360
  H       -3.6247440     1.5093170     0.9575960
  H       -5.0347610     1.0001480     0.0102760
  H        3.6246290     1.5100350    -0.9560070
  H        3.5933130     1.6313650     0.8087280
  H        5.0346230     0.9999160    -0.0090680
units angstrom
no_reorient  #important for SAPT in psi4, default
symmetry c1  #important for SAPT in psi4, default
}

set PROPERTIES_ORIGIN ["COM"]
properties('MP2/aug-cc-pvtz', properties = ['dipole'])
--------------------------------------------------------------------------

    Molecular point group: c1
  Charge       = 0
  Multiplicity = 1
  Basis Set: AUG-CC-PVTZ
    Blend: AUG-CC-PVTZ
  Basis Set: (AUG-CC-PVTZ AUX)
    Blend: AUG-CC-PVTZ-JKFIT

    Orbital Energies [Eh]
    ---------------------

    Doubly Occupied:

       1A    -11.294728     2A    -11.265130     3A    -11.259481
       4A    -11.259123     5A    -11.250386     6A    -11.229149
       7A    -11.228556     8A    -11.216545     9A     -1.111615
      10A     -1.078614    11A     -1.057738    12A     -0.948290
      13A     -0.905844    14A     -0.862114    15A     -0.800829
      16A     -0.657553    17A     -0.646698    18A     -0.633070
      19A     -0.631573    20A     -0.559071    21A     -0.555032
      22A     -0.527922    23A     -0.527420    24A     -0.521904
      25A     -0.515517    26A     -0.473818    27A     -0.472516
      28A     -0.283143    29A     -0.282136

  @DF-RHF Final Energy:  -308.62948094505526

   => Energetics <=

    Nuclear Repulsion Energy =            288.7305892454534160
    One-Electron Energy =                -986.6091112476028684
    Two-Electron Energy =                 389.2490410570941890
    Total Energy =                       -308.6294809450552634
  Basis Set: (AUG-CC-PVTZ AUX)
    Blend: AUG-CC-PVTZ-RI
    Molecular point group: c1

    Geometry (in Angstrom), charge = 0, multiplicity = 1:

       Center              X                  Y                   Z               Mass
    ------------   -----------------  -----------------  -----------------  -----------------
         C           -3.349484725820    -0.392597000368    -0.057139327601    12.000000000000
         C            3.394713274180    -0.392975000368     0.057534672399    12.000000000000
         C           -3.918883725820     1.025325999632     0.031729672399    12.000000000000
         C            3.964020274180     1.025109999632    -0.029846327601    12.000000000000
         C           -1.888402725820    -0.409769000368    -0.032582327601    12.000000000000
         C            1.933713274180    -0.410329000368     0.032895672399    12.000000000000
         C           -0.661091725820    -0.412750000368    -0.011706327601    12.000000000000
         C            0.506432374180    -0.412852500368     0.008561272399    12.000000000000
         H           -3.729064725820    -0.997986000368     0.774224672399     1.007825032230
         H           -3.698208725820    -0.875908000368    -0.977223327601     1.007825032230
         H            3.774491274180    -0.997540000368    -0.774375327601     1.007825032230
         H            3.743555274180    -0.877203000368     0.977113672399     1.007825032230
         H           -3.570903725820     1.632420999632    -0.806643327601     1.007825032230
         H           -3.602122725820     1.509314999632     0.957988672399     1.007825032230
         H           -5.012139725820     1.000145999632     0.010668672399     1.007825032230
         H            3.647250274180     1.510032999632    -0.955614327601     1.007825032230
         H            3.615934274180     1.631362999632     0.809120672399     1.007825032230
         H            5.057244274180     0.999913999632    -0.008675327601     1.007825032230

  Basis Set: AUG-CC-PVTZ
    Blend: AUG-CC-PVTZ
  Basis Set: (AUG-CC-PVTZ AUX)
    Blend: AUG-CC-PVTZ-JKFIT
	 Reference Energy          =    -308.6294809450552634 [Eh]
	 Singles Energy            =      -0.0000000000000000 [Eh]
	 Same-Spin Energy          =      -0.3521534710270480 [Eh]
	 Opposite-Spin Energy      =      -1.1653360577709213 [Eh]
	 Correlation Energy        =      -1.5174895287979693 [Eh]
	 Total Energy              =    -310.1469704738532300 [Eh]

	 ================> DF-SCS-MP2 Energies <==================
	-----------------------------------------------------------
	 SCS Same-Spin Scale       =       0.3333333333333333 [-]
	 SCS Opposite-Spin Scale   =       1.2000000000000000 [-]
	 SCS Same-Spin Energy      =      -0.1173844903423493 [Eh]
	 SCS Opposite-Spin Energy  =      -1.3984032693251056 [Eh]
	 SCS Correlation Energy    =      -1.5157877596674549 [Eh]
	 SCS Total Energy          =    -310.1452687047226959 [Eh]
	-----------------------------------------------------------

  Dipole Moment: [D]
     X:    -0.0945      Y:     0.2351      Z:    -0.0023     Total:     0.2534

*** Psi4 exiting successfully. Buy a developer a beer!
