                               Psi4 1.3.2 release

  ==> Input File <==

--------------------------------------------------------------------------
#psi4
#
memory 32 gb

molecule  {
0 1
  C       -3.3721060    -0.3925950    -0.0575320
  C        3.3720920    -0.3929730     0.0571420
  C       -3.9787070     1.1179687     0.0371433
  C        3.9413990     1.0251120    -0.0302390
  C       -1.9110240    -0.4097670    -0.0329750
  C        1.9110920    -0.4103270     0.0325030
  C       -0.6837130    -0.4127480    -0.0120990
  C        0.6837810    -0.4128680     0.0116400
  H       -3.7516860    -0.9979840     0.7738320
  H       -3.7208300    -0.8759060    -0.9776160
  H        3.7518700    -0.9975380    -0.7747680
  H        3.7209340    -0.8772010     0.9767210
  H       -3.5935250     1.6324230    -0.8070360
  H       -3.6247440     1.5093170     0.9575960
  H       -5.0347610     1.0001480     0.0102760
  H        3.6246290     1.5100350    -0.9560070
  H        3.5933130     1.6313650     0.8087280
  H        5.0346230     0.9999160    -0.0090680
units angstrom
no_reorient  #important for SAPT in psi4, default
symmetry c1  #important for SAPT in psi4, default
}

set PROPERTIES_ORIGIN ["COM"]
properties('MP2/aug-cc-pvtz', properties = ['dipole'])
--------------------------------------------------------------------------

    Molecular point group: c1
  Charge       = 0
  Multiplicity = 1
  Basis Set: AUG-CC-PVTZ
    Blend: AUG-CC-PVTZ
  Basis Set: (AUG-CC-PVTZ AUX)
    Blend: AUG-CC-PVTZ-JKFIT

    Orbital Energies [Eh]
    ---------------------

    Doubly Occupied:

       1A    -11.259651     2A    -11.256678     3A    -11.245336
       4A    -11.244932     5A    -11.240771     6A    -11.239568
       7A    -11.226828     8A    -11.226169     9A     -1.091188
      10A     -1.072456    11A     -1.027468    12A     -0.972309
      13A     -0.894908    14A     -0.870903    15A     -0.785342
      16A     -0.654572    17A     -0.644440    18A     -0.630001
      19A     -0.628326    20A     -0.554624    21A     -0.552496
      22A     -0.534955    23A     -0.525541    24A     -0.518633
      25A     -0.515715    26A     -0.450633    27A     -0.446861
      28A     -0.327135    29A     -0.326318

  @DF-RHF Final Energy:  -308.75561684315551

   => Energetics <=

    Nuclear Repulsion Energy =            287.2305289223002092
    One-Electron Energy =                -984.0427765705388765
    Two-Electron Energy =                 388.0566308050831594
    Total Energy =                       -308.7556168431555079
  Basis Set: (AUG-CC-PVTZ AUX)
    Blend: AUG-CC-PVTZ-RI
    Molecular point group: c1

    Geometry (in Angstrom), charge = 0, multiplicity = 1:

       Center              X                  Y                   Z               Mass
    ------------   -----------------  -----------------  -----------------  -----------------
         C           -3.367897687894    -0.403074910747    -0.058188858486    12.000000000000
         C            3.376300312106    -0.403452910747     0.056485141514    12.000000000000
         C           -3.974498687894     1.107488789253     0.036486441514    12.000000000000
         C            3.945607312106     1.014632089253    -0.030895858486    12.000000000000
         C           -1.906815687894    -0.420246910747    -0.033631858486    12.000000000000
         C            1.915300312106    -0.420806910747     0.031846141514    12.000000000000
         C           -0.679504687894    -0.423227910747    -0.012755858486    12.000000000000
         C            0.687989312106    -0.423347910747     0.010983141514    12.000000000000
         H           -3.747477687894    -1.008463910747     0.773175141514     1.007825032230
         H           -3.716621687894    -0.886385910747    -0.978272858486     1.007825032230
         H            3.756078312106    -1.008017910747    -0.775424858486     1.007825032230
         H            3.725142312106    -0.887680910747     0.976064141514     1.007825032230
         H           -3.589316687894     1.621943089253    -0.807692858486     1.007825032230
         H           -3.620535687894     1.498837089253     0.956939141514     1.007825032230
         H           -5.030552687894     0.989668089253     0.009619141514     1.007825032230
         H            3.628837312106     1.499555089253    -0.956663858486     1.007825032230
         H            3.597521312106     1.620885089253     0.808071141514     1.007825032230
         H            5.038831312106     0.989436089253    -0.009724858486     1.007825032230

  Basis Set: AUG-CC-PVTZ
    Blend: AUG-CC-PVTZ
  Basis Set: (AUG-CC-PVTZ AUX)
    Blend: AUG-CC-PVTZ-JKFIT
	 Reference Energy          =    -308.7556168431555079 [Eh]
	 Singles Energy            =      -0.0000000000000000 [Eh]
	 Same-Spin Energy          =      -0.3331111032679713 [Eh]
	 Opposite-Spin Energy      =      -1.1357765084452218 [Eh]
	 Correlation Energy        =      -1.4688876117131930 [Eh]
	 Total Energy              =    -310.2245044548686792 [Eh]

	 ================> DF-SCS-MP2 Energies <==================
	-----------------------------------------------------------
	 SCS Same-Spin Scale       =       0.3333333333333333 [-]
	 SCS Opposite-Spin Scale   =       1.2000000000000000 [-]
	 SCS Same-Spin Energy      =      -0.1110370344226571 [Eh]
	 SCS Opposite-Spin Energy  =      -1.3629318101342662 [Eh]
	 SCS Correlation Energy    =      -1.4739688445569232 [Eh]
	 SCS Total Energy          =    -310.2295856877124152 [Eh]
	-----------------------------------------------------------

  Dipole Moment: [D]
     X:    -0.0558      Y:     0.2446      Z:     0.0007     Total:     0.2509

*** Psi4 exiting successfully. Buy a developer a beer!
