                               Psi4 1.4a3.dev225

  ==> Input File <==

--------------------------------------------------------------------------
#psi4
#
memory 32 gb

molecule  {
0 1
  C       -3.3104600     0.6645600    -0.0001290
  C        3.3104610    -0.6645590    -0.0001300
  C       -4.1189600    -0.6381980     0.0003020
  C        4.1189570     0.6382020     0.0003020
  C       -1.8678680     0.4225120    -0.0001420
  C        1.8678690    -0.4225150    -0.0001410
  C       -0.6717070     0.1376470    -0.0001380
  C        0.6230683    -0.1260665    -0.0001379
  H       -3.5746830     1.2664600    -0.8780670
  H       -3.5745810     1.2669770     0.8774850
  H        3.5746860    -1.2664580    -0.8780680
  H        3.5745850    -1.2669760     0.8774840
  H       -3.8858290    -1.2341430     0.8855450
  H       -3.8859300    -1.2346660    -0.8846160
  H       -5.1908980    -0.4200070     0.0002980
  H        3.8859240     1.2346690    -0.8846160
  H        3.8858250     1.2341450     0.8855460
  H        5.1908960     0.4200140     0.0002970
units angstrom
no_reorient  #important for SAPT in psi4, default
symmetry c1  #important for SAPT in psi4, default
}

set PROPERTIES_ORIGIN ["COM"]
properties('MP2/aug-cc-pvtz', properties = ['dipole'])
--------------------------------------------------------------------------

    Molecular point group: c1
  Charge       = 0
  Multiplicity = 1
  Basis Set: AUG-CC-PVTZ
    Blend: AUG-CC-PVTZ
  Basis Set: (AUG-CC-PVTZ AUX)
    Blend: AUG-CC-PVTZ-JKFIT

    Orbital Energies [Eh]
    ---------------------

    Doubly Occupied:

       1A    -11.260549     2A    -11.259763     3A    -11.258013
       4A    -11.249641     5A    -11.246924     6A    -11.237156
       7A    -11.228205     8A    -11.227655     9A     -1.094766
      10A     -1.078272    11A     -1.036435    12A     -0.965093
      13A     -0.893906    14A     -0.866714    15A     -0.795022
      16A     -0.656600    17A     -0.645896    18A     -0.630831
      19A     -0.629400    20A     -0.557543    21A     -0.552484
      22A     -0.527101    23A     -0.525304    24A     -0.518741
      25A     -0.514496    26A     -0.454045    27A     -0.453565
      28A     -0.317599    29A     -0.316819

  @DF-RHF Final Energy:  -308.74618863460648

   => Energetics <=

    Nuclear Repulsion Energy =            287.9578744888178221
    One-Electron Energy =                -985.4110522855903582
    Two-Electron Energy =                 388.7069891621659963
    Total Energy =                       -308.7461886346064830
  Basis Set: (AUG-CC-PVTZ AUX)
    Blend: AUG-CC-PVTZ-RI
    Molecular point group: c1

    Geometry (in Angstrom), charge = 0, multiplicity = 1:

       Center              X                  Y                   Z               Mass
    ------------   -----------------  -----------------  -----------------  -----------------
         C           -3.304957633234     0.663249598321    -0.000117039760    12.000000000000
         C            3.315963366766    -0.665869401679    -0.000118039760    12.000000000000
         C           -4.113457633234    -0.639508401679     0.000313960240    12.000000000000
         C            4.124459366766     0.636891598321     0.000313960240    12.000000000000
         C           -1.862365633234     0.421201598321    -0.000130039760    12.000000000000
         C            1.873371366766    -0.423825401679    -0.000129039760    12.000000000000
         C           -0.666204633234     0.136336598321    -0.000126039760    12.000000000000
         C            0.628570666766    -0.127376901679    -0.000125939760    12.000000000000
         H           -3.569180633234     1.265149598321    -0.878055039760     1.007825032230
         H           -3.569078633234     1.265666598321     0.877496960240     1.007825032230
         H            3.580188366766    -1.267768401679    -0.878056039760     1.007825032230
         H            3.580087366766    -1.268286401679     0.877495960240     1.007825032230
         H           -3.880326633234    -1.235453401679     0.885556960240     1.007825032230
         H           -3.880427633234    -1.235976401679    -0.884604039760     1.007825032230
         H           -5.185395633234    -0.421317401679     0.000309960240     1.007825032230
         H            3.891426366766     1.233358598321    -0.884604039760     1.007825032230
         H            3.891327366766     1.232834598321     0.885557960240     1.007825032230
         H            5.196398366766     0.418703598321     0.000308960240     1.007825032230

  Basis Set: AUG-CC-PVTZ
    Blend: AUG-CC-PVTZ
  Basis Set: (AUG-CC-PVTZ AUX)
    Blend: AUG-CC-PVTZ-JKFIT
	 Reference Energy          =    -308.7461886346064830 [Eh]
	 Singles Energy            =      -0.0000000000000000 [Eh]
	 Same-Spin Energy          =      -0.3372705356519290 [Eh]
	 Opposite-Spin Energy      =      -1.1420540756194579 [Eh]
	 Correlation Energy        =      -1.4793246112713869 [Eh]
	 Total Energy              =    -310.2255132458778917 [Eh]

	 ================> DF-SCS-MP2 Energies <==================
	-----------------------------------------------------------
	 SCS Same-Spin Scale       =       0.3333333333333333 [-]
	 SCS Opposite-Spin Scale   =       1.2000000000000000 [-]
	 SCS Same-Spin Energy      =      -0.1124235118839763 [Eh]
	 SCS Opposite-Spin Energy  =      -1.3704648907433494 [Eh]
	 SCS Correlation Energy    =      -1.4828884026273257 [Eh]
	 SCS Total Energy          =    -310.2290770372338216 [Eh]
	-----------------------------------------------------------

  Dipole Moment: [D]
     X:     0.0019      Y:     0.0041      Z:     0.0001     Total:     0.0045

*** Psi4 exiting successfully. Buy a developer a beer!
