                               Psi4 1.4a3.dev225

  ==> Input File <==

--------------------------------------------------------------------------
#psi4
#
memory 32 gb

molecule  {
0 1
  C       -3.3104600     0.6645600    -0.0001290
  C        3.3104610    -0.6645590    -0.0001300
  C       -4.1189600    -0.6381980     0.0003020
  C        4.1189570     0.6382020     0.0003020
  C       -1.8678680     0.4225120    -0.0001420
  C        1.8678690    -0.4225150    -0.0001410
  C       -0.6717070     0.1376470    -0.0001380
  C        0.6717080    -0.1376500    -0.0001380
  H       -3.5746830     1.2664600    -0.8780670
  H       -3.5793974     1.2779624     0.8934888
  H        3.5746860    -1.2664580    -0.8780680
  H        3.5745850    -1.2669760     0.8774840
  H       -3.8858290    -1.2341430     0.8855450
  H       -3.8859300    -1.2346660    -0.8846160
  H       -5.1908980    -0.4200070     0.0002980
  H        3.8859240     1.2346690    -0.8846160
  H        3.8858250     1.2341450     0.8855460
  H        5.1908960     0.4200140     0.0002970
units angstrom
no_reorient  #important for SAPT in psi4, default
symmetry c1  #important for SAPT in psi4, default
}

set PROPERTIES_ORIGIN ["COM"]
properties('MP2/aug-cc-pvtz', properties = ['dipole'])
--------------------------------------------------------------------------

    Molecular point group: c1
  Charge       = 0
  Multiplicity = 1
  Basis Set: AUG-CC-PVTZ
    Blend: AUG-CC-PVTZ
  Basis Set: (AUG-CC-PVTZ AUX)
    Blend: AUG-CC-PVTZ-JKFIT

    Orbital Energies [Eh]
    ---------------------

    Doubly Occupied:

       1A    -11.260001     2A    -11.257715     3A    -11.246793
       4A    -11.246613     5A    -11.242758     6A    -11.241714
       7A    -11.227617     8A    -11.227491     9A     -1.093167
      10A     -1.078323    11A     -1.031156    12A     -0.972908
      13A     -0.889347    14A     -0.867619    15A     -0.785352
      16A     -0.655665    17A     -0.644737    18A     -0.629793
      19A     -0.627486    20A     -0.557095    21A     -0.552098
      22A     -0.526321    23A     -0.524555    24A     -0.517940
      25A     -0.513593    26A     -0.450928    27A     -0.450188
      28A     -0.328750    29A     -0.327917

  @DF-RHF Final Energy:  -308.76101682990083

   => Energetics <=

    Nuclear Repulsion Energy =            287.9303570091988718
    One-Electron Energy =                -985.4314678553072326
    Two-Electron Energy =                 388.7400940162074789
    Total Energy =                       -308.7610168299008251
  Basis Set: (AUG-CC-PVTZ AUX)
    Blend: AUG-CC-PVTZ-RI
    Molecular point group: c1

    Geometry (in Angstrom), charge = 0, multiplicity = 1:

       Center              X                  Y                   Z               Mass
    ------------   -----------------  -----------------  -----------------  -----------------
         C           -3.310414192989     0.664455600856    -0.000269076866    12.000000000000
         C            3.310506807011    -0.664663399144    -0.000270076866    12.000000000000
         C           -4.118914192989    -0.638302399144     0.000161923134    12.000000000000
         C            4.119002807011     0.638097600856     0.000161923134    12.000000000000
         C           -1.867822192989     0.422407600856    -0.000282076866    12.000000000000
         C            1.867914807011    -0.422619399144    -0.000281076866    12.000000000000
         C           -0.671661192989     0.137542600856    -0.000278076866    12.000000000000
         C            0.671753807011    -0.137754399144    -0.000278076866    12.000000000000
         H           -3.574637192989     1.266355600856    -0.878207076866     1.007825032230
         H           -3.579351592989     1.277858000856     0.893348723134     1.007825032230
         H            3.574731807011    -1.266562399144    -0.878208076866     1.007825032230
         H            3.574630807011    -1.267080399144     0.877343923134     1.007825032230
         H           -3.885783192989    -1.234247399144     0.885404923134     1.007825032230
         H           -3.885884192989    -1.234770399144    -0.884756076866     1.007825032230
         H           -5.190852192989    -0.420111399144     0.000157923134     1.007825032230
         H            3.885969807011     1.234564600856    -0.884756076866     1.007825032230
         H            3.885870807011     1.234040600856     0.885405923134     1.007825032230
         H            5.190941807011     0.419909600856     0.000156923134     1.007825032230

  Basis Set: AUG-CC-PVTZ
    Blend: AUG-CC-PVTZ
  Basis Set: (AUG-CC-PVTZ AUX)
    Blend: AUG-CC-PVTZ-JKFIT
	 Reference Energy          =    -308.7610168299008251 [Eh]
	 Singles Energy            =      -0.0000000000000000 [Eh]
	 Same-Spin Energy          =      -0.3334207674629304 [Eh]
	 Opposite-Spin Energy      =      -1.1364084688040275 [Eh]
	 Correlation Energy        =      -1.4698292362669578 [Eh]
	 Total Energy              =    -310.2308460661677714 [Eh]

	 ================> DF-SCS-MP2 Energies <==================
	-----------------------------------------------------------
	 SCS Same-Spin Scale       =       0.3333333333333333 [-]
	 SCS Opposite-Spin Scale   =       1.2000000000000000 [-]
	 SCS Same-Spin Energy      =      -0.1111402558209768 [Eh]
	 SCS Opposite-Spin Energy  =      -1.3636901625648330 [Eh]
	 SCS Correlation Energy    =      -1.4748304183858099 [Eh]
	 SCS Total Energy          =    -310.2358472482866318 [Eh]
	-----------------------------------------------------------

  Dipole Moment: [D]
     X:     0.0067      Y:    -0.0071      Z:    -0.0047     Total:     0.0109

*** Psi4 exiting successfully. Buy a developer a beer!
