                               Psi4 1.3.2 release

  ==> Input File <==

--------------------------------------------------------------------------
#psi4
#
memory 32 gb

molecule  {
0 1
  C       -3.3721060    -0.3925950    -0.0575320
  C        3.3720920    -0.3929730     0.0571420
  C       -3.9663747     1.0172545    -0.0152509
  C        3.9413990     1.0251120    -0.0302390
  C       -1.9110240    -0.4097670    -0.0329750
  C        1.9110920    -0.4103270     0.0325030
  C       -0.6837130    -0.4127480    -0.0120990
  C        0.6837810    -0.4128680     0.0116400
  H       -3.7516860    -0.9979840     0.7738320
  H       -3.7401281    -0.8440148    -0.9862582
  H        3.7518700    -0.9975380    -0.7747680
  H        3.7209340    -0.8772010     0.9767210
  H       -3.5935250     1.6324230    -0.8070360
  H       -3.6247440     1.5093170     0.9575960
  H       -5.0347610     1.0001480     0.0102760
  H        3.6246290     1.5100350    -0.9560070
  H        3.5933130     1.6313650     0.8087280
  H        5.0346230     0.9999160    -0.0090680
units angstrom
no_reorient  #important for SAPT in psi4, default
symmetry c1  #important for SAPT in psi4, default
}

set PROPERTIES_ORIGIN ["COM"]
properties('MP2/aug-cc-pvtz', properties = ['dipole'])
--------------------------------------------------------------------------

    Molecular point group: c1
  Charge       = 0
  Multiplicity = 1
  Basis Set: AUG-CC-PVTZ
    Blend: AUG-CC-PVTZ
  Basis Set: (AUG-CC-PVTZ AUX)
    Blend: AUG-CC-PVTZ-JKFIT

    Orbital Energies [Eh]
    ---------------------

    Doubly Occupied:

       1A    -11.257353     2A    -11.257103     3A    -11.246435
       4A    -11.246157     5A    -11.242149     6A    -11.240977
       7A    -11.227347     8A    -11.227097     9A     -1.094178
      10A     -1.079378    11A     -1.032923    12A     -0.974452
      13A     -0.890003    14A     -0.867809    15A     -0.786558
      16A     -0.657892    17A     -0.647795    18A     -0.630639
      19A     -0.628764    20A     -0.559791    21A     -0.554987
      22A     -0.533215    23A     -0.525792    24A     -0.516813
      25A     -0.501436    26A     -0.452300    27A     -0.450527
      28A     -0.329364    29A     -0.328345

  @DF-RHF Final Energy:  -308.75904635180274

   => Energetics <=

    Nuclear Repulsion Energy =            288.2213776001303245
    One-Electron Energy =                -985.9856930390383241
    Two-Electron Energy =                 389.0052690871052050
    Total Energy =                       -308.7590463518027377
  Basis Set: (AUG-CC-PVTZ AUX)
    Blend: AUG-CC-PVTZ-RI
    Molecular point group: c1

    Geometry (in Angstrom), charge = 0, multiplicity = 1:

       Center              X                  Y                   Z               Mass
    ------------   -----------------  -----------------  -----------------  -----------------
         C           -3.369109420661    -0.391984704726    -0.052179707472    12.000000000000
         C            3.375088579339    -0.392362704726     0.062494292528    12.000000000000
         C           -3.963378120661     1.017864795274    -0.009898607472    12.000000000000
         C            3.944395579339     1.025722295274    -0.024886707472    12.000000000000
         C           -1.908027420661    -0.409156704726    -0.027622707472    12.000000000000
         C            1.914088579339    -0.409716704726     0.037855292528    12.000000000000
         C           -0.680716420661    -0.412137704726    -0.006746707472    12.000000000000
         C            0.686777579339    -0.412257704726     0.016992292528    12.000000000000
         H           -3.748689420661    -0.997373704726     0.779184292528     1.007825032230
         H           -3.737131520661    -0.843404504726    -0.980905907472     1.007825032230
         H            3.754866579339    -0.996927704726    -0.769415707472     1.007825032230
         H            3.723930579339    -0.876590704726     0.982073292528     1.007825032230
         H           -3.590528420661     1.633033295274    -0.801683707472     1.007825032230
         H           -3.621747420661     1.509927295274     0.962948292528     1.007825032230
         H           -5.031764420661     1.000758295274     0.015628292528     1.007825032230
         H            3.627625579339     1.510645295274    -0.950654707472     1.007825032230
         H            3.596309579339     1.631975295274     0.814080292528     1.007825032230
         H            5.037619579339     1.000526295274    -0.003715707472     1.007825032230

  Basis Set: AUG-CC-PVTZ
    Blend: AUG-CC-PVTZ
  Basis Set: (AUG-CC-PVTZ AUX)
    Blend: AUG-CC-PVTZ-JKFIT
	 Reference Energy          =    -308.7590463518027377 [Eh]
	 Singles Energy            =      -0.0000000000000000 [Eh]
	 Same-Spin Energy          =      -0.3333500560199764 [Eh]
	 Opposite-Spin Energy      =      -1.1359550862051300 [Eh]
	 Correlation Energy        =      -1.4693051422251062 [Eh]
	 Total Energy              =    -310.2283514940278337 [Eh]

	 ================> DF-SCS-MP2 Energies <==================
	-----------------------------------------------------------
	 SCS Same-Spin Scale       =       0.3333333333333333 [-]
	 SCS Opposite-Spin Scale   =       1.2000000000000000 [-]
	 SCS Same-Spin Energy      =      -0.1111166853399921 [Eh]
	 SCS Opposite-Spin Energy  =      -1.3631461034461558 [Eh]
	 SCS Correlation Energy    =      -1.4742627887861479 [Eh]
	 SCS Total Energy          =    -310.2333091405888581 [Eh]
	-----------------------------------------------------------

  Dipole Moment: [D]
     X:     0.0243      Y:     0.2239      Z:    -0.0244     Total:     0.2265

*** Psi4 exiting successfully. Buy a developer a beer!
