                               Psi4 1.3.2 release

  ==> Input File <==

--------------------------------------------------------------------------
#psi4
#
memory 32 gb

molecule  {
0 1
  C       -3.3709742    -0.4690785    -0.0591708
  C        3.3720920    -0.3929730     0.0571420
  C       -3.9415050     1.0253280     0.0313370
  C        3.9413990     1.0251120    -0.0302390
  C       -1.9110240    -0.4097670    -0.0329750
  C        1.9110920    -0.4103270     0.0325030
  C       -0.6855273    -0.4769706    -0.0135222
  C        0.6837810    -0.4128680     0.0116400
  H       -3.7516860    -0.9979840     0.7738320
  H       -3.7208300    -0.8759060    -0.9776160
  H        3.7518700    -0.9975380    -0.7747680
  H        3.7209340    -0.8772010     0.9767210
  H       -3.5935250     1.6324230    -0.8070360
  H       -3.6247440     1.5093170     0.9575960
  H       -5.0347610     1.0001480     0.0102760
  H        3.6246290     1.5100350    -0.9560070
  H        3.5933130     1.6313650     0.8087280
  H        5.0346230     0.9999160    -0.0090680
units angstrom
no_reorient  #important for SAPT in psi4, default
symmetry c1  #important for SAPT in psi4, default
}

set PROPERTIES_ORIGIN ["COM"]
properties('MP2/aug-cc-pvtz', properties = ['dipole'])
--------------------------------------------------------------------------

    Molecular point group: c1
  Charge       = 0
  Multiplicity = 1
  Basis Set: AUG-CC-PVTZ
    Blend: AUG-CC-PVTZ
  Basis Set: (AUG-CC-PVTZ AUX)
    Blend: AUG-CC-PVTZ-JKFIT

    Orbital Energies [Eh]
    ---------------------

    Doubly Occupied:

       1A    -11.257003     2A    -11.254410     3A    -11.245877
       4A    -11.245511     5A    -11.241609     6A    -11.240558
       7A    -11.230404     8A    -11.226935     9A     -1.092485
      10A     -1.076125    11A     -1.029071    12A     -0.971518
      13A     -0.890235    14A     -0.869924    15A     -0.786100
      16A     -0.657372    17A     -0.646400    18A     -0.637629
      19A     -0.629956    20A     -0.554939    21A     -0.538888
      22A     -0.526519    23A     -0.525732    24A     -0.524390
      25A     -0.515972    26A     -0.452277    27A     -0.448215
      28A     -0.329406    29A     -0.327316

  @DF-RHF Final Energy:  -308.75759208050829

   => Energetics <=

    Nuclear Repulsion Energy =            287.7335224621406837
    One-Electron Energy =                -985.0366765377954152
    Two-Electron Energy =                 388.5455619951463859
    Total Energy =                       -308.7575920805082887
  Basis Set: (AUG-CC-PVTZ AUX)
    Blend: AUG-CC-PVTZ-RI
    Molecular point group: c1

    Geometry (in Angstrom), charge = 0, multiplicity = 1:

       Center              X                  Y                   Z               Mass
    ------------   -----------------  -----------------  -----------------  -----------------
         C           -3.370897121193    -0.453161278521    -0.058824440582    12.000000000000
         C            3.372169078807    -0.377055778521     0.057488359418    12.000000000000
         C           -3.941427921193     1.041245221479     0.031683359418    12.000000000000
         C            3.941476078807     1.041029221479    -0.029892640582    12.000000000000
         C           -1.910946921193    -0.393849778521    -0.032628640582    12.000000000000
         C            1.911169078807    -0.394409778521     0.032849359418    12.000000000000
         C           -0.685450221193    -0.461053378521    -0.013175840582    12.000000000000
         C            0.683858078807    -0.396950778521     0.011986359418    12.000000000000
         H           -3.751608921193    -0.982066778521     0.774178359418     1.007825032230
         H           -3.720752921193    -0.859988778521    -0.977269640582     1.007825032230
         H            3.751947078807    -0.981620778521    -0.774421640582     1.007825032230
         H            3.721011078807    -0.861283778521     0.977067359418     1.007825032230
         H           -3.593447921193     1.648340221479    -0.806689640582     1.007825032230
         H           -3.624666921193     1.525234221479     0.957942359418     1.007825032230
         H           -5.034683921193     1.016065221479     0.010622359418     1.007825032230
         H            3.624706078807     1.525952221479    -0.955660640582     1.007825032230
         H            3.593390078807     1.647282221479     0.809074359418     1.007825032230
         H            5.034700078807     1.015833221479    -0.008721640582     1.007825032230

  Basis Set: AUG-CC-PVTZ
    Blend: AUG-CC-PVTZ
  Basis Set: (AUG-CC-PVTZ AUX)
    Blend: AUG-CC-PVTZ-JKFIT
	 Reference Energy          =    -308.7575920805082887 [Eh]
	 Singles Energy            =      -0.0000000000000000 [Eh]
	 Same-Spin Energy          =      -0.3329972443393411 [Eh]
	 Opposite-Spin Energy      =      -1.1356878740125982 [Eh]
	 Correlation Energy        =      -1.4686851183519392 [Eh]
	 Total Energy              =    -310.2262771988602026 [Eh]

	 ================> DF-SCS-MP2 Energies <==================
	-----------------------------------------------------------
	 SCS Same-Spin Scale       =       0.3333333333333333 [-]
	 SCS Opposite-Spin Scale   =       1.2000000000000000 [-]
	 SCS Same-Spin Energy      =      -0.1109990814464470 [Eh]
	 SCS Opposite-Spin Energy  =      -1.3628254488151177 [Eh]
	 SCS Correlation Energy    =      -1.4738245302615647 [Eh]
	 SCS Total Energy          =    -310.2314166107698270 [Eh]
	-----------------------------------------------------------

  Dipole Moment: [D]
     X:    -0.0044      Y:     0.2002      Z:     0.0000     Total:     0.2003

*** Psi4 exiting successfully. Buy a developer a beer!
