                               Psi4 1.4a3.dev225

  ==> Input File <==

--------------------------------------------------------------------------
#psi4
#
memory 32 gb

molecule  {
0 1
  C       -3.3104600     0.6645600    -0.0001290
  C        3.3104610    -0.6645590    -0.0001300
  C       -4.1189600    -0.6381980     0.0003020
  C        4.1295032     0.6551955     0.0003076
  C       -1.8678680     0.4225120    -0.0001420
  C        1.8678690    -0.4225150    -0.0001410
  C       -0.6717070     0.1376470    -0.0001380
  C        0.6717080    -0.1376500    -0.0001380
  H       -3.5746830     1.2664600    -0.8780670
  H       -3.5745810     1.2669770     0.8774850
  H        3.5746860    -1.2664580    -0.8780680
  H        3.5745850    -1.2669760     0.8774840
  H       -3.8858290    -1.2341430     0.8855450
  H       -3.8859300    -1.2346660    -0.8846160
  H       -5.1908980    -0.4200070     0.0002980
  H        3.8859240     1.2346690    -0.8846160
  H        3.8858250     1.2341450     0.8855460
  H        5.1908960     0.4200140     0.0002970
units angstrom
no_reorient  #important for SAPT in psi4, default
symmetry c1  #important for SAPT in psi4, default
}

set PROPERTIES_ORIGIN ["COM"]
properties('MP2/aug-cc-pvtz', properties = ['dipole'])
--------------------------------------------------------------------------

    Molecular point group: c1
  Charge       = 0
  Multiplicity = 1
  Basis Set: AUG-CC-PVTZ
    Blend: AUG-CC-PVTZ
  Basis Set: (AUG-CC-PVTZ AUX)
    Blend: AUG-CC-PVTZ-JKFIT

    Orbital Energies [Eh]
    ---------------------

    Doubly Occupied:

       1A    -11.258246     2A    -11.257589     3A    -11.246565
       4A    -11.246389     5A    -11.242503     6A    -11.241454
       7A    -11.227389     8A    -11.227008     9A     -1.092523
      10A     -1.077225    11A     -1.030348    12A     -0.972544
      13A     -0.890502    14A     -0.868917    15A     -0.785450
      16A     -0.655548    17A     -0.644591    18A     -0.629920
      19A     -0.628549    20A     -0.555607    21A     -0.548984
      22A     -0.528470    23A     -0.525231    24A     -0.521029
      25A     -0.515311    26A     -0.450360    27A     -0.450126
      28A     -0.328255    29A     -0.327795

  @DF-RHF Final Energy:  -308.76140859855019

   => Energetics <=

    Nuclear Repulsion Energy =            287.7889184551995072
    One-Electron Energy =                -985.1517971778707761
    Two-Electron Energy =                 388.6014701241210219
    Total Energy =                       -308.7614085985501902
  Basis Set: (AUG-CC-PVTZ AUX)
    Blend: AUG-CC-PVTZ-RI
    Molecular point group: c1

    Geometry (in Angstrom), charge = 0, multiplicity = 1:

       Center              X                  Y                   Z               Mass
    ------------   -----------------  -----------------  -----------------  -----------------
         C           -3.311652981224     0.662637597276    -0.000117661942    12.000000000000
         C            3.309268018776    -0.666481402724    -0.000118661942    12.000000000000
         C           -4.120152981224    -0.640120402724     0.000313338058    12.000000000000
         C            4.128310218776     0.653273097276     0.000318938058    12.000000000000
         C           -1.869060981224     0.420589597276    -0.000130661942    12.000000000000
         C            1.866676018776    -0.424437402724    -0.000129661942    12.000000000000
         C           -0.672899981224     0.135724597276    -0.000126661942    12.000000000000
         C            0.670515018776    -0.139572402724    -0.000126661942    12.000000000000
         H           -3.575875981224     1.264537597276    -0.878055661942     1.007825032230
         H           -3.575773981224     1.265054597276     0.877496338058     1.007825032230
         H            3.573493018776    -1.268380402724    -0.878056661942     1.007825032230
         H            3.573392018776    -1.268898402724     0.877495338058     1.007825032230
         H           -3.887021981224    -1.236065402724     0.885556338058     1.007825032230
         H           -3.887122981224    -1.236588402724    -0.884604661942     1.007825032230
         H           -5.192090981224    -0.421929402724     0.000309338058     1.007825032230
         H            3.884731018776     1.232746597276    -0.884604661942     1.007825032230
         H            3.884632018776     1.232222597276     0.885557338058     1.007825032230
         H            5.189703018776     0.418091597276     0.000308338058     1.007825032230

  Basis Set: AUG-CC-PVTZ
    Blend: AUG-CC-PVTZ
  Basis Set: (AUG-CC-PVTZ AUX)
    Blend: AUG-CC-PVTZ-JKFIT
	 Reference Energy          =    -308.7614085985501902 [Eh]
	 Singles Energy            =      -0.0000000000000000 [Eh]
	 Same-Spin Energy          =      -0.3333209531929909 [Eh]
	 Opposite-Spin Energy      =      -1.1361972011381432 [Eh]
	 Correlation Energy        =      -1.4695181543311340 [Eh]
	 Total Energy              =    -310.2309267528813166 [Eh]

	 ================> DF-SCS-MP2 Energies <==================
	-----------------------------------------------------------
	 SCS Same-Spin Scale       =       0.3333333333333333 [-]
	 SCS Opposite-Spin Scale   =       1.2000000000000000 [-]
	 SCS Same-Spin Energy      =      -0.1111069843976636 [Eh]
	 SCS Opposite-Spin Energy  =      -1.3634366413657717 [Eh]
	 SCS Correlation Energy    =      -1.4745436257634352 [Eh]
	 SCS Total Energy          =    -310.2359522243136212 [Eh]
	-----------------------------------------------------------

  Dipole Moment: [D]
     X:     0.0133      Y:     0.0030      Z:     0.0001     Total:     0.0137

*** Psi4 exiting successfully. Buy a developer a beer!
