                               Psi4 1.3.2 release

  ==> Input File <==

--------------------------------------------------------------------------
#psi4
#
memory 32 gb

molecule  {
0 1
  C       -3.3721060    -0.3925950    -0.0575320
  C        3.3720920    -0.3929730     0.0571420
  C       -3.9415050     1.0253280     0.0313370
  C        3.9413990     1.0251120    -0.0302390
  C       -1.9110240    -0.4097670    -0.0329750
  C        1.9110920    -0.4103270     0.0325030
  C       -0.6837130    -0.4127480    -0.0120990
  C        0.5837961    -0.4128592     0.0099043
  H       -3.7516860    -0.9979840     0.7738320
  H       -3.7208300    -0.8759060    -0.9776160
  H        3.7518700    -0.9975380    -0.7747680
  H        3.7209340    -0.8772010     0.9767210
  H       -3.5935250     1.6324230    -0.8070360
  H       -3.6247440     1.5093170     0.9575960
  H       -5.0347610     1.0001480     0.0102760
  H        3.6246290     1.5100350    -0.9560070
  H        3.5933130     1.6313650     0.8087280
  H        5.0346230     0.9999160    -0.0090680
units angstrom
no_reorient  #important for SAPT in psi4, default
symmetry c1  #important for SAPT in psi4, default
}

set PROPERTIES_ORIGIN ["COM"]
properties('MP2/aug-cc-pvtz', properties = ['dipole'])
--------------------------------------------------------------------------

    Molecular point group: c1
  Charge       = 0
  Multiplicity = 1
  Basis Set: AUG-CC-PVTZ
    Blend: AUG-CC-PVTZ
  Basis Set: (AUG-CC-PVTZ AUX)
    Blend: AUG-CC-PVTZ-JKFIT

    Orbital Energies [Eh]
    ---------------------

    Doubly Occupied:

       1A    -11.272478     2A    -11.261669     3A    -11.257950
       4A    -11.253876     5A    -11.247064     6A    -11.230079
       7A    -11.228531     8A    -11.227631     9A     -1.098696
      10A     -1.078727    11A     -1.044095    12A     -0.958561
      13A     -0.898850    14A     -0.864854    15A     -0.801220
      16A     -0.657407    17A     -0.647828    18A     -0.632059
      19A     -0.630476    20A     -0.557347    21A     -0.554480
      22A     -0.527181    23A     -0.526227    24A     -0.519610
      25A     -0.514921    26A     -0.459690    27A     -0.458882
      28A     -0.306228    29A     -0.305293

  @DF-RHF Final Energy:  -308.71966434278102

   => Energetics <=

    Nuclear Repulsion Energy =            288.3246249902569502
    One-Electron Energy =                -986.0447540551939483
    Two-Electron Energy =                 389.0004647221560390
    Total Energy =                       -308.7196643427810159
  Basis Set: (AUG-CC-PVTZ AUX)
    Blend: AUG-CC-PVTZ-RI
    Molecular point group: c1

    Geometry (in Angstrom), charge = 0, multiplicity = 1:

       Center              X                  Y                   Z               Mass
    ------------   -----------------  -----------------  -----------------  -----------------
         C           -3.360795432741    -0.392596016189    -0.057335676993    12.000000000000
         C            3.383402567259    -0.392974016189     0.057338323007    12.000000000000
         C           -3.930194432741     1.025326983811     0.031533323007    12.000000000000
         C            3.952709567259     1.025110983811    -0.030042676993    12.000000000000
         C           -1.899713432741    -0.409768016189    -0.032778676993    12.000000000000
         C            1.922402567259    -0.410328016189     0.032699323007    12.000000000000
         C           -0.672402432741    -0.412749016189    -0.011902676993    12.000000000000
         C            0.595106667259    -0.412860216189     0.010100623007    12.000000000000
         H           -3.740375432741    -0.997985016189     0.774028323007     1.007825032230
         H           -3.709519432741    -0.875907016189    -0.977419676993     1.007825032230
         H            3.763180567259    -0.997539016189    -0.774571676993     1.007825032230
         H            3.732244567259    -0.877202016189     0.976917323007     1.007825032230
         H           -3.582214432741     1.632421983811    -0.806839676993     1.007825032230
         H           -3.613433432741     1.509315983811     0.957792323007     1.007825032230
         H           -5.023450432741     1.000146983811     0.010472323007     1.007825032230
         H            3.635939567259     1.510033983811    -0.955810676993     1.007825032230
         H            3.604623567259     1.631363983811     0.808924323007     1.007825032230
         H            5.045933567259     0.999914983811    -0.008871676993     1.007825032230

  Basis Set: AUG-CC-PVTZ
    Blend: AUG-CC-PVTZ
  Basis Set: (AUG-CC-PVTZ AUX)
    Blend: AUG-CC-PVTZ-JKFIT
	 Reference Energy          =    -308.7196643427810159 [Eh]
	 Singles Energy            =      -0.0000000000000000 [Eh]
	 Same-Spin Energy          =      -0.3415494870911377 [Eh]
	 Opposite-Spin Energy      =      -1.1482779118027435 [Eh]
	 Correlation Energy        =      -1.4898273988938813 [Eh]
	 Total Energy              =    -310.2094917416749240 [Eh]

	 ================> DF-SCS-MP2 Energies <==================
	-----------------------------------------------------------
	 SCS Same-Spin Scale       =       0.3333333333333333 [-]
	 SCS Opposite-Spin Scale   =       1.2000000000000000 [-]
	 SCS Same-Spin Energy      =      -0.1138498290303792 [Eh]
	 SCS Opposite-Spin Energy  =      -1.3779334941632921 [Eh]
	 SCS Correlation Energy    =      -1.4917833231936715 [Eh]
	 SCS Total Energy          =    -310.2114476659746742 [Eh]
	-----------------------------------------------------------

  Dipole Moment: [D]
     X:    -0.0173      Y:     0.2334      Z:    -0.0004     Total:     0.2340

*** Psi4 exiting successfully. Buy a developer a beer!
