                               Psi4 1.3.2 release

  ==> Input File <==

--------------------------------------------------------------------------
#psi4
#
memory 32 gb

molecule  {
0 1
  C       -3.3721060    -0.3925950    -0.0575320
  C        3.3720920    -0.3929730     0.0571420
  C       -3.9351780     1.0270768     0.0429693
  C        3.9413990     1.0251120    -0.0302390
  C       -1.9110240    -0.4097670    -0.0329750
  C        1.9110920    -0.4103270     0.0325030
  C       -0.6837130    -0.4127480    -0.0120990
  C        0.6837810    -0.4128680     0.0116400
  H       -3.7516860    -0.9979840     0.7738320
  H       -3.7159382    -0.8837883    -0.9752798
  H        3.7518700    -0.9975380    -0.7747680
  H        3.7209340    -0.8772010     0.9767210
  H       -3.5935250     1.6324230    -0.8070360
  H       -3.6247440     1.5093170     0.9575960
  H       -5.0347610     1.0001480     0.0102760
  H        3.6246290     1.5100350    -0.9560070
  H        3.5933130     1.6313650     0.8087280
  H        5.0346230     0.9999160    -0.0090680
units angstrom
no_reorient  #important for SAPT in psi4, default
symmetry c1  #important for SAPT in psi4, default
}

set PROPERTIES_ORIGIN ["COM"]
properties('MP2/aug-cc-pvtz', properties = ['dipole'])
--------------------------------------------------------------------------

    Molecular point group: c1
  Charge       = 0
  Multiplicity = 1
  Basis Set: AUG-CC-PVTZ
    Blend: AUG-CC-PVTZ
  Basis Set: (AUG-CC-PVTZ AUX)
    Blend: AUG-CC-PVTZ-JKFIT

    Orbital Energies [Eh]
    ---------------------

    Doubly Occupied:

       1A    -11.257184     2A    -11.257048     3A    -11.245655
       4A    -11.245494     5A    -11.241394     6A    -11.240308
       7A    -11.227344     8A    -11.227111     9A     -1.094021
      10A     -1.079366    11A     -1.032364    12A     -0.973670
      13A     -0.890018    14A     -0.868159    15A     -0.786179
      16A     -0.656440    17A     -0.646290    18A     -0.630967
      19A     -0.629623    20A     -0.555942    21A     -0.553150
      22A     -0.526311    23A     -0.525462    24A     -0.518338
      25A     -0.514452    26A     -0.451634    27A     -0.450829
      28A     -0.328712    29A     -0.327804

  @DF-RHF Final Energy:  -308.76227737385767

   => Energetics <=

    Nuclear Repulsion Energy =            288.3653181599794380
    One-Electron Energy =                -986.2926584024810381
    Two-Electron Energy =                 389.1650628686439291
    Total Energy =                       -308.7622773738576711
  Basis Set: (AUG-CC-PVTZ AUX)
    Blend: AUG-CC-PVTZ-RI
    Molecular point group: c1

    Geometry (in Angstrom), charge = 0, multiplicity = 1:

       Center              X                  Y                   Z               Mass
    ------------   -----------------  -----------------  -----------------  -----------------
         C           -3.372868340001    -0.392717964097    -0.058870114829    12.000000000000
         C            3.371329659999    -0.393095964097     0.055803885171    12.000000000000
         C           -3.935940340001     1.026953835903     0.041631185171    12.000000000000
         C            3.940636659999     1.024989035903    -0.031577114829    12.000000000000
         C           -1.911786340001    -0.409889964097    -0.034313114829    12.000000000000
         C            1.910329659999    -0.410449964097     0.031164885171    12.000000000000
         C           -0.684475340001    -0.412870964097    -0.013437114829    12.000000000000
         C            0.683018659999    -0.412990964097     0.010301885171    12.000000000000
         H           -3.752448340001    -0.998106964097     0.772493885171     1.007825032230
         H           -3.716700540001    -0.883911264097    -0.976617914829     1.007825032230
         H            3.751107659999    -0.997660964097    -0.776106114829     1.007825032230
         H            3.720171659999    -0.877323964097     0.975382885171     1.007825032230
         H           -3.594287340001     1.632300035903    -0.808374114829     1.007825032230
         H           -3.625506340001     1.509194035903     0.956257885171     1.007825032230
         H           -5.035523340001     1.000025035903     0.008937885171     1.007825032230
         H            3.623866659999     1.509912035903    -0.957345114829     1.007825032230
         H            3.592550659999     1.631242035903     0.807389885171     1.007825032230
         H            5.033860659999     0.999793035903    -0.010406114829     1.007825032230

  Basis Set: AUG-CC-PVTZ
    Blend: AUG-CC-PVTZ
  Basis Set: (AUG-CC-PVTZ AUX)
    Blend: AUG-CC-PVTZ-JKFIT
	 Reference Energy          =    -308.7622773738576711 [Eh]
	 Singles Energy            =      -0.0000000000000000 [Eh]
	 Same-Spin Energy          =      -0.3332826280849931 [Eh]
	 Opposite-Spin Energy      =      -1.1357311401085299 [Eh]
	 Correlation Energy        =      -1.4690137681935229 [Eh]
	 Total Energy              =    -310.2312911420511909 [Eh]

	 ================> DF-SCS-MP2 Energies <==================
	-----------------------------------------------------------
	 SCS Same-Spin Scale       =       0.3333333333333333 [-]
	 SCS Opposite-Spin Scale   =       1.2000000000000000 [-]
	 SCS Same-Spin Energy      =      -0.1110942093616644 [Eh]
	 SCS Opposite-Spin Energy  =      -1.3628773681302360 [Eh]
	 SCS Correlation Energy    =      -1.4739715774919002 [Eh]
	 SCS Total Energy          =    -310.2362489513495802 [Eh]
	-----------------------------------------------------------

  Dipole Moment: [D]
     X:    -0.0055      Y:     0.2248      Z:     0.0054     Total:     0.2249

*** Psi4 exiting successfully. Buy a developer a beer!
