                               Psi4 1.3.2 release

  ==> Input File <==

--------------------------------------------------------------------------
#psi4
#
memory 32 gb

molecule  {
0 1
  C       -3.3721060    -0.3925950    -0.0575320
  C        3.3720920    -0.3929730     0.0571420
  C       -3.9415050     1.0253280     0.0313370
  C        3.9413990     1.0251120    -0.0302390
  C       -1.9110240    -0.4097670    -0.0329750
  C        1.9110920    -0.4103270     0.0325030
  C       -0.6837130    -0.4127480    -0.0120990
  C        0.8837517    -0.4124540     0.0150393
  H       -3.7516860    -0.9979840     0.7738320
  H       -3.7208300    -0.8759060    -0.9776160
  H        3.7518700    -0.9975380    -0.7747680
  H        3.7209340    -0.8772010     0.9767210
  H       -3.5935250     1.6324230    -0.8070360
  H       -3.6247440     1.5093170     0.9575960
  H       -5.0347610     1.0001480     0.0102760
  H        3.6246290     1.5100350    -0.9560070
  H        3.5933130     1.6313650     0.8087280
  H        5.0346230     0.9999160    -0.0090680
units angstrom
no_reorient  #important for SAPT in psi4, default
symmetry c1  #important for SAPT in psi4, default
}

set PROPERTIES_ORIGIN ["COM"]
properties('MP2/aug-cc-pvtz', properties = ['dipole'])
--------------------------------------------------------------------------

    Molecular point group: c1
  Charge       = 0
  Multiplicity = 1
  Basis Set: AUG-CC-PVTZ
    Blend: AUG-CC-PVTZ
  Basis Set: (AUG-CC-PVTZ AUX)
    Blend: AUG-CC-PVTZ-JKFIT

    Orbital Energies [Eh]
    ---------------------

    Doubly Occupied:

       1A    -11.257114     2A    -11.256394     3A    -11.245999
       4A    -11.243227     5A    -11.226768     6A    -11.223419
       7A    -11.208583     8A    -11.183043     9A     -1.106468
      10A     -1.080843    11A     -1.029848    12A     -0.989020
      13A     -0.877563    14A     -0.868856    15A     -0.726273
      16A     -0.651645    17A     -0.639054    18A     -0.629731
      19A     -0.626961    20A     -0.555826    21A     -0.552593
      22A     -0.524875    23A     -0.521284    24A     -0.519631
      25A     -0.513924    26A     -0.459352    27A     -0.457508
      28A     -0.365097    29A     -0.364336

  @DF-RHF Final Energy:  -308.67204450224710

   => Energetics <=

    Nuclear Repulsion Energy =            289.6515383271220117
    One-Electron Energy =                -988.8366971425147085
    Two-Electron Energy =                 390.5131143131455929
    Total Energy =                       -308.6720445022471040
  Basis Set: (AUG-CC-PVTZ AUX)
    Blend: AUG-CC-PVTZ-RI
    Molecular point group: c1

    Geometry (in Angstrom), charge = 0, multiplicity = 1:

       Center              X                  Y                   Z               Mass
    ------------   -----------------  -----------------  -----------------  -----------------
         C           -3.394727621376    -0.392641854049    -0.057916568927    12.000000000000
         C            3.349470378624    -0.393019854049     0.056757431073    12.000000000000
         C           -3.964126621376     1.025281145951     0.030952431073    12.000000000000
         C            3.918777378624     1.025065145951    -0.030623568927    12.000000000000
         C           -1.933645621376    -0.409813854049    -0.033359568927    12.000000000000
         C            1.888470378624    -0.410373854049     0.032118431073    12.000000000000
         C           -0.706334621376    -0.412794854049    -0.012483568927    12.000000000000
         C            0.861130078624    -0.412500854049     0.014654731073    12.000000000000
         H           -3.774307621376    -0.998030854049     0.773447431073     1.007825032230
         H           -3.743451621376    -0.875952854049    -0.978000568927     1.007825032230
         H            3.729248378624    -0.997584854049    -0.775152568927     1.007825032230
         H            3.698312378624    -0.877247854049     0.976336431073     1.007825032230
         H           -3.616146621376     1.632376145951    -0.807420568927     1.007825032230
         H           -3.647365621376     1.509270145951     0.957211431073     1.007825032230
         H           -5.057382621376     1.000101145951     0.009891431073     1.007825032230
         H            3.602007378624     1.509988145951    -0.956391568927     1.007825032230
         H            3.570691378624     1.631318145951     0.808343431073     1.007825032230
         H            5.012001378624     0.999869145951    -0.009452568927     1.007825032230

  Basis Set: AUG-CC-PVTZ
    Blend: AUG-CC-PVTZ
  Basis Set: (AUG-CC-PVTZ AUX)
    Blend: AUG-CC-PVTZ-JKFIT
	 Reference Energy          =    -308.6720445022471040 [Eh]
	 Singles Energy            =      -0.0000000000000000 [Eh]
	 Same-Spin Energy          =      -0.3222359765870982 [Eh]
	 Opposite-Spin Energy      =      -1.1190722223639222 [Eh]
	 Correlation Energy        =      -1.4413081989510204 [Eh]
	 Total Energy              =    -310.1133527011980959 [Eh]

	 ================> DF-SCS-MP2 Energies <==================
	-----------------------------------------------------------
	 SCS Same-Spin Scale       =       0.3333333333333333 [-]
	 SCS Opposite-Spin Scale   =       1.2000000000000000 [-]
	 SCS Same-Spin Energy      =      -0.1074119921956994 [Eh]
	 SCS Opposite-Spin Energy  =      -1.3428866668367065 [Eh]
	 SCS Correlation Energy    =      -1.4502986590324058 [Eh]
	 SCS Total Energy          =    -310.1223431612795025 [Eh]
	-----------------------------------------------------------

  Dipole Moment: [D]
     X:    -0.1288      Y:     0.1972      Z:    -0.0003     Total:     0.2356

*** Psi4 exiting successfully. Buy a developer a beer!
