                               Psi4 1.4a3.dev225

  ==> Input File <==

--------------------------------------------------------------------------
#psi4
#
memory 32 gb

molecule  {
0 1
  C       -3.3104600     0.6645600    -0.0001290
  C        3.3104610    -0.6645590    -0.0001300
  C       -4.1189600    -0.6381980     0.0003020
  C        4.1189570     0.6382020     0.0003020
  C       -1.8678680     0.4225120    -0.0001420
  C        1.8678690    -0.4225150    -0.0001410
  C       -0.6717070     0.1376470    -0.0001380
  C        0.7206901    -0.1476876    -0.0001380
  H       -3.5746830     1.2664600    -0.8780670
  H       -3.5745810     1.2669770     0.8774850
  H        3.5746860    -1.2664580    -0.8780680
  H        3.5745850    -1.2669760     0.8774840
  H       -3.8858290    -1.2341430     0.8855450
  H       -3.8859300    -1.2346660    -0.8846160
  H       -5.1908980    -0.4200070     0.0002980
  H        3.8859240     1.2346690    -0.8846160
  H        3.8858250     1.2341450     0.8855460
  H        5.1908960     0.4200140     0.0002970
units angstrom
no_reorient  #important for SAPT in psi4, default
symmetry c1  #important for SAPT in psi4, default
}

set PROPERTIES_ORIGIN ["COM"]
properties('MP2/aug-cc-pvtz', properties = ['dipole'])
--------------------------------------------------------------------------

    Molecular point group: c1
  Charge       = 0
  Multiplicity = 1
  Basis Set: AUG-CC-PVTZ
    Blend: AUG-CC-PVTZ
  Basis Set: (AUG-CC-PVTZ AUX)
    Blend: AUG-CC-PVTZ-JKFIT

    Orbital Energies [Eh]
    ---------------------

    Doubly Occupied:

       1A    -11.257449     2A    -11.255064     3A    -11.248453
       4A    -11.244545     5A    -11.235738     6A    -11.229931
       7A    -11.227338     8A    -11.226608     9A     -1.093684
      10A     -1.079320    11A     -1.028310    12A     -0.979755
      13A     -0.885703    14A     -0.869102    15A     -0.773209
      16A     -0.655273    17A     -0.643830    18A     -0.629749
      19A     -0.628273    20A     -0.556561    21A     -0.551572
      22A     -0.525963    23A     -0.524077    24A     -0.517971
      25A     -0.513878    26A     -0.449488    27A     -0.448939
      28A     -0.339310    29A     -0.338613

  @DF-RHF Final Energy:  -308.76427894402957

   => Energetics <=

    Nuclear Repulsion Energy =            288.1789656160757431
    One-Electron Energy =                -985.9710733858846652
    Two-Electron Energy =                 389.0278288257793520
    Total Energy =                       -308.7642789440295701
  Basis Set: (AUG-CC-PVTZ AUX)
    Blend: AUG-CC-PVTZ-RI
    Molecular point group: c1

    Geometry (in Angstrom), charge = 0, multiplicity = 1:

       Center              X                  Y                   Z               Mass
    ------------   -----------------  -----------------  -----------------  -----------------
         C           -3.316001005428     0.665695464454    -0.000117028447    12.000000000000
         C            3.304919994572    -0.663423535546    -0.000118028447    12.000000000000
         C           -4.124501005428    -0.637062535546     0.000313971553    12.000000000000
         C            4.113415994572     0.639337464454     0.000313971553    12.000000000000
         C           -1.873409005428     0.423647464454    -0.000130028447    12.000000000000
         C            1.862327994572    -0.421379535546    -0.000129028447    12.000000000000
         C           -0.677248005428     0.138782464454    -0.000126028447    12.000000000000
         C            0.715149094572    -0.146552135546    -0.000126028447    12.000000000000
         H           -3.580224005428     1.267595464454    -0.878055028447     1.007825032230
         H           -3.580122005428     1.268112464454     0.877496971553     1.007825032230
         H            3.569144994572    -1.265322535546    -0.878056028447     1.007825032230
         H            3.569043994572    -1.265840535546     0.877495971553     1.007825032230
         H           -3.891370005428    -1.233007535546     0.885556971553     1.007825032230
         H           -3.891471005428    -1.233530535546    -0.884604028447     1.007825032230
         H           -5.196439005428    -0.418871535546     0.000309971553     1.007825032230
         H            3.880382994572     1.235804464454    -0.884604028447     1.007825032230
         H            3.880283994572     1.235280464454     0.885557971553     1.007825032230
         H            5.185354994572     0.421149464454     0.000308971553     1.007825032230

  Basis Set: AUG-CC-PVTZ
    Blend: AUG-CC-PVTZ
  Basis Set: (AUG-CC-PVTZ AUX)
    Blend: AUG-CC-PVTZ-JKFIT
	 Reference Energy          =    -308.7642789440295701 [Eh]
	 Singles Energy            =      -0.0000000000000000 [Eh]
	 Same-Spin Energy          =      -0.3300190824632354 [Eh]
	 Opposite-Spin Energy      =      -1.1312656878305625 [Eh]
	 Correlation Energy        =      -1.4612847702937979 [Eh]
	 Total Energy              =    -310.2255637143233571 [Eh]

	 ================> DF-SCS-MP2 Energies <==================
	-----------------------------------------------------------
	 SCS Same-Spin Scale       =       0.3333333333333333 [-]
	 SCS Opposite-Spin Scale   =       1.2000000000000000 [-]
	 SCS Same-Spin Energy      =      -0.1100063608210785 [Eh]
	 SCS Opposite-Spin Energy  =      -1.3575188253966750 [Eh]
	 SCS Correlation Energy    =      -1.4675251862177534 [Eh]
	 SCS Total Energy          =    -310.2318041302473262 [Eh]
	-----------------------------------------------------------

  Dipole Moment: [D]
     X:    -0.0189      Y:    -0.0023      Z:     0.0001     Total:     0.0190

*** Psi4 exiting successfully. Buy a developer a beer!
