                               Psi4 1.3.2 release

  ==> Input File <==

--------------------------------------------------------------------------
#psi4
#
memory 32 gb

molecule  {
0 1
  C       -3.3721060    -0.3925950    -0.0575320
  C        3.3720920    -0.3929730     0.0571420
  C       -3.9415050     1.0253280     0.0313370
  C        3.9413990     1.0251120    -0.0302390
  C       -1.9102812    -0.3674007    -0.0266293
  C        1.9110920    -0.4103270     0.0325030
  C       -0.6837130    -0.4127480    -0.0120990
  C        0.6828296    -0.3656602     0.0186800
  H       -3.7516860    -0.9979840     0.7738320
  H       -3.7208300    -0.8759060    -0.9776160
  H        3.7518700    -0.9975380    -0.7747680
  H        3.7209340    -0.8772010     0.9767210
  H       -3.5935250     1.6324230    -0.8070360
  H       -3.6247440     1.5093170     0.9575960
  H       -5.0347610     1.0001480     0.0102760
  H        3.6246290     1.5100350    -0.9560070
  H        3.5933130     1.6313650     0.8087280
  H        5.0346230     0.9999160    -0.0090680
units angstrom
no_reorient  #important for SAPT in psi4, default
symmetry c1  #important for SAPT in psi4, default
}

set PROPERTIES_ORIGIN ["COM"]
properties('MP2/aug-cc-pvtz', properties = ['dipole'])
--------------------------------------------------------------------------

    Molecular point group: c1
  Charge       = 0
  Multiplicity = 1
  Basis Set: AUG-CC-PVTZ
    Blend: AUG-CC-PVTZ
  Basis Set: (AUG-CC-PVTZ AUX)
    Blend: AUG-CC-PVTZ-JKFIT

    Orbital Energies [Eh]
    ---------------------

    Doubly Occupied:

       1A    -11.257247     2A    -11.257160     3A    -11.246298
       4A    -11.245693     5A    -11.241816     6A    -11.240667
       7A    -11.227172     8A    -11.226530     9A     -1.094214
      10A     -1.079559    11A     -1.032543    12A     -0.973428
      13A     -0.889220    14A     -0.867394    15A     -0.786103
      16A     -0.657873    17A     -0.647141    18A     -0.630785
      19A     -0.629493    20A     -0.555845    21A     -0.551748
      22A     -0.526156    23A     -0.525377    24A     -0.518133
      25A     -0.513947    26A     -0.451597    27A     -0.451026
      28A     -0.328583    29A     -0.328020

  @DF-RHF Final Energy:  -308.76141810710021

   => Energetics <=

    Nuclear Repulsion Energy =            288.4575060283922880
    One-Electron Energy =                -986.4763102750436019
    Two-Electron Energy =                 389.2573861395511585
    Total Energy =                       -308.7614181071002122
  Basis Set: (AUG-CC-PVTZ AUX)
    Blend: AUG-CC-PVTZ-RI
    Molecular point group: c1

    Geometry (in Angstrom), charge = 0, multiplicity = 1:

       Center              X                  Y                   Z               Mass
    ------------   -----------------  -----------------  -----------------  -----------------
         C           -3.372082530674    -0.402728004572    -0.059046270818    12.000000000000
         C            3.372115469326    -0.403106004572     0.055627729182    12.000000000000
         C           -3.941481530674     1.015194995428     0.029822729182    12.000000000000
         C            3.941422469326     1.014978995428    -0.031753270818    12.000000000000
         C           -1.910257730674    -0.377533704572    -0.028143570818    12.000000000000
         C            1.911115469326    -0.420460004572     0.030988729182    12.000000000000
         C           -0.683689530674    -0.422881004572    -0.013613270818    12.000000000000
         C            0.682853069326    -0.375793204572     0.017165729182    12.000000000000
         H           -3.751662530674    -1.008117004572     0.772317729182     1.007825032230
         H           -3.720806530674    -0.886039004572    -0.979130270818     1.007825032230
         H            3.751893469326    -1.007671004572    -0.776282270818     1.007825032230
         H            3.720957469326    -0.887334004572     0.975206729182     1.007825032230
         H           -3.593501530674     1.622289995428    -0.808550270818     1.007825032230
         H           -3.624720530674     1.499183995428     0.956081729182     1.007825032230
         H           -5.034737530674     0.990014995428     0.008761729182     1.007825032230
         H            3.624652469326     1.499901995428    -0.957521270818     1.007825032230
         H            3.593336469326     1.621231995428     0.807213729182     1.007825032230
         H            5.034646469326     0.989782995428    -0.010582270818     1.007825032230

  Basis Set: AUG-CC-PVTZ
    Blend: AUG-CC-PVTZ
  Basis Set: (AUG-CC-PVTZ AUX)
    Blend: AUG-CC-PVTZ-JKFIT
	 Reference Energy          =    -308.7614181071002122 [Eh]
	 Singles Energy            =      -0.0000000000000000 [Eh]
	 Same-Spin Energy          =      -0.3334238194959951 [Eh]
	 Opposite-Spin Energy      =      -1.1359947975407891 [Eh]
	 Correlation Energy        =      -1.4694186170367842 [Eh]
	 Total Energy              =    -310.2308367241370206 [Eh]

	 ================> DF-SCS-MP2 Energies <==================
	-----------------------------------------------------------
	 SCS Same-Spin Scale       =       0.3333333333333333 [-]
	 SCS Opposite-Spin Scale   =       1.2000000000000000 [-]
	 SCS Same-Spin Energy      =      -0.1111412731653317 [Eh]
	 SCS Opposite-Spin Energy  =      -1.3631937570489470 [Eh]
	 SCS Correlation Energy    =      -1.4743350302142786 [Eh]
	 SCS Total Energy          =    -310.2357531373144752 [Eh]
	-----------------------------------------------------------

  Dipole Moment: [D]
     X:     0.0191      Y:     0.1819      Z:    -0.0057     Total:     0.1830

*** Psi4 exiting successfully. Buy a developer a beer!
