                               Psi4 1.3.2 release

  ==> Input File <==

--------------------------------------------------------------------------
#psi4
#
memory 32 gb

molecule  {
0 1
  C       -3.3721060    -0.3925950    -0.0575320
  C        3.3720920    -0.3929730     0.0571420
  C       -3.9415050     1.0253280     0.0313370
  C        4.0157894     1.2104109    -0.0416569
  C       -1.9110240    -0.4097670    -0.0329750
  C        1.9110920    -0.4103270     0.0325030
  C       -0.6837130    -0.4127480    -0.0120990
  C        0.6837810    -0.4128680     0.0116400
  H       -3.7516860    -0.9979840     0.7738320
  H       -3.7208300    -0.8759060    -0.9776160
  H        3.7518700    -0.9975380    -0.7747680
  H        3.7209340    -0.8772010     0.9767210
  H       -3.5935250     1.6324230    -0.8070360
  H       -3.6247440     1.5093170     0.9575960
  H       -5.0347610     1.0001480     0.0102760
  H        3.6246290     1.5100350    -0.9560070
  H        3.5933130     1.6313650     0.8087280
  H        5.0346230     0.9999160    -0.0090680
units angstrom
no_reorient  #important for SAPT in psi4, default
symmetry c1  #important for SAPT in psi4, default
}

set PROPERTIES_ORIGIN ["COM"]
properties('MP2/aug-cc-pvtz', properties = ['dipole'])
--------------------------------------------------------------------------

    Molecular point group: c1
  Charge       = 0
  Multiplicity = 1
  Basis Set: AUG-CC-PVTZ
    Blend: AUG-CC-PVTZ
  Basis Set: (AUG-CC-PVTZ AUX)
    Blend: AUG-CC-PVTZ-JKFIT

    Orbital Energies [Eh]
    ---------------------

    Doubly Occupied:

       1A    -11.261478     2A    -11.256279     3A    -11.245093
       4A    -11.244228     5A    -11.240142     6A    -11.238690
       7A    -11.228669     8A    -11.226511     9A     -1.089894
      10A     -1.067579    11A     -1.023004    12A     -0.971327
      13A     -0.900083    14A     -0.872100    15A     -0.784518
      16A     -0.653477    17A     -0.643364    18A     -0.630122
      19A     -0.628994    20A     -0.567789    21A     -0.554093
      22A     -0.548697    23A     -0.525016    24A     -0.515553
      25A     -0.496903    26A     -0.450168    27A     -0.438432
      28A     -0.326434    29A     -0.323014

  @DF-RHF Final Energy:  -308.73675070337146

   => Energetics <=

    Nuclear Repulsion Energy =            286.1749060835312548
    One-Electron Energy =                -981.9200082488172256
    Two-Electron Energy =                 387.0083514619145149
    Total Energy =                       -308.7367507033714560
  Basis Set: (AUG-CC-PVTZ AUX)
    Blend: AUG-CC-PVTZ-RI
    Molecular point group: c1

    Geometry (in Angstrom), charge = 0, multiplicity = 1:

       Center              X                  Y                   Z               Mass
    ------------   -----------------  -----------------  -----------------  -----------------
         C           -3.380521470770    -0.413556780466    -0.056240387434    12.000000000000
         C            3.363676529230    -0.413934780466     0.058433612566    12.000000000000
         C           -3.949920470770     1.004366219534     0.032628612566    12.000000000000
         C            4.007373929230     1.189449119534    -0.040365287434    12.000000000000
         C           -1.919439470770    -0.430728780466    -0.031683387434    12.000000000000
         C            1.902676529230    -0.431288780466     0.033794612566    12.000000000000
         C           -0.692128470770    -0.433709780466    -0.010807387434    12.000000000000
         C            0.675365529230    -0.433829780466     0.012931612566    12.000000000000
         H           -3.760101470770    -1.018945780466     0.775123612566     1.007825032230
         H           -3.729245470770    -0.896867780466    -0.976324387434     1.007825032230
         H            3.743454529230    -1.018499780466    -0.773476387434     1.007825032230
         H            3.712518529230    -0.898162780466     0.978012612566     1.007825032230
         H           -3.601940470770     1.611461219534    -0.805744387434     1.007825032230
         H           -3.633159470770     1.488355219534     0.958887612566     1.007825032230
         H           -5.043176470770     0.979186219534     0.011567612566     1.007825032230
         H            3.616213529230     1.489073219534    -0.954715387434     1.007825032230
         H            3.584897529230     1.610403219534     0.810019612566     1.007825032230
         H            5.026207529230     0.978954219534    -0.007776387434     1.007825032230

  Basis Set: AUG-CC-PVTZ
    Blend: AUG-CC-PVTZ
  Basis Set: (AUG-CC-PVTZ AUX)
    Blend: AUG-CC-PVTZ-JKFIT
	 Reference Energy          =    -308.7367507033714560 [Eh]
	 Singles Energy            =      -0.0000000000000000 [Eh]
	 Same-Spin Energy          =      -0.3335055505871348 [Eh]
	 Opposite-Spin Energy      =      -1.1368831461883604 [Eh]
	 Correlation Energy        =      -1.4703886967754951 [Eh]
	 Total Energy              =    -310.2071394001469571 [Eh]

	 ================> DF-SCS-MP2 Energies <==================
	-----------------------------------------------------------
	 SCS Same-Spin Scale       =       0.3333333333333333 [-]
	 SCS Opposite-Spin Scale   =       1.2000000000000000 [-]
	 SCS Same-Spin Energy      =      -0.1111685168623782 [Eh]
	 SCS Opposite-Spin Energy  =      -1.3642597754260324 [Eh]
	 SCS Correlation Energy    =      -1.4754282922884105 [Eh]
	 SCS Total Energy          =    -310.2121789956598832 [Eh]
	-----------------------------------------------------------

  Dipole Moment: [D]
     X:     0.0857      Y:     0.2410      Z:     0.0004     Total:     0.2558

*** Psi4 exiting successfully. Buy a developer a beer!
