                               Psi4 1.4a3.dev225

  ==> Input File <==

--------------------------------------------------------------------------
#psi4
#
memory 32 gb

molecule  {
0 1
  C       -3.3104600     0.6645600    -0.0001290
  C        3.3104610    -0.6645590    -0.0001300
  C       -4.1189600    -0.6381980     0.0003020
  C        4.1189570     0.6382020     0.0003020
  C       -1.8678680     0.4225120    -0.0001420
  C        1.8678690    -0.4225150    -0.0001410
  C       -0.6717070     0.1376470    -0.0001380
  C        0.6522521    -0.1330166    -0.0001380
  H       -3.5746830     1.2664600    -0.8780670
  H       -3.5745810     1.2669770     0.8774850
  H        3.5746860    -1.2664580    -0.8780680
  H        3.5745850    -1.2669760     0.8774840
  H       -3.8858290    -1.2341430     0.8855450
  H       -3.8859300    -1.2346660    -0.8846160
  H       -5.1908980    -0.4200070     0.0002980
  H        3.8859240     1.2346690    -0.8846160
  H        3.8858250     1.2341450     0.8855460
  H        5.1908960     0.4200140     0.0002970
units angstrom
no_reorient  #important for SAPT in psi4, default
symmetry c1  #important for SAPT in psi4, default
}

set PROPERTIES_ORIGIN ["COM"]
properties('MP2/aug-cc-pvtz', properties = ['dipole'])
--------------------------------------------------------------------------

    Molecular point group: c1
  Charge       = 0
  Multiplicity = 1
  Basis Set: AUG-CC-PVTZ
    Blend: AUG-CC-PVTZ
  Basis Set: (AUG-CC-PVTZ AUX)
    Blend: AUG-CC-PVTZ-JKFIT

    Orbital Energies [Eh]
    ---------------------

    Doubly Occupied:

       1A    -11.258675     2A    -11.257795     3A    -11.252010
       4A    -11.246637     5A    -11.245490     6A    -11.240248
       7A    -11.227775     8A    -11.227529     9A     -1.093718
      10A     -1.078507    11A     -1.033161    12A     -0.969800
      13A     -0.891276    14A     -0.867626    15A     -0.789789
      16A     -0.656324    17A     -0.645433    18A     -0.630442
      19A     -0.629116    20A     -0.557212    21A     -0.552198
      22A     -0.526714    23A     -0.525002    24A     -0.518436
      25A     -0.514284    26A     -0.451947    27A     -0.451471
      28A     -0.324306    29A     -0.323551

  @DF-RHF Final Energy:  -308.75686124712047

   => Energetics <=

    Nuclear Repulsion Energy =            287.9805273007496567
    One-Electron Energy =                -985.5018331807443701
    Two-Electron Energy =                 388.7644446328743015
    Total Energy =                       -308.7568612471204688
  Basis Set: (AUG-CC-PVTZ AUX)
    Blend: AUG-CC-PVTZ-RI
    Molecular point group: c1

    Geometry (in Angstrom), charge = 0, multiplicity = 1:

       Center              X                  Y                   Z               Mass
    ------------   -----------------  -----------------  -----------------  -----------------
         C           -3.308259022529     0.664035821696    -0.000117028447    12.000000000000
         C            3.312661977471    -0.665083178304    -0.000118028447    12.000000000000
         C           -4.116759022529    -0.638722178304     0.000313971553    12.000000000000
         C            4.121157977471     0.637677821696     0.000313971553    12.000000000000
         C           -1.865667022529     0.421987821696    -0.000130028447    12.000000000000
         C            1.870069977471    -0.423039178304    -0.000129028447    12.000000000000
         C           -0.669506022529     0.137122821696    -0.000126028447    12.000000000000
         C            0.654453077471    -0.133540778304    -0.000126028447    12.000000000000
         H           -3.572482022529     1.265935821696    -0.878055028447     1.007825032230
         H           -3.572380022529     1.266452821696     0.877496971553     1.007825032230
         H            3.576886977471    -1.266982178304    -0.878056028447     1.007825032230
         H            3.576785977471    -1.267500178304     0.877495971553     1.007825032230
         H           -3.883628022529    -1.234667178304     0.885556971553     1.007825032230
         H           -3.883729022529    -1.235190178304    -0.884604028447     1.007825032230
         H           -5.188697022529    -0.420531178304     0.000309971553     1.007825032230
         H            3.888124977471     1.234144821696    -0.884604028447     1.007825032230
         H            3.888025977471     1.233620821696     0.885557971553     1.007825032230
         H            5.193096977471     0.419489821696     0.000308971553     1.007825032230

  Basis Set: AUG-CC-PVTZ
    Blend: AUG-CC-PVTZ
  Basis Set: (AUG-CC-PVTZ AUX)
    Blend: AUG-CC-PVTZ-JKFIT
	 Reference Energy          =    -308.7568612471204688 [Eh]
	 Singles Energy            =      -0.0000000000000000 [Eh]
	 Same-Spin Energy          =      -0.3348905538806069 [Eh]
	 Opposite-Spin Energy      =      -1.1384873371181630 [Eh]
	 Correlation Energy        =      -1.4733778909987698 [Eh]
	 Total Energy              =    -310.2302391381192592 [Eh]

	 ================> DF-SCS-MP2 Energies <==================
	-----------------------------------------------------------
	 SCS Same-Spin Scale       =       0.3333333333333333 [-]
	 SCS Opposite-Spin Scale   =       1.2000000000000000 [-]
	 SCS Same-Spin Energy      =      -0.1116301846268690 [Eh]
	 SCS Opposite-Spin Energy  =      -1.3661848045417955 [Eh]
	 SCS Correlation Energy    =      -1.4778149891686645 [Eh]
	 SCS Total Energy          =    -310.2346762362891468 [Eh]
	-----------------------------------------------------------

  Dipole Moment: [D]
     X:     0.0030      Y:     0.0014      Z:     0.0001     Total:     0.0033

*** Psi4 exiting successfully. Buy a developer a beer!
