                               Psi4 1.3.2 release

  ==> Input File <==

--------------------------------------------------------------------------
#psi4
#
memory 32 gb

molecule  {
0 1
  C       -3.3721060    -0.3925950    -0.0575320
  C        3.3720920    -0.3929730     0.0571420
  C       -3.8915851     1.0442302     0.0335355
  C        3.9413990     1.0251120    -0.0302390
  C       -1.9113759    -0.3588819    -0.0294318
  C        1.9110920    -0.4103270     0.0325030
  C       -0.6837130    -0.4127480    -0.0120990
  C        0.6837810    -0.4128680     0.0116400
  H       -3.7516860    -0.9979840     0.7738320
  H       -3.7208300    -0.8759060    -0.9776160
  H        3.7518700    -0.9975380    -0.7747680
  H        3.7209340    -0.8772010     0.9767210
  H       -3.5935250     1.6324230    -0.8070360
  H       -3.6247440     1.5093170     0.9575960
  H       -5.0347610     1.0001480     0.0102760
  H        3.6246290     1.5100350    -0.9560070
  H        3.5933130     1.6313650     0.8087280
  H        5.0346230     0.9999160    -0.0090680
units angstrom
no_reorient  #important for SAPT in psi4, default
symmetry c1  #important for SAPT in psi4, default
}

set PROPERTIES_ORIGIN ["COM"]
properties('MP2/aug-cc-pvtz', properties = ['dipole'])
--------------------------------------------------------------------------

    Molecular point group: c1
  Charge       = 0
  Multiplicity = 1
  Basis Set: AUG-CC-PVTZ
    Blend: AUG-CC-PVTZ
  Basis Set: (AUG-CC-PVTZ AUX)
    Blend: AUG-CC-PVTZ-JKFIT

    Orbital Energies [Eh]
    ---------------------

    Doubly Occupied:

       1A    -11.257641     2A    -11.257024     3A    -11.245566
       4A    -11.245375     5A    -11.241386     6A    -11.240313
       7A    -11.227125     8A    -11.227051     9A     -1.094519
      10A     -1.080114    11A     -1.032410    12A     -0.972990
      13A     -0.889006    14A     -0.867473    15A     -0.786304
      16A     -0.657385    17A     -0.646712    18A     -0.635688
      19A     -0.629984    20A     -0.555358    21A     -0.549773
      22A     -0.526797    23A     -0.525515    24A     -0.515882
      25A     -0.515143    26A     -0.451074    27A     -0.450822
      28A     -0.327958    29A     -0.327835

  @DF-RHF Final Energy:  -308.75820534541447

   => Energetics <=

    Nuclear Repulsion Energy =            288.6681955173008873
    One-Electron Energy =                -986.8923542949718239
    Two-Electron Energy =                 389.4659534322564696
    Total Energy =                       -308.7582053454144670
  Basis Set: (AUG-CC-PVTZ AUX)
    Blend: AUG-CC-PVTZ-RI
    Molecular point group: c1

    Geometry (in Angstrom), charge = 0, multiplicity = 1:

       Center              X                  Y                   Z               Mass
    ------------   -----------------  -----------------  -----------------  -----------------
         C           -3.377713460654    -0.400489641861    -0.058181550673    12.000000000000
         C            3.366484539346    -0.400867641861     0.056492449327    12.000000000000
         C           -3.897192560654     1.036335558139     0.032885949327    12.000000000000
         C            3.935791539346     1.017217358139    -0.030888550673    12.000000000000
         C           -1.916983360654    -0.366776541861    -0.030081350673    12.000000000000
         C            1.905484539346    -0.418221641861     0.031853449327    12.000000000000
         C           -0.689320460654    -0.420642641861    -0.012748550673    12.000000000000
         C            0.678173539346    -0.420762641861     0.010990449327    12.000000000000
         H           -3.757293460654    -1.005878641861     0.773182449327     1.007825032230
         H           -3.726437460654    -0.883800641861    -0.978265550673     1.007825032230
         H            3.746262539346    -1.005432641861    -0.775417550673     1.007825032230
         H            3.715326539346    -0.885095641861     0.976071449327     1.007825032230
         H           -3.599132460654     1.624528358139    -0.807685550673     1.007825032230
         H           -3.630351460654     1.501422358139     0.956946449327     1.007825032230
         H           -5.040368460654     0.992253358139     0.009626449327     1.007825032230
         H            3.619021539346     1.502140358139    -0.956656550673     1.007825032230
         H            3.587705539346     1.623470358139     0.808078449327     1.007825032230
         H            5.029015539346     0.992021358139    -0.009717550673     1.007825032230

  Basis Set: AUG-CC-PVTZ
    Blend: AUG-CC-PVTZ
  Basis Set: (AUG-CC-PVTZ AUX)
    Blend: AUG-CC-PVTZ-JKFIT
	 Reference Energy          =    -308.7582053454144670 [Eh]
	 Singles Energy            =      -0.0000000000000000 [Eh]
	 Same-Spin Energy          =      -0.3335053045659351 [Eh]
	 Opposite-Spin Energy      =      -1.1361543558649743 [Eh]
	 Correlation Energy        =      -1.4696596604309093 [Eh]
	 Total Energy              =    -310.2278650058453877 [Eh]

	 ================> DF-SCS-MP2 Energies <==================
	-----------------------------------------------------------
	 SCS Same-Spin Scale       =       0.3333333333333333 [-]
	 SCS Opposite-Spin Scale   =       1.2000000000000000 [-]
	 SCS Same-Spin Energy      =      -0.1111684348553117 [Eh]
	 SCS Opposite-Spin Energy  =      -1.3633852270379692 [Eh]
	 SCS Correlation Energy    =      -1.4745536618932809 [Eh]
	 SCS Total Energy          =    -310.2327590073077204 [Eh]
	-----------------------------------------------------------

  Dipole Moment: [D]
     X:     0.0179      Y:     0.1882      Z:    -0.0020     Total:     0.1890

*** Psi4 exiting successfully. Buy a developer a beer!
