                               Psi4 1.3.2 release

  ==> Input File <==

--------------------------------------------------------------------------
#psi4
#
memory 32 gb

molecule  {
0 1
  C       -3.3721060    -0.3925950    -0.0575320
  C        3.3720920    -0.3929730     0.0571420
  C       -3.9415050     1.0253280     0.0313370
  C        3.9413990     1.0251120    -0.0302390
  C       -1.9093492    -0.3462350    -0.0234493
  C        1.9110920    -0.4103270     0.0325030
  C       -0.6837130    -0.4127480    -0.0120990
  C        0.6817295    -0.3420742     0.0221864
  H       -3.7516860    -0.9979840     0.7738320
  H       -3.7208300    -0.8759060    -0.9776160
  H        3.7518700    -0.9975380    -0.7747680
  H        3.7209340    -0.8772010     0.9767210
  H       -3.5935250     1.6324230    -0.8070360
  H       -3.6247440     1.5093170     0.9575960
  H       -5.0347610     1.0001480     0.0102760
  H        3.6246290     1.5100350    -0.9560070
  H        3.5933130     1.6313650     0.8087280
  H        5.0346230     0.9999160    -0.0090680
units angstrom
no_reorient  #important for SAPT in psi4, default
symmetry c1  #important for SAPT in psi4, default
}

set PROPERTIES_ORIGIN ["COM"]
properties('MP2/aug-cc-pvtz', properties = ['dipole'])
--------------------------------------------------------------------------

    Molecular point group: c1
  Charge       = 0
  Multiplicity = 1
  Basis Set: AUG-CC-PVTZ
    Blend: AUG-CC-PVTZ
  Basis Set: (AUG-CC-PVTZ AUX)
    Blend: AUG-CC-PVTZ-JKFIT

    Orbital Energies [Eh]
    ---------------------

    Doubly Occupied:

       1A    -11.257401     2A    -11.257233     3A    -11.247012
       4A    -11.245721     5A    -11.242246     6A    -11.240835
       7A    -11.227242     8A    -11.226200     9A     -1.094271
      10A     -1.079606    11A     -1.032613    12A     -0.973108
      13A     -0.888864    14A     -0.866955    15A     -0.785789
      16A     -0.658489    17A     -0.647204    18A     -0.630786
      19A     -0.629465    20A     -0.555968    21A     -0.550439
      22A     -0.526345    23A     -0.525326    24A     -0.517974
      25A     -0.513790    26A     -0.451499    27A     -0.451018
      28A     -0.328373    29A     -0.327923

  @DF-RHF Final Energy:  -308.76015134586169

   => Energetics <=

    Nuclear Repulsion Energy =            288.4912325850726234
    One-Electron Energy =                -986.5433755466430057
    Two-Electron Energy =                 389.2919916157086391
    Total Energy =                       -308.7601513458616864
  Basis Set: (AUG-CC-PVTZ AUX)
    Blend: AUG-CC-PVTZ-RI
    Molecular point group: c1

    Geometry (in Angstrom), charge = 0, multiplicity = 1:

       Center              X                  Y                   Z               Mass
    ------------   -----------------  -----------------  -----------------  -----------------
         C           -3.372063514523    -0.407790497575    -0.059802663385    12.000000000000
         C            3.372134485477    -0.408168497575     0.054871336615    12.000000000000
         C           -3.941462514523     1.010132502425     0.029066336615    12.000000000000
         C            3.941441485477     1.009916502425    -0.032509663385    12.000000000000
         C           -1.909306714523    -0.361430497575    -0.025719963385    12.000000000000
         C            1.911134485477    -0.425522497575     0.030232336615    12.000000000000
         C           -0.683670514523    -0.427943497575    -0.014369663385    12.000000000000
         C            0.681771985477    -0.357269697575     0.019915736615    12.000000000000
         H           -3.751643514523    -1.013179497575     0.771561336615     1.007825032230
         H           -3.720787514523    -0.891101497575    -0.979886663385     1.007825032230
         H            3.751912485477    -1.012733497575    -0.777038663385     1.007825032230
         H            3.720976485477    -0.892396497575     0.974450336615     1.007825032230
         H           -3.593482514523     1.617227502425    -0.809306663385     1.007825032230
         H           -3.624701514523     1.494121502425     0.955325336615     1.007825032230
         H           -5.034718514523     0.984952502425     0.008005336615     1.007825032230
         H            3.624671485477     1.494839502425    -0.958277663385     1.007825032230
         H            3.593355485477     1.616169502425     0.806457336615     1.007825032230
         H            5.034665485477     0.984720502425    -0.011338663385     1.007825032230

  Basis Set: AUG-CC-PVTZ
    Blend: AUG-CC-PVTZ
  Basis Set: (AUG-CC-PVTZ AUX)
    Blend: AUG-CC-PVTZ-JKFIT
	 Reference Energy          =    -308.7601513458616864 [Eh]
	 Singles Energy            =      -0.0000000000000000 [Eh]
	 Same-Spin Energy          =      -0.3335666375990788 [Eh]
	 Opposite-Spin Energy      =      -1.1363311992588692 [Eh]
	 Correlation Energy        =      -1.4698978368579481 [Eh]
	 Total Energy              =    -310.2300491827196538 [Eh]

	 ================> DF-SCS-MP2 Energies <==================
	-----------------------------------------------------------
	 SCS Same-Spin Scale       =       0.3333333333333333 [-]
	 SCS Opposite-Spin Scale   =       1.2000000000000000 [-]
	 SCS Same-Spin Energy      =      -0.1111888791996929 [Eh]
	 SCS Opposite-Spin Energy  =      -1.3635974391106429 [Eh]
	 SCS Correlation Energy    =      -1.4747863183103358 [Eh]
	 SCS Total Energy          =    -310.2349376641720369 [Eh]
	-----------------------------------------------------------

  Dipole Moment: [D]
     X:     0.0341      Y:     0.1605      Z:    -0.0087     Total:     0.1643

*** Psi4 exiting successfully. Buy a developer a beer!
