                               Psi4 1.3.2 release

  ==> Input File <==

--------------------------------------------------------------------------
#psi4
#
memory 32 gb

molecule  {
0 1
  C       -3.3721060    -0.3925950    -0.0575320
  C        3.3720920    -0.3929730     0.0571420
  C       -3.9415050     1.0253280     0.0313370
  C        3.9413990     1.0251120    -0.0302390
  C       -1.7110660    -0.4121171    -0.0296142
  C        1.9110920    -0.4103270     0.0325030
  C       -0.6837130    -0.4127480    -0.0120990
  C        0.6837810    -0.4128680     0.0116400
  H       -3.7516860    -0.9979840     0.7738320
  H       -3.7208300    -0.8759060    -0.9776160
  H        3.7518700    -0.9975380    -0.7747680
  H        3.7209340    -0.8772010     0.9767210
  H       -3.5935250     1.6324230    -0.8070360
  H       -3.6247440     1.5093170     0.9575960
  H       -5.0347610     1.0001480     0.0102760
  H        3.6246290     1.5100350    -0.9560070
  H        3.5933130     1.6313650     0.8087280
  H        5.0346230     0.9999160    -0.0090680
units angstrom
no_reorient  #important for SAPT in psi4, default
symmetry c1  #important for SAPT in psi4, default
}

set PROPERTIES_ORIGIN ["COM"]
properties('MP2/aug-cc-pvtz', properties = ['dipole'])
--------------------------------------------------------------------------

    Molecular point group: c1
  Charge       = 0
  Multiplicity = 1
  Basis Set: AUG-CC-PVTZ
    Blend: AUG-CC-PVTZ
  Basis Set: (AUG-CC-PVTZ AUX)
    Blend: AUG-CC-PVTZ-JKFIT

    Orbital Energies [Eh]
    ---------------------

    Doubly Occupied:

       1A    -11.269296     2A    -11.254669     3A    -11.239935
       4A    -11.233716     5A    -11.225911     6A    -11.225585
       7A    -11.194916     8A    -11.179930     9A     -1.101974
      10A     -1.075246    11A     -1.031335    12A     -0.989310
      13A     -0.880003    14A     -0.853605    15A     -0.783975
      16A     -0.648713    17A     -0.628271    18A     -0.621538
      19A     -0.618442    20A     -0.553502    21A     -0.540924
      22A     -0.523781    23A     -0.518936    24A     -0.512883
      25A     -0.510784    26A     -0.481387    27A     -0.478362
      28A     -0.351293    29A     -0.350568

  @DF-RHF Final Energy:  -308.67317501937407

   => Energetics <=

    Nuclear Repulsion Energy =            290.1407934952367782
    One-Electron Energy =                -989.8703566293411313
    Two-Electron Energy =                 391.0563881147303391
    Total Energy =                       -308.6731750193740709
  Basis Set: (AUG-CC-PVTZ AUX)
    Blend: AUG-CC-PVTZ-RI
    Molecular point group: c1

    Geometry (in Angstrom), charge = 0, multiplicity = 1:

       Center              X                  Y                   Z               Mass
    ------------   -----------------  -----------------  -----------------  -----------------
         C           -3.394726184700    -0.392329167896    -0.057912213652    12.000000000000
         C            3.349471815300    -0.392707167896     0.056761786348    12.000000000000
         C           -3.964125184700     1.025593832104     0.030956786348    12.000000000000
         C            3.918778815300     1.025377832104    -0.030619213652    12.000000000000
         C           -1.733686184700    -0.411851267896    -0.029994413652    12.000000000000
         C            1.888471815300    -0.410061167896     0.032122786348    12.000000000000
         C           -0.706333184700    -0.412482167896    -0.012479213652    12.000000000000
         C            0.661160815300    -0.412602167896     0.011259786348    12.000000000000
         H           -3.774306184700    -0.997718167896     0.773451786348     1.007825032230
         H           -3.743450184700    -0.875640167896    -0.977996213652     1.007825032230
         H            3.729249815300    -0.997272167896    -0.775148213652     1.007825032230
         H            3.698313815300    -0.876935167896     0.976340786348     1.007825032230
         H           -3.616145184700     1.632688832104    -0.807416213652     1.007825032230
         H           -3.647364184700     1.509582832104     0.957215786348     1.007825032230
         H           -5.057381184700     1.000413832104     0.009895786348     1.007825032230
         H            3.602008815300     1.510300832104    -0.956387213652     1.007825032230
         H            3.570692815300     1.631630832104     0.808347786348     1.007825032230
         H            5.012002815300     1.000181832104    -0.009448213652     1.007825032230

  Basis Set: AUG-CC-PVTZ
    Blend: AUG-CC-PVTZ
  Basis Set: (AUG-CC-PVTZ AUX)
    Blend: AUG-CC-PVTZ-JKFIT
	 Reference Energy          =    -308.6731750193740709 [Eh]
	 Singles Energy            =      -0.0000000000000000 [Eh]
	 Same-Spin Energy          =      -0.3233815900156962 [Eh]
	 Opposite-Spin Energy      =      -1.1205247052861829 [Eh]
	 Correlation Energy        =      -1.4439062953018791 [Eh]
	 Total Energy              =    -310.1170813146759428 [Eh]

	 ================> DF-SCS-MP2 Energies <==================
	-----------------------------------------------------------
	 SCS Same-Spin Scale       =       0.3333333333333333 [-]
	 SCS Opposite-Spin Scale   =       1.2000000000000000 [-]
	 SCS Same-Spin Energy      =      -0.1077938633385654 [Eh]
	 SCS Opposite-Spin Energy  =      -1.3446296463434193 [Eh]
	 SCS Correlation Energy    =      -1.4524235096819846 [Eh]
	 SCS Total Energy          =    -310.1255985290560488 [Eh]
	-----------------------------------------------------------

  Dipole Moment: [D]
     X:    -0.0919      Y:     0.2397      Z:     0.0007     Total:     0.2567

*** Psi4 exiting successfully. Buy a developer a beer!
