                               Psi4 1.3.2 release

  ==> Input File <==

--------------------------------------------------------------------------
#psi4
#
memory 32 gb

molecule  {
0 1
  C       -3.3721060    -0.3925950    -0.0575320
  C        3.3720920    -0.3929730     0.0571420
  C       -3.9415050     1.0253280     0.0313370
  C        3.9413990     1.0251120    -0.0302390
  C       -1.9110240    -0.4097670    -0.0329750
  C        1.9110920    -0.4103270     0.0325030
  C       -0.6837130    -0.4127480    -0.0120990
  C        0.6837810    -0.4128680     0.0116400
  H       -3.7516860    -0.9979840     0.7738320
  H       -3.7208300    -0.8759060    -0.9776160
  H        3.7172272    -0.9423905    -0.6988824
  H        3.7209340    -0.8772010     0.9767210
  H       -3.5935250     1.6324230    -0.8070360
  H       -3.6247440     1.5093170     0.9575960
  H       -5.0347610     1.0001480     0.0102760
  H        3.6246290     1.5100350    -0.9560070
  H        3.5933130     1.6313650     0.8087280
  H        5.0346230     0.9999160    -0.0090680
units angstrom
no_reorient  #important for SAPT in psi4, default
symmetry c1  #important for SAPT in psi4, default
}

set PROPERTIES_ORIGIN ["COM"]
properties('MP2/aug-cc-pvtz', properties = ['dipole'])
--------------------------------------------------------------------------

    Molecular point group: c1
  Charge       = 0
  Multiplicity = 1
  Basis Set: AUG-CC-PVTZ
    Blend: AUG-CC-PVTZ
  Basis Set: (AUG-CC-PVTZ AUX)
    Blend: AUG-CC-PVTZ-JKFIT

    Orbital Energies [Eh]
    ---------------------

    Doubly Occupied:

       1A    -11.256977     2A    -11.245557     3A    -11.245444
       4A    -11.244795     5A    -11.241209     6A    -11.240105
       7A    -11.227043     8A    -11.226516     9A     -1.095829
      10A     -1.081666    11A     -1.033707    12A     -0.973792
      13A     -0.891878    14A     -0.871049    15A     -0.788041
      16A     -0.661885    17A     -0.649047    18A     -0.636746
      19A     -0.629982    20A     -0.555859    21A     -0.553244
      22A     -0.528822    23A     -0.525438    24A     -0.519867
      25A     -0.515297    26A     -0.452287    27A     -0.451098
      28A     -0.328876    29A     -0.328021

  @DF-RHF Final Energy:  -308.75673457620610

   => Energetics <=

    Nuclear Repulsion Energy =            288.8004032549029603
    One-Electron Energy =                -987.1141209666551504
    Two-Electron Energy =                 389.5569831355460337
    Total Energy =                       -308.7567345762060995
  Basis Set: (AUG-CC-PVTZ AUX)
    Blend: AUG-CC-PVTZ-RI
    Molecular point group: c1

    Geometry (in Angstrom), charge = 0, multiplicity = 1:

       Center              X                  Y                   Z               Mass
    ------------   -----------------  -----------------  -----------------  -----------------
         C           -3.371776995082    -0.393118964397    -0.058252997999    12.000000000000
         C            3.372421004918    -0.393496964397     0.056421002001    12.000000000000
         C           -3.941175995082     1.024804035603     0.030616002001    12.000000000000
         C            3.941728004918     1.024588035603    -0.030959997999    12.000000000000
         C           -1.910694995082    -0.410290964397    -0.033695997999    12.000000000000
         C            1.911421004918    -0.410850964397     0.031782002001    12.000000000000
         C           -0.683383995082    -0.413271964397    -0.012819997999    12.000000000000
         C            0.684110004918    -0.413391964397     0.010919002001    12.000000000000
         H           -3.751356995082    -0.998507964397     0.773111002001     1.007825032230
         H           -3.720500995082    -0.876429964397    -0.978336997999     1.007825032230
         H            3.717556204918    -0.942914464397    -0.699603397999     1.007825032230
         H            3.721263004918    -0.877724964397     0.976000002001     1.007825032230
         H           -3.593195995082     1.631899035603    -0.807756997999     1.007825032230
         H           -3.624414995082     1.508793035603     0.956875002001     1.007825032230
         H           -5.034431995082     0.999624035603     0.009555002001     1.007825032230
         H            3.624958004918     1.509511035603    -0.956727997999     1.007825032230
         H            3.593642004918     1.630841035603     0.808007002001     1.007825032230
         H            5.034952004918     0.999392035603    -0.009788997999     1.007825032230

  Basis Set: AUG-CC-PVTZ
    Blend: AUG-CC-PVTZ
  Basis Set: (AUG-CC-PVTZ AUX)
    Blend: AUG-CC-PVTZ-JKFIT
	 Reference Energy          =    -308.7567345762060995 [Eh]
	 Singles Energy            =      -0.0000000000000000 [Eh]
	 Same-Spin Energy          =      -0.3332206380749567 [Eh]
	 Opposite-Spin Energy      =      -1.1352542936156547 [Eh]
	 Correlation Energy        =      -1.4684749316906114 [Eh]
	 Total Energy              =    -310.2252095078966931 [Eh]

	 ================> DF-SCS-MP2 Energies <==================
	-----------------------------------------------------------
	 SCS Same-Spin Scale       =       0.3333333333333333 [-]
	 SCS Opposite-Spin Scale   =       1.2000000000000000 [-]
	 SCS Same-Spin Energy      =      -0.1110735460249856 [Eh]
	 SCS Opposite-Spin Energy  =      -1.3623051523387855 [Eh]
	 SCS Correlation Energy    =      -1.4733786983637711 [Eh]
	 SCS Total Energy          =    -310.2301132745698737 [Eh]
	-----------------------------------------------------------

  Dipole Moment: [D]
     X:     0.0285      Y:     0.2023      Z:    -0.0136     Total:     0.2047

*** Psi4 exiting successfully. Buy a developer a beer!
