                               Psi4 1.4a2.dev612

  ==> Input File <==

--------------------------------------------------------------------------
#psi4
#
memory 32 gb

molecule  {
0 1
  O        1.0008990     1.1197090    -0.0959030
  O       -1.6389080    -1.2036290    -0.1576800
  O       -1.2230690     1.6022640    -0.0675910
  C        0.8143200    -1.2427870    -0.1986520
  C       -0.4427694    -0.6139144     0.6398255
  C        1.7925350    -0.0950530     0.0479070
  C       -0.3121170     0.8099600     0.0626390
  H        0.6529500    -1.3959670    -1.2698370
  H        1.1362240    -2.1837260     0.2527190
  H       -0.4482060    -0.7692910     1.4955050
  H        2.2087130    -0.1135160     1.0603560
  H        2.6064290    -0.0309800    -0.6748690
  H       -2.2893650    -0.4737730    -0.1440310
units angstrom
no_reorient  #important for SAPT in psi4, default
symmetry c1  #important for SAPT in psi4, default
}

set PROPERTIES_ORIGIN ["COM"]
properties('MP2/aug-cc-pvtz', properties = ['dipole'])
--------------------------------------------------------------------------

    Molecular point group: c1
  Charge       = 0
  Multiplicity = 1
  Basis Set: AUG-CC-PVTZ
    Blend: AUG-CC-PVTZ
  Basis Set: (AUG-CC-PVTZ AUX)
    Blend: AUG-CC-PVTZ-JKFIT

    Orbital Energies [Eh]
    ---------------------

    Doubly Occupied:

       1A    -20.621575     2A    -20.573381     3A    -20.562028
       4A    -11.401044     5A    -11.316288     6A    -11.315732
       7A    -11.268124     8A     -1.470026     9A     -1.378412
      10A     -1.335458    11A     -1.084347    12A     -0.998378
      13A     -0.878357    14A     -0.810286    15A     -0.738647
      16A     -0.700627    17A     -0.678043    18A     -0.675678
      19A     -0.617542    20A     -0.606384    21A     -0.556336
      22A     -0.547141    23A     -0.536421    24A     -0.516624
      25A     -0.476837    26A     -0.469025    27A     -0.445107

  @DF-RHF Final Energy:  -379.61489959582752

   => Energetics <=

    Nuclear Repulsion Energy =            315.0806398430204354
    One-Electron Energy =               -1144.2353806298813197
    Two-Electron Energy =                 449.5398411910333607
    Total Energy =                       -379.6148995958275236
  Basis Set: (AUG-CC-PVTZ AUX)
    Blend: AUG-CC-PVTZ-RI
    Molecular point group: c1

    Geometry (in Angstrom), charge = 0, multiplicity = 1:

       Center              X                  Y                   Z               Mass
    ------------   -----------------  -----------------  -----------------  -----------------
         O            1.036644345013     1.065038458850    -0.117552734498    15.994914619570
         O           -1.603162654987    -1.258299541150    -0.179329734498    15.994914619570
         O           -1.187323654987     1.547593458850    -0.089240734498    15.994914619570
         C            0.850065345013    -1.297457541150    -0.220301734498    12.000000000000
         C           -0.407024054987    -0.668584941150     0.618175765502    12.000000000000
         C            1.828280345013    -0.149723541150     0.026257265502    12.000000000000
         C           -0.276371654987     0.755289458850     0.040989265502    12.000000000000
         H            0.688695345013    -1.450637541150    -1.291486734498     1.007825032230
         H            1.171969345013    -2.238396541150     0.231069265502     1.007825032230
         H           -0.412460654987    -0.823961541150     1.473855265502     1.007825032230
         H            2.244458345013    -0.168186541150     1.038706265502     1.007825032230
         H            2.642174345013    -0.085650541150    -0.696518734498     1.007825032230
         H           -2.253619654987    -0.528443541150    -0.165680734498     1.007825032230

  Basis Set: AUG-CC-PVTZ
    Blend: AUG-CC-PVTZ
  Basis Set: (AUG-CC-PVTZ AUX)
    Blend: AUG-CC-PVTZ-JKFIT
	 Reference Energy          =    -379.6148995958275236 [Eh]
	 Singles Energy            =      -0.0000000000000000 [Eh]
	 Same-Spin Energy          =      -0.3692759192192683 [Eh]
	 Opposite-Spin Energy      =      -1.1426102851713493 [Eh]
	 Correlation Energy        =      -1.5118862043906176 [Eh]
	 Total Energy              =    -381.1267858002181583 [Eh]

	 ================> DF-SCS-MP2 Energies <==================
	-----------------------------------------------------------
	 SCS Same-Spin Scale       =       0.3333333333333333 [-]
	 SCS Opposite-Spin Scale   =       1.2000000000000000 [-]
	 SCS Same-Spin Energy      =      -0.1230919730730894 [Eh]
	 SCS Opposite-Spin Energy  =      -1.3711323422056192 [Eh]
	 SCS Correlation Energy    =      -1.4942243152787087 [Eh]
	 SCS Total Energy          =    -381.1091239111062237 [Eh]
	-----------------------------------------------------------

  Dipole Moment: [D]
     X:     2.8945      Y:    -2.1423      Z:     1.2864     Total:     3.8240

*** Psi4 exiting successfully. Buy a developer a beer!
