                               Psi4 1.4a2.dev612

  ==> Input File <==

--------------------------------------------------------------------------
#psi4
#
memory 32 gb

molecule  {
0 1
  O        1.0008990     1.1197090    -0.0959030
  O       -1.6389080    -1.2036290    -0.1576800
  O       -1.2230690     1.6022640    -0.0675910
  C        0.8143200    -1.2427870    -0.1986520
  C       -0.4517620    -0.6467882     0.4937486
  C        1.7925350    -0.0950530     0.0479070
  C       -0.3121170     0.8099600     0.0626390
  H        0.6529500    -1.3959670    -1.2698370
  H        1.1362240    -2.1837260     0.2527190
  H       -0.4482060    -0.7692910     1.4955050
  H        2.2087130    -0.1135160     1.0603560
  H        2.6064290    -0.0309800    -0.6748690
  H       -2.2893650    -0.4737730    -0.1440310
units angstrom
no_reorient  #important for SAPT in psi4, default
symmetry c1  #important for SAPT in psi4, default
}

set PROPERTIES_ORIGIN ["COM"]
properties('MP2/aug-cc-pvtz', properties = ['dipole'])
--------------------------------------------------------------------------

    Molecular point group: c1
  Charge       = 0
  Multiplicity = 1
  Basis Set: AUG-CC-PVTZ
    Blend: AUG-CC-PVTZ
  Basis Set: (AUG-CC-PVTZ AUX)
    Blend: AUG-CC-PVTZ-JKFIT

    Orbital Energies [Eh]
    ---------------------

    Doubly Occupied:

       1A    -20.620601     2A    -20.577466     3A    -20.560704
       4A    -11.394754     5A    -11.316547     6A    -11.315954
       7A    -11.261704     8A     -1.469674     9A     -1.379702
      10A     -1.359882    11A     -1.088887    12A     -0.990981
      13A     -0.865729    14A     -0.797969    15A     -0.736799
      16A     -0.706585    17A     -0.687315    18A     -0.666229
      19A     -0.619072    20A     -0.605544    21A     -0.567040
      22A     -0.556732    23A     -0.537911    24A     -0.520687
      25A     -0.480340    26A     -0.468377    27A     -0.448629

  @DF-RHF Final Energy:  -379.68837598360244

   => Energetics <=

    Nuclear Repulsion Energy =            316.5640342882189771
    One-Electron Energy =               -1147.3011923349554309
    Two-Electron Energy =                 451.0487820631340128
    Total Energy =                       -379.6883759836024410
  Basis Set: (AUG-CC-PVTZ AUX)
    Blend: AUG-CC-PVTZ-RI
    Molecular point group: c1

    Geometry (in Angstrom), charge = 0, multiplicity = 1:

       Center              X                  Y                   Z               Mass
    ------------   -----------------  -----------------  -----------------  -----------------
         O            1.037701969322     1.068904763371    -0.100372555180    15.994914619570
         O           -1.602105030678    -1.254433236629    -0.162149555180    15.994914619570
         O           -1.186266030678     1.551459763371    -0.072060555180    15.994914619570
         C            0.851122969322    -1.293591236629    -0.203121555180    12.000000000000
         C           -0.414959030678    -0.697592436629     0.489279044820    12.000000000000
         C            1.829337969322    -0.145857236629     0.043437444820    12.000000000000
         C           -0.275314030678     0.759155763371     0.058169444820    12.000000000000
         H            0.689752969322    -1.446771236629    -1.274306555180     1.007825032230
         H            1.173026969322    -2.234530236629     0.248249444820     1.007825032230
         H           -0.411403030678    -0.820095236629     1.491035444820     1.007825032230
         H            2.245515969322    -0.164320236629     1.055886444820     1.007825032230
         H            2.643231969322    -0.081784236629    -0.679338555180     1.007825032230
         H           -2.252562030678    -0.524577236629    -0.148500555180     1.007825032230

  Basis Set: AUG-CC-PVTZ
    Blend: AUG-CC-PVTZ
  Basis Set: (AUG-CC-PVTZ AUX)
    Blend: AUG-CC-PVTZ-JKFIT
	 Reference Energy          =    -379.6883759836024410 [Eh]
	 Singles Energy            =      -0.0000000000000000 [Eh]
	 Same-Spin Energy          =      -0.3684209884528613 [Eh]
	 Opposite-Spin Energy      =      -1.1378679631020647 [Eh]
	 Correlation Energy        =      -1.5062889515549260 [Eh]
	 Total Energy              =    -381.1946649351573910 [Eh]

	 ================> DF-SCS-MP2 Energies <==================
	-----------------------------------------------------------
	 SCS Same-Spin Scale       =       0.3333333333333333 [-]
	 SCS Opposite-Spin Scale   =       1.2000000000000000 [-]
	 SCS Same-Spin Energy      =      -0.1228069961509538 [Eh]
	 SCS Opposite-Spin Energy  =      -1.3654415557224777 [Eh]
	 SCS Correlation Energy    =      -1.4882485518734314 [Eh]
	 SCS Total Energy          =    -381.1766245354758667 [Eh]
	-----------------------------------------------------------

  Dipole Moment: [D]
     X:     2.7849      Y:    -2.2309      Z:     1.1419     Total:     3.7465

*** Psi4 exiting successfully. Buy a developer a beer!
