                               Psi4 1.4a2.dev612

  ==> Input File <==

--------------------------------------------------------------------------
#psi4
#
memory 32 gb

molecule  {
0 1
  O        1.0008990     1.1197090    -0.0959030
  O       -1.6389080    -1.2036290    -0.1576800
  O       -1.2230690     1.6022640    -0.0675910
  C        0.8143200    -1.2427870    -0.1986520
  C       -0.4457670    -0.6248724     0.5911332
  C        1.7925350    -0.0950530     0.0479070
  C       -0.3121170     0.8099600     0.0626390
  H        0.6529500    -1.3959670    -1.2698370
  H        1.1362240    -2.1837260     0.2527190
  H       -0.4482060    -0.7692910     1.4955050
  H        2.2087130    -0.1135160     1.0603560
  H        2.6064290    -0.0309800    -0.6748690
  H       -2.2893650    -0.4737730    -0.1440310
units angstrom
no_reorient  #important for SAPT in psi4, default
symmetry c1  #important for SAPT in psi4, default
}

set PROPERTIES_ORIGIN ["COM"]
properties('MP2/aug-cc-pvtz', properties = ['dipole'])
--------------------------------------------------------------------------

    Molecular point group: c1
  Charge       = 0
  Multiplicity = 1
  Basis Set: AUG-CC-PVTZ
    Blend: AUG-CC-PVTZ
  Basis Set: (AUG-CC-PVTZ AUX)
    Blend: AUG-CC-PVTZ-JKFIT

    Orbital Energies [Eh]
    ---------------------

    Doubly Occupied:

       1A    -20.621139     2A    -20.574660     3A    -20.561524
       4A    -11.398513     5A    -11.316264     6A    -11.315293
       7A    -11.265726     8A     -1.469835     9A     -1.378372
      10A     -1.343567    11A     -1.085443    12A     -0.995311
      13A     -0.872873    14A     -0.805309    15A     -0.738435
      16A     -0.701534    17A     -0.682182    18A     -0.673170
      19A     -0.617693    20A     -0.606202    21A     -0.557210
      22A     -0.549804    23A     -0.539954    24A     -0.518050
      25A     -0.478981    26A     -0.468709    27A     -0.446958

  @DF-RHF Final Energy:  -379.64827809496830

   => Energetics <=

    Nuclear Repulsion Energy =            315.5864801989383750
    One-Electron Energy =               -1145.3040941355161522
    Two-Electron Energy =                 450.0693358416094725
    Total Energy =                       -379.6482780949683047
  Basis Set: (AUG-CC-PVTZ AUX)
    Blend: AUG-CC-PVTZ-RI
    Molecular point group: c1

    Geometry (in Angstrom), charge = 0, multiplicity = 1:

       Center              X                  Y                   Z               Mass
    ------------   -----------------  -----------------  -----------------  -----------------
         O            1.036996894290     1.066327234864    -0.111826008059    15.994914619570
         O           -1.602810105710    -1.257010765136    -0.173603008059    15.994914619570
         O           -1.186971105710     1.548882234864    -0.083514008059    15.994914619570
         C            0.850417894290    -1.296168765136    -0.214575008059    12.000000000000
         C           -0.409669105710    -0.678254165136     0.575210191941    12.000000000000
         C            1.828632894290    -0.148434765136     0.031983991941    12.000000000000
         C           -0.276019105710     0.756578234864     0.046715991941    12.000000000000
         H            0.689047894290    -1.449348765136    -1.285760008059     1.007825032230
         H            1.172321894290    -2.237107765136     0.236795991941     1.007825032230
         H           -0.412108105710    -0.822672765136     1.479581991941     1.007825032230
         H            2.244810894290    -0.166897765136     1.044432991941     1.007825032230
         H            2.642526894290    -0.084361765136    -0.690792008059     1.007825032230
         H           -2.253267105710    -0.527154765136    -0.159954008059     1.007825032230

  Basis Set: AUG-CC-PVTZ
    Blend: AUG-CC-PVTZ
  Basis Set: (AUG-CC-PVTZ AUX)
    Blend: AUG-CC-PVTZ-JKFIT
	 Reference Energy          =    -379.6482780949683047 [Eh]
	 Singles Energy            =      -0.0000000000000000 [Eh]
	 Same-Spin Energy          =      -0.3688735598515862 [Eh]
	 Opposite-Spin Energy      =      -1.1406625085479123 [Eh]
	 Correlation Energy        =      -1.5095360683994985 [Eh]
	 Total Energy              =    -381.1578141633677888 [Eh]

	 ================> DF-SCS-MP2 Energies <==================
	-----------------------------------------------------------
	 SCS Same-Spin Scale       =       0.3333333333333333 [-]
	 SCS Opposite-Spin Scale   =       1.2000000000000000 [-]
	 SCS Same-Spin Energy      =      -0.1229578532838621 [Eh]
	 SCS Opposite-Spin Energy  =      -1.3687950102574946 [Eh]
	 SCS Correlation Energy    =      -1.4917528635413566 [Eh]
	 SCS Total Energy          =    -381.1400309585096693 [Eh]
	-----------------------------------------------------------

  Dipole Moment: [D]
     X:     2.8604      Y:    -2.1731      Z:     1.2504     Total:     3.8037

*** Psi4 exiting successfully. Buy a developer a beer!
