                               Psi4 1.4a2.dev612

  ==> Input File <==

--------------------------------------------------------------------------
#psi4
#
memory 32 gb

molecule  {
0 1
  O        1.0008990     1.1197090    -0.0959030
  O       -1.6389080    -1.2036290    -0.1576800
  O       -1.2230690     1.6022640    -0.0675910
  C        0.8143200    -1.2427870    -0.1986520
  C       -0.4487645    -0.6358303     0.5424409
  C        1.7925350    -0.0950530     0.0479070
  C       -0.3121170     0.8099600     0.0626390
  H        0.6529500    -1.3959670    -1.2698370
  H        1.1362240    -2.1837260     0.2527190
  H       -0.4482060    -0.7692910     1.4955050
  H        2.2087130    -0.1135160     1.0603560
  H        2.6064290    -0.0309800    -0.6748690
  H       -2.2893650    -0.4737730    -0.1440310
units angstrom
no_reorient  #important for SAPT in psi4, default
symmetry c1  #important for SAPT in psi4, default
}

set PROPERTIES_ORIGIN ["COM"]
properties('MP2/aug-cc-pvtz', properties = ['dipole'])
--------------------------------------------------------------------------

    Molecular point group: c1
  Charge       = 0
  Multiplicity = 1
  Basis Set: AUG-CC-PVTZ
    Blend: AUG-CC-PVTZ
  Basis Set: (AUG-CC-PVTZ AUX)
    Blend: AUG-CC-PVTZ-JKFIT

    Orbital Energies [Eh]
    ---------------------

    Doubly Occupied:

       1A    -20.620821     2A    -20.576000     3A    -20.561090
       4A    -11.396421     5A    -11.316352     6A    -11.315383
       7A    -11.263577     8A     -1.469721     9A     -1.378682
      10A     -1.351833    11A     -1.086984    12A     -0.992898
      13A     -0.868722    14A     -0.800952    15A     -0.737813
      16A     -0.703509    17A     -0.685391    18A     -0.669914
      19A     -0.618185    20A     -0.605924    21A     -0.560450
      22A     -0.554234    23A     -0.539504    24A     -0.519386
      25A     -0.480304    26A     -0.468494    27A     -0.448143

  @DF-RHF Final Energy:  -379.67231407996024

   => Energetics <=

    Nuclear Repulsion Energy =            316.0825703084365728
    One-Electron Energy =               -1146.3283913093271167
    Two-Electron Energy =                 450.5735069209303560
    Total Energy =                       -379.6723140799602447
  Basis Set: (AUG-CC-PVTZ AUX)
    Blend: AUG-CC-PVTZ-RI
    Molecular point group: c1

    Geometry (in Angstrom), charge = 0, multiplicity = 1:

       Center              X                  Y                   Z               Mass
    ------------   -----------------  -----------------  -----------------  -----------------
         O            1.037349431806     1.067615999117    -0.106099281619    15.994914619570
         O           -1.602457568194    -1.255722000883    -0.167876281619    15.994914619570
         O           -1.186618568194     1.550170999117    -0.077787281619    15.994914619570
         C            0.850770431806    -1.294880000883    -0.208848281619    12.000000000000
         C           -0.412314068194    -0.687923300883     0.532244618381    12.000000000000
         C            1.828985431806    -0.147146000883     0.037710718381    12.000000000000
         C           -0.275666568194     0.757866999117     0.052442718381    12.000000000000
         H            0.689400431806    -1.448060000883    -1.280033281619     1.007825032230
         H            1.172674431806    -2.235819000883     0.242522718381     1.007825032230
         H           -0.411755568194    -0.821384000883     1.485308718381     1.007825032230
         H            2.245163431806    -0.165609000883     1.050159718381     1.007825032230
         H            2.642879431806    -0.083073000883    -0.685065281619     1.007825032230
         H           -2.252914568194    -0.525866000883    -0.154227281619     1.007825032230

  Basis Set: AUG-CC-PVTZ
    Blend: AUG-CC-PVTZ
  Basis Set: (AUG-CC-PVTZ AUX)
    Blend: AUG-CC-PVTZ-JKFIT
	 Reference Energy          =    -379.6723140799602447 [Eh]
	 Singles Energy            =      -0.0000000000000000 [Eh]
	 Same-Spin Energy          =      -0.3685889387975383 [Eh]
	 Opposite-Spin Energy      =      -1.1390847957502288 [Eh]
	 Correlation Energy        =      -1.5076737345477671 [Eh]
	 Total Energy              =    -381.1799878145080243 [Eh]

	 ================> DF-SCS-MP2 Energies <==================
	-----------------------------------------------------------
	 SCS Same-Spin Scale       =       0.3333333333333333 [-]
	 SCS Opposite-Spin Scale   =       1.2000000000000000 [-]
	 SCS Same-Spin Energy      =      -0.1228629795991794 [Eh]
	 SCS Opposite-Spin Energy  =      -1.3669017549002744 [Eh]
	 SCS Correlation Energy    =      -1.4897647344994538 [Eh]
	 SCS Total Energy          =    -381.1620788144596759 [Eh]
	-----------------------------------------------------------

  Dipole Moment: [D]
     X:     2.8240      Y:    -2.2024      Z:     1.2024     Total:     3.7777

*** Psi4 exiting successfully. Buy a developer a beer!
