                               Psi4 1.4a2.dev612

  ==> Input File <==

--------------------------------------------------------------------------
#psi4
#
memory 32 gb

molecule  {
0 1
  O        1.0008990     1.1197090    -0.0959030
  O       -1.6389080    -1.2036290    -0.1576800
  O       -1.2230690     1.6022640    -0.0675910
  C        0.8143200    -1.2427870    -0.1986520
  C       -0.4577570    -0.6687040     0.3963640
  C        1.7925350    -0.0950530     0.0479070
  C       -0.3121170     0.8099600     0.0626390
  H        0.6529500    -1.3959670    -1.2698370
  H        1.1362240    -2.1837260     0.2527190
  H       -0.4482060    -0.7692910     1.4955050
  H        2.2087130    -0.1135160     1.0603560
  H        2.6064290    -0.0309800    -0.6748690
  H       -2.2893650    -0.4737730    -0.1440310
units angstrom
no_reorient  #important for SAPT in psi4, default
symmetry c1  #important for SAPT in psi4, default
}

set PROPERTIES_ORIGIN ["COM"]
properties('MP2/aug-cc-pvtz', properties = ['dipole'])
--------------------------------------------------------------------------

    Molecular point group: c1
  Charge       = 0
  Multiplicity = 1
  Basis Set: AUG-CC-PVTZ
    Blend: AUG-CC-PVTZ
  Basis Set: (AUG-CC-PVTZ AUX)
    Blend: AUG-CC-PVTZ-JKFIT

    Orbital Energies [Eh]
    ---------------------

    Doubly Occupied:

       1A    -20.620407     2A    -20.581045     3A    -20.560000
       4A    -11.392666     5A    -11.318585     6A    -11.317232
       7A    -11.258908     8A     -1.469773     9A     -1.388371
      10A     -1.370737    11A     -1.093573    12A     -0.988171
      13A     -0.862199    14A     -0.797502    15A     -0.734530
      16A     -0.714151    17A     -0.688771    18A     -0.658536
      19A     -0.622245    20A     -0.604660    21A     -0.582318
      22A     -0.560182    23A     -0.535575    24A     -0.523546
      25A     -0.475007    26A     -0.468422    27A     -0.446896

  @DF-RHF Final Energy:  -379.70081102030304

   => Energetics <=

    Nuclear Repulsion Energy =            317.4642205415174772
    One-Electron Energy =               -1149.0620547049081779
    Two-Electron Energy =                 451.8970231430876083
    Total Energy =                       -379.7008110203030355
  Basis Set: (AUG-CC-PVTZ AUX)
    Blend: AUG-CC-PVTZ-RI
    Molecular point group: c1

    Geometry (in Angstrom), charge = 0, multiplicity = 1:

       Center              X                  Y                   Z               Mass
    ------------   -----------------  -----------------  -----------------  -----------------
         O            1.038407044355     1.071482291877    -0.088919102301    15.994914619570
         O           -1.601399955645    -1.251855708123    -0.150696102301    15.994914619570
         O           -1.185560955645     1.554037291877    -0.060607102301    15.994914619570
         C            0.851828044355    -1.291013708123    -0.191668102301    12.000000000000
         C           -0.420248955645    -0.716930708123     0.403347897699    12.000000000000
         C            1.830043044355    -0.143279708123     0.054890897699    12.000000000000
         C           -0.274608955645     0.761733291877     0.069622897699    12.000000000000
         H            0.690458044355    -1.444193708123    -1.262853102301     1.007825032230
         H            1.173732044355    -2.231952708123     0.259702897699     1.007825032230
         H           -0.410697955645    -0.817517708123     1.502488897699     1.007825032230
         H            2.246221044355    -0.161742708123     1.067339897699     1.007825032230
         H            2.643937044355    -0.079206708123    -0.667885102301     1.007825032230
         H           -2.251856955645    -0.521999708123    -0.137047102301     1.007825032230

  Basis Set: AUG-CC-PVTZ
    Blend: AUG-CC-PVTZ
  Basis Set: (AUG-CC-PVTZ AUX)
    Blend: AUG-CC-PVTZ-JKFIT
	 Reference Energy          =    -379.7008110203030355 [Eh]
	 Singles Energy            =      -0.0000000000000000 [Eh]
	 Same-Spin Energy          =      -0.3684281013689958 [Eh]
	 Opposite-Spin Energy      =      -1.1364415890936166 [Eh]
	 Correlation Energy        =      -1.5048696904626124 [Eh]
	 Total Energy              =    -381.2056807107656482 [Eh]

	 ================> DF-SCS-MP2 Energies <==================
	-----------------------------------------------------------
	 SCS Same-Spin Scale       =       0.3333333333333333 [-]
	 SCS Opposite-Spin Scale   =       1.2000000000000000 [-]
	 SCS Same-Spin Energy      =      -0.1228093671229986 [Eh]
	 SCS Opposite-Spin Energy  =      -1.3637299069123399 [Eh]
	 SCS Correlation Energy    =      -1.4865392740353385 [Eh]
	 SCS Total Energy          =    -381.1873502943383869 [Eh]
	-----------------------------------------------------------

  Dipole Moment: [D]
     X:     2.6964      Y:    -2.2894      Z:     0.9805     Total:     3.6706

*** Psi4 exiting successfully. Buy a developer a beer!
