                               Psi4 1.4a2.dev612

  ==> Input File <==

--------------------------------------------------------------------------
#psi4
#
memory 32 gb

molecule  {
0 1
  O        1.0008990     1.1197090    -0.0959030
  O       -1.6389080    -1.2036290    -0.1576800
  O       -1.2230690     1.6022640    -0.0675910
  C        0.8143200    -1.2427870    -0.1986520
  C       -0.4547595    -0.6577461     0.4450563
  C        1.7925350    -0.0950530     0.0479070
  C       -0.3121170     0.8099600     0.0626390
  H        0.6529500    -1.3959670    -1.2698370
  H        1.1362240    -2.1837260     0.2527190
  H       -0.4482060    -0.7692910     1.4955050
  H        2.2087130    -0.1135160     1.0603560
  H        2.6064290    -0.0309800    -0.6748690
  H       -2.2893650    -0.4737730    -0.1440310
units angstrom
no_reorient  #important for SAPT in psi4, default
symmetry c1  #important for SAPT in psi4, default
}

set PROPERTIES_ORIGIN ["COM"]
properties('MP2/aug-cc-pvtz', properties = ['dipole'])
--------------------------------------------------------------------------

    Molecular point group: c1
  Charge       = 0
  Multiplicity = 1
  Basis Set: AUG-CC-PVTZ
    Blend: AUG-CC-PVTZ
  Basis Set: (AUG-CC-PVTZ AUX)
    Blend: AUG-CC-PVTZ-JKFIT

    Orbital Energies [Eh]
    ---------------------

    Doubly Occupied:

       1A    -20.620467     2A    -20.579124     3A    -20.560345
       4A    -11.393504     5A    -11.317008     6A    -11.316841
       7A    -11.260137     8A     -1.469689     9A     -1.382447
      10A     -1.366677    11A     -1.091094    12A     -0.989433
      13A     -0.863634    14A     -0.796798    15A     -0.735587
      16A     -0.710327    17A     -0.688293    18A     -0.662330
      19A     -0.620409    20A     -0.605095    21A     -0.574698
      22A     -0.558504    23A     -0.536424    24A     -0.522044
      25A     -0.478625    26A     -0.468355    27A     -0.448306

  @DF-RHF Final Energy:  -379.69757257679709

   => Energetics <=

    Nuclear Repulsion Energy =            317.0261292865155269
    One-Electron Energy =               -1148.2150128510820650
    Two-Electron Energy =                 451.4913109877695092
    Total Energy =                       -379.6975725767970857
  Basis Set: (AUG-CC-PVTZ AUX)
    Blend: AUG-CC-PVTZ-RI
    Molecular point group: c1

    Geometry (in Angstrom), charge = 0, multiplicity = 1:

       Center              X                  Y                   Z               Mass
    ------------   -----------------  -----------------  -----------------  -----------------
         O            1.038054506839     1.070193527624    -0.094645828740    15.994914619570
         O           -1.601752493161    -1.253144472376    -0.156422828740    15.994914619570
         O           -1.185913493161     1.552748527624    -0.066333828740    15.994914619570
         C            0.851475506839    -1.292302472376    -0.197394828740    12.000000000000
         C           -0.417603993161    -0.707261572376     0.446313471260    12.000000000000
         C            1.829690506839    -0.144568472376     0.049164171260    12.000000000000
         C           -0.274961493161     0.760444527624     0.063896171260    12.000000000000
         H            0.690105506839    -1.445482472376    -1.268579828740     1.007825032230
         H            1.173379506839    -2.233241472376     0.253976171260     1.007825032230
         H           -0.411050493161    -0.818806472376     1.496762171260     1.007825032230
         H            2.245868506839    -0.163031472376     1.061613171260     1.007825032230
         H            2.643584506839    -0.080495472376    -0.673611828740     1.007825032230
         H           -2.252209493161    -0.523288472376    -0.142773828740     1.007825032230

  Basis Set: AUG-CC-PVTZ
    Blend: AUG-CC-PVTZ
  Basis Set: (AUG-CC-PVTZ AUX)
    Blend: AUG-CC-PVTZ-JKFIT
	 Reference Energy          =    -379.6975725767970857 [Eh]
	 Singles Energy            =      -0.0000000000000000 [Eh]
	 Same-Spin Energy          =      -0.3683681987700537 [Eh]
	 Opposite-Spin Energy      =      -1.1369945590920967 [Eh]
	 Correlation Energy        =      -1.5053627578621502 [Eh]
	 Total Energy              =    -381.2029353346592302 [Eh]

	 ================> DF-SCS-MP2 Energies <==================
	-----------------------------------------------------------
	 SCS Same-Spin Scale       =       0.3333333333333333 [-]
	 SCS Opposite-Spin Scale   =       1.2000000000000000 [-]
	 SCS Same-Spin Energy      =      -0.1227893995900179 [Eh]
	 SCS Opposite-Spin Energy  =      -1.3643934709105159 [Eh]
	 SCS Correlation Energy    =      -1.4871828705005337 [Eh]
	 SCS Total Energy          =    -381.1847554472976185 [Eh]
	-----------------------------------------------------------

  Dipole Moment: [D]
     X:     2.7425      Y:    -2.2596      Z:     1.0683     Total:     3.7106

*** Psi4 exiting successfully. Buy a developer a beer!
