                               Psi4 1.3.2 release

  ==> Input File <==

--------------------------------------------------------------------------
#psi4
#
memory 32 gb

molecule  {
0 1
  F        0.0000020     0.7553210     0.0000000
  C        0.0000020    -0.5360200     0.0000000
  H       -1.0319220    -0.9939120     0.0000000
  H        0.5159460    -0.9939300     0.8936750
  H        0.5159460    -0.9939300    -0.8936750
units angstrom
no_reorient  #important for SAPT in psi4, default
symmetry c1  #important for SAPT in psi4, default
}

set PROPERTIES_ORIGIN ["COM"]
properties('MP2/aug-cc-pvtz', properties = ['dipole'])
--------------------------------------------------------------------------

    Molecular point group: c1
  Charge       = 0
  Multiplicity = 1
  Basis Set: AUG-CC-PVTZ
    Blend: AUG-CC-PVTZ
  Basis Set: (AUG-CC-PVTZ AUX)
    Blend: AUG-CC-PVTZ-JKFIT

    Orbital Energies [Eh]
    ---------------------

    Doubly Occupied:

       1A    -26.300737     2A    -11.312296     3A     -1.640399
       4A     -0.947322     5A     -0.721720     6A     -0.721719
       7A     -0.717468     8A     -0.506429     9A     -0.506425

  @DF-RHF Final Energy:  -139.08833008273973

   => Energetics <=

    Nuclear Repulsion Energy =             38.4890645030352232
    One-Electron Energy =                -268.4057586115622485
    Two-Electron Energy =                  90.8283640257872804
    Total Energy =                       -139.0883300827397306
  Basis Set: (AUG-CC-PVTZ AUX)
    Blend: AUG-CC-PVTZ-RI
    Molecular point group: c1

    Geometry (in Angstrom), charge = 0, multiplicity = 1:

       Center              X                  Y                   Z               Mass
    ------------   -----------------  -----------------  -----------------  -----------------
         F            0.000001066423     0.610927196230     0.000000000000    18.998403162730
         C            0.000001066423    -0.680413803770     0.000000000000    12.000000000000
         H           -1.031922933577    -1.138305803770     0.000000000000     1.007825032230
         H            0.515945066423    -1.138323803770     0.893675000000     1.007825032230
         H            0.515945066423    -1.138323803770    -0.893675000000     1.007825032230

  Basis Set: AUG-CC-PVTZ
    Blend: AUG-CC-PVTZ
  Basis Set: (AUG-CC-PVTZ AUX)
    Blend: AUG-CC-PVTZ-JKFIT
	 Reference Energy          =    -139.0883300827397306 [Eh]
	 Singles Energy            =      -0.0000000000000000 [Eh]
	 Same-Spin Energy          =      -0.1097103882875362 [Eh]
	 Opposite-Spin Energy      =      -0.3654011224360878 [Eh]
	 Correlation Energy        =      -0.4751115107236240 [Eh]
	 Total Energy              =    -139.5634415934633523 [Eh]

	 ================> DF-SCS-MP2 Energies <==================
	-----------------------------------------------------------
	 SCS Same-Spin Scale       =       0.3333333333333333 [-]
	 SCS Opposite-Spin Scale   =       1.2000000000000000 [-]
	 SCS Same-Spin Energy      =      -0.0365701294291787 [Eh]
	 SCS Opposite-Spin Energy  =      -0.4384813469233054 [Eh]
	 SCS Correlation Energy    =      -0.4750514763524841 [Eh]
	 SCS Total Energy          =    -139.5633815590922211 [Eh]
	-----------------------------------------------------------

  Dipole Moment: [D]
     X:    -0.0000      Y:    -1.4106      Z:    -0.0000     Total:     1.4106

*** Psi4 exiting successfully. Buy a developer a beer!
