                               Psi4 1.3.2 release

  ==> Input File <==

--------------------------------------------------------------------------
#psi4
#
memory 32 gb

molecule  {
0 1
  F        0.0727173     0.7476991     0.1259514
  C        0.0000020    -0.6360200     0.0000000
  H       -1.0319220    -0.9939120     0.0000000
  H        0.5159460    -0.9939300     0.8936750
  H        0.5159460    -0.9939300    -0.8936750
units angstrom
no_reorient  #important for SAPT in psi4, default
symmetry c1  #important for SAPT in psi4, default
}

set PROPERTIES_ORIGIN ["COM"]
properties('MP2/aug-cc-pvtz', properties = ['dipole'])
--------------------------------------------------------------------------

    Molecular point group: c1
  Charge       = 0
  Multiplicity = 1
  Basis Set: AUG-CC-PVTZ
    Blend: AUG-CC-PVTZ
  Basis Set: (AUG-CC-PVTZ AUX)
    Blend: AUG-CC-PVTZ-JKFIT

    Orbital Energies [Eh]
    ---------------------

    Doubly Occupied:

       1A    -26.278588     2A    -11.308348     3A     -1.584257
       4A     -0.954631     5A     -0.695440     6A     -0.691850
       7A     -0.672066     8A     -0.533868     9A     -0.528073

  @DF-RHF Final Energy:  -139.09500795408343

   => Energetics <=

    Nuclear Repulsion Energy =             37.1942313335086467
    One-Electron Energy =                -266.0842392173908593
    Two-Electron Energy =                  89.7949999297987915
    Total Energy =                       -139.0950079540834281
  Basis Set: (AUG-CC-PVTZ AUX)
    Blend: AUG-CC-PVTZ-RI
    Molecular point group: c1

    Geometry (in Angstrom), charge = 0, multiplicity = 1:

       Center              X                  Y                   Z               Mass
    ------------   -----------------  -----------------  -----------------  -----------------
         F            0.032110889707     0.642832917804     0.055617967558    18.998403162730
         C           -0.040604410293    -0.740886182196    -0.070333432442    12.000000000000
         H           -1.072528410293    -1.098778182196    -0.070333432442     1.007825032230
         H            0.475339589707    -1.098796182196     0.823341567558     1.007825032230
         H            0.475339589707    -1.098796182196    -0.964008432442     1.007825032230

  Basis Set: AUG-CC-PVTZ
    Blend: AUG-CC-PVTZ
  Basis Set: (AUG-CC-PVTZ AUX)
    Blend: AUG-CC-PVTZ-JKFIT
	 Reference Energy          =    -139.0950079540834281 [Eh]
	 Singles Energy            =      -0.0000000000000000 [Eh]
	 Same-Spin Energy          =      -0.1098703140041862 [Eh]
	 Opposite-Spin Energy      =      -0.3671876434856282 [Eh]
	 Correlation Energy        =      -0.4770579574898144 [Eh]
	 Total Energy              =    -139.5720659115732474 [Eh]

	 ================> DF-SCS-MP2 Energies <==================
	-----------------------------------------------------------
	 SCS Same-Spin Scale       =       0.3333333333333333 [-]
	 SCS Opposite-Spin Scale   =       1.2000000000000000 [-]
	 SCS Same-Spin Energy      =      -0.0366234380013954 [Eh]
	 SCS Opposite-Spin Energy  =      -0.4406251721827538 [Eh]
	 SCS Correlation Energy    =      -0.4772486101841492 [Eh]
	 SCS Total Energy          =    -139.5722565642675761 [Eh]
	-----------------------------------------------------------

  Dipole Moment: [D]
     X:    -0.1000      Y:    -1.8884      Z:    -0.1732     Total:     1.8990

*** Psi4 exiting successfully. Buy a developer a beer!
