                               Psi4 1.3.2 release

  ==> Input File <==

--------------------------------------------------------------------------
#psi4
#
memory 32 gb

molecule  {
0 1
  F       -0.0727133     0.7476991    -0.1259514
  C        0.0000020    -0.6360200     0.0000000
  H       -1.0319220    -0.9939120     0.0000000
  H        0.5159460    -0.9939300     0.8936750
  H        0.5159460    -0.9939300    -0.8936750
units angstrom
no_reorient  #important for SAPT in psi4, default
symmetry c1  #important for SAPT in psi4, default
}

set PROPERTIES_ORIGIN ["COM"]
properties('MP2/aug-cc-pvtz', properties = ['dipole'])
--------------------------------------------------------------------------

    Molecular point group: c1
  Charge       = 0
  Multiplicity = 1
  Basis Set: AUG-CC-PVTZ
    Blend: AUG-CC-PVTZ
  Basis Set: (AUG-CC-PVTZ AUX)
    Blend: AUG-CC-PVTZ-JKFIT

    Orbital Energies [Eh]
    ---------------------

    Doubly Occupied:

       1A    -26.278569     2A    -11.308368     3A     -1.584225
       4A     -0.954631     5A     -0.694657     6A     -0.692696
       7A     -0.671945     8A     -0.532675     9A     -0.529300

  @DF-RHF Final Energy:  -139.09505303551077

   => Energetics <=

    Nuclear Repulsion Energy =             37.1938080694865008
    One-Electron Energy =                -266.0835902769181871
    Two-Electron Energy =                  89.7947291719209062
    Total Energy =                       -139.0950530355107730
  Basis Set: (AUG-CC-PVTZ AUX)
    Blend: AUG-CC-PVTZ-RI
    Molecular point group: c1

    Geometry (in Angstrom), charge = 0, multiplicity = 1:

       Center              X                  Y                   Z               Mass
    ------------   -----------------  -----------------  -----------------  -----------------
         F           -0.032108756861     0.642832917804    -0.055617967558    18.998403162730
         C            0.040606543139    -0.740886182196     0.070333432442    12.000000000000
         H           -0.991317456861    -1.098778182196     0.070333432442     1.007825032230
         H            0.556550543139    -1.098796182196     0.964008432442     1.007825032230
         H            0.556550543139    -1.098796182196    -0.823341567558     1.007825032230

  Basis Set: AUG-CC-PVTZ
    Blend: AUG-CC-PVTZ
  Basis Set: (AUG-CC-PVTZ AUX)
    Blend: AUG-CC-PVTZ-JKFIT
	 Reference Energy          =    -139.0950530355107730 [Eh]
	 Singles Energy            =      -0.0000000000000000 [Eh]
	 Same-Spin Energy          =      -0.1098664122553846 [Eh]
	 Opposite-Spin Energy      =      -0.3671813789153464 [Eh]
	 Correlation Energy        =      -0.4770477911707310 [Eh]
	 Total Energy              =    -139.5721008266814920 [Eh]

	 ================> DF-SCS-MP2 Energies <==================
	-----------------------------------------------------------
	 SCS Same-Spin Scale       =       0.3333333333333333 [-]
	 SCS Opposite-Spin Scale   =       1.2000000000000000 [-]
	 SCS Same-Spin Energy      =      -0.0366221374184615 [Eh]
	 SCS Opposite-Spin Energy  =      -0.4406176546984157 [Eh]
	 SCS Correlation Energy    =      -0.4772397921168772 [Eh]
	 SCS Total Energy          =    -139.5722928276276491 [Eh]
	-----------------------------------------------------------

  Dipole Moment: [D]
     X:     0.1004      Y:    -1.8888      Z:     0.1739     Total:     1.8994

*** Psi4 exiting successfully. Buy a developer a beer!
