                               Psi4 1.4a3.dev225

  ==> Input File <==

--------------------------------------------------------------------------
#psi4
#
memory 32 gb

molecule  {
0 1
  F        0.0000000     0.7555480     0.0000000
  C        0.0000000    -0.6864000     0.0000000
  H       -1.0318330    -0.9938420     0.0000000
  H        0.5159150    -0.9938460     0.8935930
  H        0.5159150    -0.9938460    -0.8935930
units angstrom
no_reorient  #important for SAPT in psi4, default
symmetry c1  #important for SAPT in psi4, default
}

set PROPERTIES_ORIGIN ["COM"]
properties('MP2/aug-cc-pvtz', properties = ['dipole'])
--------------------------------------------------------------------------

    Molecular point group: c1
  Charge       = 0
  Multiplicity = 1
  Basis Set: AUG-CC-PVTZ
    Blend: AUG-CC-PVTZ
  Basis Set: (AUG-CC-PVTZ AUX)
    Blend: AUG-CC-PVTZ-JKFIT

    Orbital Energies [Eh]
    ---------------------

    Doubly Occupied:

       1A    -26.267997     2A    -11.308505     3A     -1.560336
       4A     -0.959797     5A     -0.683104     6A     -0.683104
       7A     -0.649784     8A     -0.541237     9A     -0.541237

  @DF-RHF Final Energy:  -139.09398818069403

   => Energetics <=

    Nuclear Repulsion Energy =             36.5873655476527446
    One-Electron Energy =                -264.9725043995619558
    Two-Electron Energy =                  89.2911506712151777
    Total Energy =                       -139.0939881806940264
  Basis Set: (AUG-CC-PVTZ AUX)
    Blend: AUG-CC-PVTZ-RI
    Molecular point group: c1

    Geometry (in Angstrom), charge = 0, multiplicity = 1:

       Center              X                  Y                   Z               Mass
    ------------   -----------------  -----------------  -----------------  -----------------
         F            0.000000088869     0.664061548564     0.000000000000    18.998403162730
         C            0.000000088869    -0.777886451436     0.000000000000    12.000000000000
         H           -1.031832911131    -1.085328451436     0.000000000000     1.007825032230
         H            0.515915088869    -1.085332451436     0.893593000000     1.007825032230
         H            0.515915088869    -1.085332451436    -0.893593000000     1.007825032230

  Basis Set: AUG-CC-PVTZ
    Blend: AUG-CC-PVTZ
  Basis Set: (AUG-CC-PVTZ AUX)
    Blend: AUG-CC-PVTZ-JKFIT
	 Reference Energy          =    -139.0939881806940264 [Eh]
	 Singles Energy            =      -0.0000000000000000 [Eh]
	 Same-Spin Energy          =      -0.1099568038816308 [Eh]
	 Opposite-Spin Energy      =      -0.3681042232788226 [Eh]
	 Correlation Energy        =      -0.4780610271604534 [Eh]
	 Total Energy              =    -139.5720492078544908 [Eh]

	 ================> DF-SCS-MP2 Energies <==================
	-----------------------------------------------------------
	 SCS Same-Spin Scale       =       0.3333333333333333 [-]
	 SCS Opposite-Spin Scale   =       1.2000000000000000 [-]
	 SCS Same-Spin Energy      =      -0.0366522679605436 [Eh]
	 SCS Opposite-Spin Energy  =      -0.4417250679345871 [Eh]
	 SCS Correlation Energy    =      -0.4783773358951307 [Eh]
	 SCS Total Energy          =    -139.5723655165891444 [Eh]
	-----------------------------------------------------------

  Dipole Moment: [D]
     X:    -0.0000      Y:    -2.1266      Z:     0.0000     Total:     2.1266

*** Psi4 exiting successfully. Buy a developer a beer!
