                               Psi4 1.4a3.dev225

  ==> Input File <==

--------------------------------------------------------------------------
#psi4
#
memory 32 gb

molecule  {
0 1
  F        0.0000000     0.7555480     0.0000000
  C        0.0000000    -0.6564000     0.0000000
  H       -1.0318330    -0.9938420     0.0000000
  H        0.5159150    -0.9938460     0.8935930
  H        0.5159150    -0.9938460    -0.8935930
units angstrom
no_reorient  #important for SAPT in psi4, default
symmetry c1  #important for SAPT in psi4, default
}

set PROPERTIES_ORIGIN ["COM"]
properties('MP2/aug-cc-pvtz', properties = ['dipole'])
--------------------------------------------------------------------------

    Molecular point group: c1
  Charge       = 0
  Multiplicity = 1
  Basis Set: AUG-CC-PVTZ
    Blend: AUG-CC-PVTZ
  Basis Set: (AUG-CC-PVTZ AUX)
    Blend: AUG-CC-PVTZ-JKFIT

    Orbital Energies [Eh]
    ---------------------

    Doubly Occupied:

       1A    -26.274279     2A    -11.308271     3A     -1.574067
       4A     -0.956686     5A     -0.688632     6A     -0.688632
       7A     -0.663226     8A     -0.535932     9A     -0.535932

  @DF-RHF Final Energy:  -139.09618191581148

   => Energetics <=

    Nuclear Repulsion Energy =             36.9355141692235094
    One-Electron Energy =                -265.6120765337507237
    Two-Electron Energy =                  89.5803804487157436
    Total Energy =                       -139.0961819158114849
  Basis Set: (AUG-CC-PVTZ AUX)
    Blend: AUG-CC-PVTZ-RI
    Molecular point group: c1

    Geometry (in Angstrom), charge = 0, multiplicity = 1:

       Center              X                  Y                   Z               Mass
    ------------   -----------------  -----------------  -----------------  -----------------
         F            0.000000088869     0.653480122187     0.000000000000    18.998403162730
         C            0.000000088869    -0.758467877813     0.000000000000    12.000000000000
         H           -1.031832911131    -1.095909877813     0.000000000000     1.007825032230
         H            0.515915088869    -1.095913877813     0.893593000000     1.007825032230
         H            0.515915088869    -1.095913877813    -0.893593000000     1.007825032230

  Basis Set: AUG-CC-PVTZ
    Blend: AUG-CC-PVTZ
  Basis Set: (AUG-CC-PVTZ AUX)
    Blend: AUG-CC-PVTZ-JKFIT
	 Reference Energy          =    -139.0961819158114849 [Eh]
	 Singles Energy            =      -0.0000000000000000 [Eh]
	 Same-Spin Energy          =      -0.1098653320071574 [Eh]
	 Opposite-Spin Energy      =      -0.3674881305860502 [Eh]
	 Correlation Energy        =      -0.4773534625932077 [Eh]
	 Total Energy              =    -139.5735353784046993 [Eh]

	 ================> DF-SCS-MP2 Energies <==================
	-----------------------------------------------------------
	 SCS Same-Spin Scale       =       0.3333333333333333 [-]
	 SCS Opposite-Spin Scale   =       1.2000000000000000 [-]
	 SCS Same-Spin Energy      =      -0.0366217773357191 [Eh]
	 SCS Opposite-Spin Energy  =      -0.4409857567032603 [Eh]
	 SCS Correlation Energy    =      -0.4776075340389794 [Eh]
	 SCS Total Energy          =    -139.5737894498504659 [Eh]
	-----------------------------------------------------------

  Dipole Moment: [D]
     X:    -0.0000      Y:    -1.9959      Z:    -0.0000     Total:     1.9959

*** Psi4 exiting successfully. Buy a developer a beer!
