                               Psi4 1.3.2 release

  ==> Input File <==

--------------------------------------------------------------------------
#psi4
#
memory 32 gb

molecule  {
0 1
  F        0.0242799     0.7544734     0.0420521
  C        0.0000020    -0.6360200     0.0000000
  H       -1.0319220    -0.9939120     0.0000000
  H        0.5159460    -0.9939300     0.8936750
  H        0.5159460    -0.9939300    -0.8936750
units angstrom
no_reorient  #important for SAPT in psi4, default
symmetry c1  #important for SAPT in psi4, default
}

set PROPERTIES_ORIGIN ["COM"]
properties('MP2/aug-cc-pvtz', properties = ['dipole'])
--------------------------------------------------------------------------

    Molecular point group: c1
  Charge       = 0
  Multiplicity = 1
  Basis Set: AUG-CC-PVTZ
    Blend: AUG-CC-PVTZ
  Basis Set: (AUG-CC-PVTZ AUX)
    Blend: AUG-CC-PVTZ-JKFIT

    Orbital Energies [Eh]
    ---------------------

    Doubly Occupied:

       1A    -26.278613     2A    -11.308391     3A     -1.584075
       4A     -0.954643     5A     -0.693643     6A     -0.692614
       7A     -0.672460     8A     -0.532480     9A     -0.530825

  @DF-RHF Final Energy:  -139.09667320965809

   => Energetics <=

    Nuclear Repulsion Energy =             37.1836383203449188
    One-Electron Energy =                -266.0651330658426446
    Two-Electron Energy =                  89.7848215358396260
    Total Energy =                       -139.0966732096580927
  Basis Set: (AUG-CC-PVTZ AUX)
    Blend: AUG-CC-PVTZ-RI
    Molecular point group: c1

    Geometry (in Angstrom), charge = 0, multiplicity = 1:

       Center              X                  Y                   Z               Mass
    ------------   -----------------  -----------------  -----------------  -----------------
         F            0.010721768650     0.645824331934     0.018569482622    18.998403162730
         C           -0.013556131350    -0.744669068066    -0.023482617378    12.000000000000
         H           -1.045480131350    -1.102561068066    -0.023482617378     1.007825032230
         H            0.502387868650    -1.102579068066     0.870192382622     1.007825032230
         H            0.502387868650    -1.102579068066    -0.917157617378     1.007825032230

  Basis Set: AUG-CC-PVTZ
    Blend: AUG-CC-PVTZ
  Basis Set: (AUG-CC-PVTZ AUX)
    Blend: AUG-CC-PVTZ-JKFIT
	 Reference Energy          =    -139.0966732096580927 [Eh]
	 Singles Energy            =      -0.0000000000000000 [Eh]
	 Same-Spin Energy          =      -0.1098193472791620 [Eh]
	 Opposite-Spin Energy      =      -0.3670941168224960 [Eh]
	 Correlation Energy        =      -0.4769134641016580 [Eh]
	 Total Energy              =    -139.5735866737597632 [Eh]

	 ================> DF-SCS-MP2 Energies <==================
	-----------------------------------------------------------
	 SCS Same-Spin Scale       =       0.3333333333333333 [-]
	 SCS Opposite-Spin Scale   =       1.2000000000000000 [-]
	 SCS Same-Spin Energy      =      -0.0366064490930540 [Eh]
	 SCS Opposite-Spin Energy  =      -0.4405129401869952 [Eh]
	 SCS Correlation Energy    =      -0.4771193892800492 [Eh]
	 SCS Total Energy          =    -139.5737925989381552 [Eh]
	-----------------------------------------------------------

  Dipole Moment: [D]
     X:    -0.0335      Y:    -1.9014      Z:    -0.0580     Total:     1.9026

*** Psi4 exiting successfully. Buy a developer a beer!
