                               Psi4 1.4a3.dev225

  ==> Input File <==

--------------------------------------------------------------------------
#psi4
#
memory 32 gb

molecule  {
0 1
  F        0.0000000     0.7555480     0.0000000
  C        0.0000000    -0.5864000     0.0000000
  H       -1.0318330    -0.9938420     0.0000000
  H        0.5159150    -0.9938460     0.8935930
  H        0.5159150    -0.9938460    -0.8935930
units angstrom
no_reorient  #important for SAPT in psi4, default
symmetry c1  #important for SAPT in psi4, default
}

set PROPERTIES_ORIGIN ["COM"]
properties('MP2/aug-cc-pvtz', properties = ['dipole'])
--------------------------------------------------------------------------

    Molecular point group: c1
  Charge       = 0
  Multiplicity = 1
  Basis Set: AUG-CC-PVTZ
    Blend: AUG-CC-PVTZ
  Basis Set: (AUG-CC-PVTZ AUX)
    Blend: AUG-CC-PVTZ-JKFIT

    Orbital Energies [Eh]
    ---------------------

    Doubly Occupied:

       1A    -26.289288     2A    -11.309602     3A     -1.610129
       4A     -0.950386     5A     -0.705726     6A     -0.705725
       7A     -0.694950     8A     -0.520149     9A     -0.520149

  @DF-RHF Final Energy:  -139.09539412014846

   => Energetics <=

    Nuclear Repulsion Energy =             37.8033266633591296
    One-Electron Energy =                -267.1852364695173492
    Two-Electron Energy =                  90.2865156860097500
    Total Energy =                       -139.0953941201484554
  Basis Set: (AUG-CC-PVTZ AUX)
    Blend: AUG-CC-PVTZ-RI
    Molecular point group: c1

    Geometry (in Angstrom), charge = 0, multiplicity = 1:

       Center              X                  Y                   Z               Mass
    ------------   -----------------  -----------------  -----------------  -----------------
         F            0.000000088869     0.628790127308     0.000000000000    18.998403162730
         C            0.000000088869    -0.713157872692     0.000000000000    12.000000000000
         H           -1.031832911131    -1.120599872692     0.000000000000     1.007825032230
         H            0.515915088869    -1.120603872692     0.893593000000     1.007825032230
         H            0.515915088869    -1.120603872692    -0.893593000000     1.007825032230

  Basis Set: AUG-CC-PVTZ
    Blend: AUG-CC-PVTZ
  Basis Set: (AUG-CC-PVTZ AUX)
    Blend: AUG-CC-PVTZ-JKFIT
	 Reference Energy          =    -139.0953941201484554 [Eh]
	 Singles Energy            =      -0.0000000000000000 [Eh]
	 Same-Spin Energy          =      -0.1097306396954043 [Eh]
	 Opposite-Spin Energy      =      -0.3661856156436454 [Eh]
	 Correlation Energy        =      -0.4759162553390497 [Eh]
	 Total Energy              =    -139.5713103754875135 [Eh]

	 ================> DF-SCS-MP2 Energies <==================
	-----------------------------------------------------------
	 SCS Same-Spin Scale       =       0.3333333333333333 [-]
	 SCS Opposite-Spin Scale   =       1.2000000000000000 [-]
	 SCS Same-Spin Energy      =      -0.0365768798984681 [Eh]
	 SCS Opposite-Spin Energy  =      -0.4394227387723745 [Eh]
	 SCS Correlation Energy    =      -0.4759996186708426 [Eh]
	 SCS Total Energy          =    -139.5713937388192960 [Eh]
	-----------------------------------------------------------

  Dipole Moment: [D]
     X:    -0.0000      Y:    -1.6695      Z:     0.0000     Total:     1.6695

*** Psi4 exiting successfully. Buy a developer a beer!
