                               Psi4 1.3.2 release

  ==> Input File <==

--------------------------------------------------------------------------
#psi4
#
memory 32 gb

molecule  {
0 1
  F        0.0000020     0.7553210     0.0000000
  C        0.0000020    -0.6360200     0.0000000
  H       -1.0319220    -0.9939120     0.0000000
  H        0.5159460    -0.9939300     0.8936750
  H        0.5159460    -0.9939300    -0.8936750
units angstrom
no_reorient  #important for SAPT in psi4, default
symmetry c1  #important for SAPT in psi4, default
}

set PROPERTIES_ORIGIN ["COM"]
properties('MP2/aug-cc-pvtz', properties = ['dipole'])
--------------------------------------------------------------------------

    Molecular point group: c1
  Charge       = 0
  Multiplicity = 1
  Basis Set: AUG-CC-PVTZ
    Blend: AUG-CC-PVTZ
  Basis Set: (AUG-CC-PVTZ AUX)
    Blend: AUG-CC-PVTZ-JKFIT

    Orbital Energies [Eh]
    ---------------------

    Doubly Occupied:

       1A    -26.278618     2A    -11.308395     3A     -1.584054
       4A     -0.954645     5A     -0.693062     6A     -0.693060
       7A     -0.672518     8A     -0.531739     9A     -0.531735

  @DF-RHF Final Energy:  -139.09687903801810

   => Energetics <=

    Nuclear Repulsion Energy =             37.1823339964101294
    One-Electron Energy =                -266.0627734149703656
    Two-Electron Energy =                  89.7835603805421414
    Total Energy =                       -139.0968790380180735
  Basis Set: (AUG-CC-PVTZ AUX)
    Blend: AUG-CC-PVTZ-RI
    Molecular point group: c1

    Geometry (in Angstrom), charge = 0, multiplicity = 1:

       Center              X                  Y                   Z               Mass
    ------------   -----------------  -----------------  -----------------  -----------------
         F            0.000001066423     0.646198617486     0.000000000000    18.998403162730
         C            0.000001066423    -0.745142382514     0.000000000000    12.000000000000
         H           -1.031922933577    -1.103034382514     0.000000000000     1.007825032230
         H            0.515945066423    -1.103052382514     0.893675000000     1.007825032230
         H            0.515945066423    -1.103052382514    -0.893675000000     1.007825032230

  Basis Set: AUG-CC-PVTZ
    Blend: AUG-CC-PVTZ
  Basis Set: (AUG-CC-PVTZ AUX)
    Blend: AUG-CC-PVTZ-JKFIT
	 Reference Energy          =    -139.0968790380181019 [Eh]
	 Singles Energy            =      -0.0000000000000000 [Eh]
	 Same-Spin Energy          =      -0.1098131775611720 [Eh]
	 Opposite-Spin Energy      =      -0.3670828109005502 [Eh]
	 Correlation Energy        =      -0.4768959884617223 [Eh]
	 Total Energy              =    -139.5737750264798365 [Eh]

	 ================> DF-SCS-MP2 Energies <==================
	-----------------------------------------------------------
	 SCS Same-Spin Scale       =       0.3333333333333333 [-]
	 SCS Opposite-Spin Scale   =       1.2000000000000000 [-]
	 SCS Same-Spin Energy      =      -0.0366043925203907 [Eh]
	 SCS Opposite-Spin Energy  =      -0.4404993730806603 [Eh]
	 SCS Correlation Energy    =      -0.4771037656010509 [Eh]
	 SCS Total Energy          =    -139.5739828036191454 [Eh]
	-----------------------------------------------------------

  Dipole Moment: [D]
     X:    -0.0000      Y:    -1.9030      Z:     0.0000     Total:     1.9030

*** Psi4 exiting successfully. Buy a developer a beer!
