                               Psi4 1.3.2 release

  ==> Input File <==

--------------------------------------------------------------------------
#psi4
#
memory 32 gb

molecule  {
0 1
  F        0.0000020     0.7553210     0.0000000
  C        0.0000020    -0.7360200     0.0000000
  H       -1.0319220    -0.9939120     0.0000000
  H        0.5159460    -0.9939300     0.8936750
  H        0.5159460    -0.9939300    -0.8936750
units angstrom
no_reorient  #important for SAPT in psi4, default
symmetry c1  #important for SAPT in psi4, default
}

set PROPERTIES_ORIGIN ["COM"]
properties('MP2/aug-cc-pvtz', properties = ['dipole'])
--------------------------------------------------------------------------

    Molecular point group: c1
  Charge       = 0
  Multiplicity = 1
  Basis Set: AUG-CC-PVTZ
    Blend: AUG-CC-PVTZ
  Basis Set: (AUG-CC-PVTZ AUX)
    Blend: AUG-CC-PVTZ-JKFIT

    Orbital Energies [Eh]
    ---------------------

    Doubly Occupied:

       1A    -26.257712     2A    -11.309895     3A     -1.539596
       4A     -0.965148     5A     -0.676423     6A     -0.676420
       7A     -0.628147     8A     -0.547636     9A     -0.547632

  @DF-RHF Final Energy:  -139.08779736042737

   => Energetics <=

    Nuclear Repulsion Energy =             36.0393699721093341
    One-Electron Energy =                -263.9571148845717516
    Two-Electron Energy =                  88.8299475520350228
    Total Energy =                       -139.0877973604273734
  Basis Set: (AUG-CC-PVTZ AUX)
    Blend: AUG-CC-PVTZ-RI
    Molecular point group: c1

    Geometry (in Angstrom), charge = 0, multiplicity = 1:

       Center              X                  Y                   Z               Mass
    ------------   -----------------  -----------------  -----------------  -----------------
         F            0.000001066423     0.681470038742     0.000000000000    18.998403162730
         C            0.000001066423    -0.809870961258     0.000000000000    12.000000000000
         H           -1.031922933577    -1.067762961258     0.000000000000     1.007825032230
         H            0.515945066423    -1.067780961258     0.893675000000     1.007825032230
         H            0.515945066423    -1.067780961258    -0.893675000000     1.007825032230

  Basis Set: AUG-CC-PVTZ
    Blend: AUG-CC-PVTZ
  Basis Set: (AUG-CC-PVTZ AUX)
    Blend: AUG-CC-PVTZ-JKFIT
	 Reference Energy          =    -139.0877973604273734 [Eh]
	 Singles Energy            =      -0.0000000000000000 [Eh]
	 Same-Spin Energy          =      -0.1101433479687843 [Eh]
	 Opposite-Spin Energy      =      -0.3691678446507662 [Eh]
	 Correlation Energy        =      -0.4793111926195505 [Eh]
	 Total Energy              =    -139.5671085530469213 [Eh]

	 ================> DF-SCS-MP2 Energies <==================
	-----------------------------------------------------------
	 SCS Same-Spin Scale       =       0.3333333333333333 [-]
	 SCS Opposite-Spin Scale   =       1.2000000000000000 [-]
	 SCS Same-Spin Energy      =      -0.0367144493229281 [Eh]
	 SCS Opposite-Spin Energy  =      -0.4430014135809194 [Eh]
	 SCS Correlation Energy    =      -0.4797158629038475 [Eh]
	 SCS Total Energy          =    -139.5675132233312183 [Eh]
	-----------------------------------------------------------

  Dipole Moment: [D]
     X:    -0.0000      Y:    -2.3315      Z:    -0.0000     Total:     2.3315

*** Psi4 exiting successfully. Buy a developer a beer!
