                               Psi4 1.3.2 release

  ==> Input File <==

--------------------------------------------------------------------------
#psi4
#
memory 32 gb

molecule  {
0 1
  F        0.0000020     0.7553210     0.0000000
  C        0.0000020    -0.8360200     0.0000000
  H       -1.0319220    -0.9939120     0.0000000
  H        0.5159460    -0.9939300     0.8936750
  H        0.5159460    -0.9939300    -0.8936750
units angstrom
no_reorient  #important for SAPT in psi4, default
symmetry c1  #important for SAPT in psi4, default
}

set PROPERTIES_ORIGIN ["COM"]
properties('MP2/aug-cc-pvtz', properties = ['dipole'])
--------------------------------------------------------------------------

    Molecular point group: c1
  Charge       = 0
  Multiplicity = 1
  Basis Set: AUG-CC-PVTZ
    Blend: AUG-CC-PVTZ
  Basis Set: (AUG-CC-PVTZ AUX)
    Blend: AUG-CC-PVTZ-JKFIT

    Orbital Energies [Eh]
    ---------------------

    Doubly Occupied:

       1A    -26.237009     2A    -11.316081     3A     -1.503414
       4A     -0.976170     5A     -0.671667     6A     -0.671662
       7A     -0.587360     8A     -0.550907     9A     -0.550904

  @DF-RHF Final Energy:  -139.06824079271146

   => Energetics <=

    Nuclear Repulsion Energy =             35.0045328545767376
    One-Electron Energy =                -262.0151973898190363
    Two-Electron Energy =                  87.9424237425308490
    Total Energy =                       -139.0682407927114639
  Basis Set: (AUG-CC-PVTZ AUX)
    Blend: AUG-CC-PVTZ-RI
    Molecular point group: c1

    Geometry (in Angstrom), charge = 0, multiplicity = 1:

       Center              X                  Y                   Z               Mass
    ------------   -----------------  -----------------  -----------------  -----------------
         F            0.000001066423     0.716741459997     0.000000000000    18.998403162730
         C            0.000001066423    -0.874599540003     0.000000000000    12.000000000000
         H           -1.031922933577    -1.032491540003     0.000000000000     1.007825032230
         H            0.515945066423    -1.032509540003     0.893675000000     1.007825032230
         H            0.515945066423    -1.032509540003    -0.893675000000     1.007825032230

  Basis Set: AUG-CC-PVTZ
    Blend: AUG-CC-PVTZ
  Basis Set: (AUG-CC-PVTZ AUX)
    Blend: AUG-CC-PVTZ-JKFIT
	 Reference Energy          =    -139.0682407927114639 [Eh]
	 Singles Energy            =      -0.0000000000000000 [Eh]
	 Same-Spin Energy          =      -0.1106172417184843 [Eh]
	 Opposite-Spin Energy      =      -0.3713908137510277 [Eh]
	 Correlation Energy        =      -0.4820080554695120 [Eh]
	 Total Energy              =    -139.5502488481809849 [Eh]

	 ================> DF-SCS-MP2 Energies <==================
	-----------------------------------------------------------
	 SCS Same-Spin Scale       =       0.3333333333333333 [-]
	 SCS Opposite-Spin Scale   =       1.2000000000000000 [-]
	 SCS Same-Spin Energy      =      -0.0368724139061614 [Eh]
	 SCS Opposite-Spin Energy  =      -0.4456689765012332 [Eh]
	 SCS Correlation Energy    =      -0.4825413904073946 [Eh]
	 SCS Total Energy          =    -139.5507821831188551 [Eh]
	-----------------------------------------------------------

  Dipole Moment: [D]
     X:    -0.0000      Y:    -2.7094      Z:    -0.0000     Total:     2.7094

*** Psi4 exiting successfully. Buy a developer a beer!
