                               Psi4 1.3.2 release

  ==> Input File <==

--------------------------------------------------------------------------
#psi4
#
memory 32 gb

molecule  {
0 1
  F        0.0485281     0.7519318     0.0840529
  C        0.0000020    -0.6360200     0.0000000
  H       -1.0319220    -0.9939120     0.0000000
  H        0.5159460    -0.9939300     0.8936750
  H        0.5159460    -0.9939300    -0.8936750
units angstrom
no_reorient  #important for SAPT in psi4, default
symmetry c1  #important for SAPT in psi4, default
}

set PROPERTIES_ORIGIN ["COM"]
properties('MP2/aug-cc-pvtz', properties = ['dipole'])
--------------------------------------------------------------------------

    Molecular point group: c1
  Charge       = 0
  Multiplicity = 1
  Basis Set: AUG-CC-PVTZ
    Blend: AUG-CC-PVTZ
  Basis Set: (AUG-CC-PVTZ AUX)
    Blend: AUG-CC-PVTZ-JKFIT

    Orbital Energies [Eh]
    ---------------------

    Doubly Occupied:

       1A    -26.278602     2A    -11.308376     3A     -1.584141
       4A     -0.954638     5A     -0.694442     6A     -0.692210
       7A     -0.672301     8A     -0.533190     9A     -0.529605

  @DF-RHF Final Energy:  -139.09605170536429

   => Energetics <=

    Nuclear Repulsion Energy =             37.1875843329557796
    One-Electron Energy =                -266.0722601308062849
    Two-Electron Energy =                  89.7886240924862165
    Total Energy =                       -139.0960517053642889
  Basis Set: (AUG-CC-PVTZ AUX)
    Blend: AUG-CC-PVTZ-RI
    Molecular point group: c1

    Geometry (in Angstrom), charge = 0, multiplicity = 1:

       Center              X                  Y                   Z               Mass
    ------------   -----------------  -----------------  -----------------  -----------------
         F            0.021429355870     0.644702005176     0.037116312049    18.998403162730
         C           -0.027096744130    -0.743249794824    -0.046936587951    12.000000000000
         H           -1.059020744130    -1.101141794824    -0.046936587951     1.007825032230
         H            0.488847255870    -1.101159794824     0.846738412049     1.007825032230
         H            0.488847255870    -1.101159794824    -0.940611587951     1.007825032230

  Basis Set: AUG-CC-PVTZ
    Blend: AUG-CC-PVTZ
  Basis Set: (AUG-CC-PVTZ AUX)
    Blend: AUG-CC-PVTZ-JKFIT
	 Reference Energy          =    -139.0960517053642889 [Eh]
	 Singles Energy            =      -0.0000000000000000 [Eh]
	 Same-Spin Energy          =      -0.1098382005808107 [Eh]
	 Opposite-Spin Energy      =      -0.3671286741742197 [Eh]
	 Correlation Energy        =      -0.4769668747550305 [Eh]
	 Total Energy              =    -139.5730185801193102 [Eh]

	 ================> DF-SCS-MP2 Energies <==================
	-----------------------------------------------------------
	 SCS Same-Spin Scale       =       0.3333333333333333 [-]
	 SCS Opposite-Spin Scale   =       1.2000000000000000 [-]
	 SCS Same-Spin Energy      =      -0.0366127335269369 [Eh]
	 SCS Opposite-Spin Energy  =      -0.4405544090090637 [Eh]
	 SCS Correlation Energy    =      -0.4771671425360006 [Eh]
	 SCS Total Energy          =    -139.5732188479002787 [Eh]
	-----------------------------------------------------------

  Dipole Moment: [D]
     X:    -0.0669      Y:    -1.8965      Z:    -0.1158     Total:     1.9013

*** Psi4 exiting successfully. Buy a developer a beer!
