                               Psi4 1.3.2 release

  ==> Input File <==

--------------------------------------------------------------------------
#psi4
#
memory 32 gb

molecule  {
0 1
  F       -0.0121388     0.7551091    -0.0210292
  C        0.0000020    -0.6360200     0.0000000
  H       -1.0319220    -0.9939120     0.0000000
  H        0.5159460    -0.9939300     0.8936750
  H        0.5159460    -0.9939300    -0.8936750
units angstrom
no_reorient  #important for SAPT in psi4, default
symmetry c1  #important for SAPT in psi4, default
}

set PROPERTIES_ORIGIN ["COM"]
properties('MP2/aug-cc-pvtz', properties = ['dipole'])
--------------------------------------------------------------------------

    Molecular point group: c1
  Charge       = 0
  Multiplicity = 1
  Basis Set: AUG-CC-PVTZ
    Blend: AUG-CC-PVTZ
  Basis Set: (AUG-CC-PVTZ AUX)
    Blend: AUG-CC-PVTZ-JKFIT

    Orbital Energies [Eh]
    ---------------------

    Doubly Occupied:

       1A    -26.278616     2A    -11.308394     3A     -1.584059
       4A     -0.954644     5A     -0.693300     6A     -0.692856
       7A     -0.672503     8A     -0.532081     9A     -0.531352

  @DF-RHF Final Energy:  -139.09682784593073

   => Energetics <=

    Nuclear Repulsion Energy =             37.1826573661393027
    One-Electron Energy =                -266.0633593525758442
    Two-Electron Energy =                  89.7838741405058158
    Total Energy =                       -139.0968278459307328
  Basis Set: (AUG-CC-PVTZ AUX)
    Blend: AUG-CC-PVTZ-RI
    Molecular point group: c1

    Geometry (in Angstrom), charge = 0, multiplicity = 1:

       Center              X                  Y                   Z               Mass
    ------------   -----------------  -----------------  -----------------  -----------------
         F           -0.005360101619     0.646105046098    -0.009286132297    18.998403162730
         C            0.006780698381    -0.745024053902     0.011743067703    12.000000000000
         H           -1.025143301619    -1.102916053902     0.011743067703     1.007825032230
         H            0.522724698381    -1.102934053902     0.905418067703     1.007825032230
         H            0.522724698381    -1.102934053902    -0.881931932297     1.007825032230

  Basis Set: AUG-CC-PVTZ
    Blend: AUG-CC-PVTZ
  Basis Set: (AUG-CC-PVTZ AUX)
    Blend: AUG-CC-PVTZ-JKFIT
	 Reference Energy          =    -139.0968278459307328 [Eh]
	 Singles Energy            =      -0.0000000000000000 [Eh]
	 Same-Spin Energy          =      -0.1098146941481778 [Eh]
	 Opposite-Spin Energy      =      -0.3670855948577920 [Eh]
	 Correlation Energy        =      -0.4769002890059698 [Eh]
	 Total Energy              =    -139.5737281349367152 [Eh]

	 ================> DF-SCS-MP2 Energies <==================
	-----------------------------------------------------------
	 SCS Same-Spin Scale       =       0.3333333333333333 [-]
	 SCS Opposite-Spin Scale   =       1.2000000000000000 [-]
	 SCS Same-Spin Energy      =      -0.0366048980493926 [Eh]
	 SCS Opposite-Spin Energy  =      -0.4405027138293504 [Eh]
	 SCS Correlation Energy    =      -0.4771076118787430 [Eh]
	 SCS Total Energy          =    -139.5739354578094833 [Eh]
	-----------------------------------------------------------

  Dipole Moment: [D]
     X:     0.0168      Y:    -1.9026      Z:     0.0291     Total:     1.9029

*** Psi4 exiting successfully. Buy a developer a beer!
