                               Psi4 1.4a3.dev225

  ==> Input File <==

--------------------------------------------------------------------------
#psi4
#
memory 32 gb

molecule  {
0 1
  F        0.0000000     0.7555480     0.0000000
  C        0.0000000    -0.6164000     0.0000000
  H       -1.0318330    -0.9938420     0.0000000
  H        0.5159150    -0.9938460     0.8935930
  H        0.5159150    -0.9938460    -0.8935930
units angstrom
no_reorient  #important for SAPT in psi4, default
symmetry c1  #important for SAPT in psi4, default
}

set PROPERTIES_ORIGIN ["COM"]
properties('MP2/aug-cc-pvtz', properties = ['dipole'])
--------------------------------------------------------------------------

    Molecular point group: c1
  Charge       = 0
  Multiplicity = 1
  Basis Set: AUG-CC-PVTZ
    Blend: AUG-CC-PVTZ
  Basis Set: (AUG-CC-PVTZ AUX)
    Blend: AUG-CC-PVTZ-JKFIT

    Orbital Energies [Eh]
    ---------------------

    Doubly Occupied:

       1A    -26.282771     2A    -11.308701     3A     -1.593923
       4A     -0.952871     5A     -0.697689     6A     -0.697689
       7A     -0.681348     8A     -0.527434     9A     -0.527434

  @DF-RHF Final Energy:  -139.09685941424704

   => Energetics <=

    Nuclear Repulsion Energy =             37.4210317563436448
    One-Electron Energy =                -266.4960610959981864
    Two-Electron Energy =                  89.9781699254075136
    Total Energy =                       -139.0968594142470351
  Basis Set: (AUG-CC-PVTZ AUX)
    Blend: AUG-CC-PVTZ-RI
    Molecular point group: c1

    Geometry (in Angstrom), charge = 0, multiplicity = 1:

       Center              X                  Y                   Z               Mass
    ------------   -----------------  -----------------  -----------------  -----------------
         F            0.000000088869     0.639371553685     0.000000000000    18.998403162730
         C            0.000000088869    -0.732576446315     0.000000000000    12.000000000000
         H           -1.031832911131    -1.110018446315     0.000000000000     1.007825032230
         H            0.515915088869    -1.110022446315     0.893593000000     1.007825032230
         H            0.515915088869    -1.110022446315    -0.893593000000     1.007825032230

  Basis Set: AUG-CC-PVTZ
    Blend: AUG-CC-PVTZ
  Basis Set: (AUG-CC-PVTZ AUX)
    Blend: AUG-CC-PVTZ-JKFIT
	 Reference Energy          =    -139.0968594142470351 [Eh]
	 Singles Energy            =      -0.0000000000000000 [Eh]
	 Same-Spin Energy          =      -0.1097738452934629 [Eh]
	 Opposite-Spin Energy      =      -0.3667168915778072 [Eh]
	 Correlation Energy        =      -0.4764907368712701 [Eh]
	 Total Energy              =    -139.5733501511183192 [Eh]

	 ================> DF-SCS-MP2 Energies <==================
	-----------------------------------------------------------
	 SCS Same-Spin Scale       =       0.3333333333333333 [-]
	 SCS Opposite-Spin Scale   =       1.2000000000000000 [-]
	 SCS Same-Spin Energy      =      -0.0365912817644876 [Eh]
	 SCS Opposite-Spin Energy  =      -0.4400602698933686 [Eh]
	 SCS Correlation Energy    =      -0.4766515516578562 [Eh]
	 SCS Total Energy          =    -139.5735109659048874 [Eh]
	-----------------------------------------------------------

  Dipole Moment: [D]
     X:    -0.0000      Y:    -1.8134      Z:    -0.0000     Total:     1.8134

*** Psi4 exiting successfully. Buy a developer a beer!
