                               Psi4 1.3.2 release

  ==> Input File <==

--------------------------------------------------------------------------
#psi4
#
memory 32 gb

molecule  {
0 1
  F       -0.0485241     0.7519318    -0.0840529
  C        0.0000020    -0.6360200     0.0000000
  H       -1.0319220    -0.9939120     0.0000000
  H        0.5159460    -0.9939300     0.8936750
  H        0.5159460    -0.9939300    -0.8936750
units angstrom
no_reorient  #important for SAPT in psi4, default
symmetry c1  #important for SAPT in psi4, default
}

set PROPERTIES_ORIGIN ["COM"]
properties('MP2/aug-cc-pvtz', properties = ['dipole'])
--------------------------------------------------------------------------

    Molecular point group: c1
  Charge       = 0
  Multiplicity = 1
  Basis Set: AUG-CC-PVTZ
    Blend: AUG-CC-PVTZ
  Basis Set: (AUG-CC-PVTZ AUX)
    Blend: AUG-CC-PVTZ-JKFIT

    Orbital Energies [Eh]
    ---------------------

    Doubly Occupied:

       1A    -26.278597     2A    -11.308382     3A     -1.584132
       4A     -0.954639     5A     -0.694082     6A     -0.692591
       7A     -0.672263     8A     -0.532658     9A     -0.530147

  @DF-RHF Final Energy:  -139.09606485855770

   => Energetics <=

    Nuclear Repulsion Energy =             37.1874608992481015
    One-Electron Energy =                -266.0720713835341371
    Two-Electron Energy =                  89.7885456257283465
    Total Energy =                       -139.0960648585576962
  Basis Set: (AUG-CC-PVTZ AUX)
    Blend: AUG-CC-PVTZ-RI
    Molecular point group: c1

    Geometry (in Angstrom), charge = 0, multiplicity = 1:

       Center              X                  Y                   Z               Mass
    ------------   -----------------  -----------------  -----------------  -----------------
         F           -0.021427223025     0.644702005176    -0.037116312049    18.998403162730
         C            0.027098876975    -0.743249794824     0.046936587951    12.000000000000
         H           -1.004825123025    -1.101141794824     0.046936587951     1.007825032230
         H            0.543042876975    -1.101159794824     0.940611587951     1.007825032230
         H            0.543042876975    -1.101159794824    -0.846738412049     1.007825032230

  Basis Set: AUG-CC-PVTZ
    Blend: AUG-CC-PVTZ
  Basis Set: (AUG-CC-PVTZ AUX)
    Blend: AUG-CC-PVTZ-JKFIT
	 Reference Energy          =    -139.0960648585576962 [Eh]
	 Singles Energy            =      -0.0000000000000000 [Eh]
	 Same-Spin Energy          =      -0.1098370510729701 [Eh]
	 Opposite-Spin Energy      =      -0.3671268268805974 [Eh]
	 Correlation Energy        =      -0.4769638779535675 [Eh]
	 Total Energy              =    -139.5730287365112758 [Eh]

	 ================> DF-SCS-MP2 Energies <==================
	-----------------------------------------------------------
	 SCS Same-Spin Scale       =       0.3333333333333333 [-]
	 SCS Opposite-Spin Scale   =       1.2000000000000000 [-]
	 SCS Same-Spin Energy      =      -0.0366123503576567 [Eh]
	 SCS Opposite-Spin Energy  =      -0.4405521922567169 [Eh]
	 SCS Correlation Energy    =      -0.4771645426143736 [Eh]
	 SCS Total Energy          =    -139.5732294011720569 [Eh]
	-----------------------------------------------------------

  Dipole Moment: [D]
     X:     0.0670      Y:    -1.8966      Z:     0.1161     Total:     1.9014

*** Psi4 exiting successfully. Buy a developer a beer!
