                               Psi4 1.3.2 release

  ==> Input File <==

--------------------------------------------------------------------------
#psi4
#
memory 32 gb

molecule  {
0 1
  F        0.0000020     0.7553210     0.0000000
  C        0.0000020    -0.4360200     0.0000000
  H       -1.0319220    -0.9939120     0.0000000
  H        0.5159460    -0.9939300     0.8936750
  H        0.5159460    -0.9939300    -0.8936750
units angstrom
no_reorient  #important for SAPT in psi4, default
symmetry c1  #important for SAPT in psi4, default
}

set PROPERTIES_ORIGIN ["COM"]
properties('MP2/aug-cc-pvtz', properties = ['dipole'])
--------------------------------------------------------------------------

    Molecular point group: c1
  Charge       = 0
  Multiplicity = 1
  Basis Set: AUG-CC-PVTZ
    Blend: AUG-CC-PVTZ
  Basis Set: (AUG-CC-PVTZ AUX)
    Blend: AUG-CC-PVTZ-JKFIT

    Orbital Energies [Eh]
    ---------------------

    Doubly Occupied:

       1A    -26.326503     2A    -11.322252     3A     -1.713395
       4A     -0.949058     5A     -0.763147     6A     -0.763147
       7A     -0.757142     8A     -0.475472     9A     -0.475469

  @DF-RHF Final Energy:  -139.05210069418843

   => Energetics <=

    Nuclear Repulsion Energy =             40.0291439351212759
    One-Electron Energy =                -271.0713187234103430
    Two-Electron Energy =                  91.9900740941006489
    Total Energy =                       -139.0521006941884252
  Basis Set: (AUG-CC-PVTZ AUX)
    Blend: AUG-CC-PVTZ-RI
    Molecular point group: c1

    Geometry (in Angstrom), charge = 0, multiplicity = 1:

       Center              X                  Y                   Z               Mass
    ------------   -----------------  -----------------  -----------------  -----------------
         F            0.000001066423     0.575655774974     0.000000000000    18.998403162730
         C            0.000001066423    -0.615685225026     0.000000000000    12.000000000000
         H           -1.031922933577    -1.173577225026     0.000000000000     1.007825032230
         H            0.515945066423    -1.173595225026     0.893675000000     1.007825032230
         H            0.515945066423    -1.173595225026    -0.893675000000     1.007825032230

  Basis Set: AUG-CC-PVTZ
    Blend: AUG-CC-PVTZ
  Basis Set: (AUG-CC-PVTZ AUX)
    Blend: AUG-CC-PVTZ-JKFIT
	 Reference Energy          =    -139.0521006941884252 [Eh]
	 Singles Energy            =      -0.0000000000000000 [Eh]
	 Same-Spin Energy          =      -0.1098695523526148 [Eh]
	 Opposite-Spin Energy      =      -0.3643664098250709 [Eh]
	 Correlation Energy        =      -0.4742359621776857 [Eh]
	 Total Energy              =    -139.5263366563661123 [Eh]

	 ================> DF-SCS-MP2 Energies <==================
	-----------------------------------------------------------
	 SCS Same-Spin Scale       =       0.3333333333333333 [-]
	 SCS Opposite-Spin Scale   =       1.2000000000000000 [-]
	 SCS Same-Spin Energy      =      -0.0366231841175382 [Eh]
	 SCS Opposite-Spin Energy  =      -0.4372396917900851 [Eh]
	 SCS Correlation Energy    =      -0.4738628759076233 [Eh]
	 SCS Total Energy          =    -139.5259635700960530 [Eh]
	-----------------------------------------------------------

  Dipole Moment: [D]
     X:    -0.0000      Y:    -0.8215      Z:     0.0000     Total:     0.8215

*** Psi4 exiting successfully. Buy a developer a beer!
