                               Psi4 1.4a3.dev225

  ==> Input File <==

--------------------------------------------------------------------------
#psi4
#
memory 32 gb

molecule  {
0 1
  C       -0.3088616     0.0229111     0.0091197
  C        1.2106340     0.0001110     0.0000760
  C       -3.1008180     0.0056250    -0.0137190
  C       -0.9855960    -1.1139970    -0.4586890
  C       -0.9858100     1.1188490     0.4479860
  C       -2.3796020    -1.1098520    -0.4588000
  C       -2.3797760     1.1173260     0.4409920
  C        1.9242530    -1.1209430     0.4529070
  C        1.9275400     1.1199170    -0.4505910
  C       -4.6068780    -0.0078780     0.0198210
  C        3.3192690    -1.1228030     0.4522780
  C        3.3225700     1.1193260    -0.4456390
  C        4.0230520    -0.0023100     0.0044540
  H       -0.4460470    -1.9780880    -0.8418930
  H       -0.4465600     1.9841010     0.8290070
  H       -2.9173870    -1.9815130    -0.8295580
  H       -2.9177760     1.9946350     0.7979050
  H        1.3786050    -1.9834820     0.8303220
  H        1.3846280     1.9832890    -0.8299950
  H       -5.0126890     0.9989950    -0.1140710
  H       -5.0122110    -0.6453700    -0.7711930
  H       -4.9781370    -0.3905110     0.9770230
  H        3.8582660    -1.9961250     0.8126670
  H        3.8641780     1.9916920    -0.8044220
  H        5.1104020    -0.0032360     0.0061230
units angstrom
no_reorient  #important for SAPT in psi4, default
symmetry c1  #important for SAPT in psi4, default
}

set PROPERTIES_ORIGIN ["COM"]
properties('MP2/aug-cc-pvtz', properties = ['dipole'])
--------------------------------------------------------------------------

    Molecular point group: c1
  Charge       = 0
  Multiplicity = 1
  Basis Set: AUG-CC-PVTZ
    Blend: AUG-CC-PVTZ
  Basis Set: (AUG-CC-PVTZ AUX)
    Blend: AUG-CC-PVTZ-JKFIT

    Orbital Energies [Eh]
    ---------------------

    Doubly Occupied:

       1A    -11.246417     2A    -11.242038     3A    -11.239599
       4A    -11.236676     5A    -11.236321     6A    -11.235271
       7A    -11.233956     8A    -11.233627     9A    -11.233254
      10A    -11.232458    11A    -11.232378    12A    -11.230159
      13A    -11.225387    14A     -1.168744    15A     -1.142220
      16A     -1.063591    17A     -1.017810    18A     -1.009571
      19A     -1.003729    20A     -0.928681    21A     -0.841436
      22A     -0.828823    23A     -0.812599    24A     -0.780502
      25A     -0.710627    26A     -0.665460    27A     -0.646394
      28A     -0.640749    29A     -0.614139    30A     -0.613212
      31A     -0.589781    32A     -0.581656    33A     -0.576201
      34A     -0.567010    35A     -0.541596    36A     -0.512665
      37A     -0.508716    38A     -0.497863    39A     -0.485337
      40A     -0.482644    41A     -0.472163    42A     -0.357446
      43A     -0.337790    44A     -0.335682    45A     -0.299752

  @DF-RHF Final Energy:  -499.44832073047286

   => Energetics <=

    Nuclear Repulsion Energy =            687.4113111746805771
    One-Electron Energy =               -2038.3349987462700028
    Two-Electron Energy =                 851.4753668411165108
    Total Energy =                       -499.4483207304729149
  Basis Set: (AUG-CC-PVTZ AUX)
    Blend: AUG-CC-PVTZ-RI
    Molecular point group: c1

    Geometry (in Angstrom), charge = 0, multiplicity = 1:

       Center              X                  Y                   Z               Mass
    ------------   -----------------  -----------------  -----------------  -----------------
         C           -0.342039391359     0.021188421326     0.008734511205    12.000000000000
         C            1.177456208641    -0.001611678674    -0.000309188795    12.000000000000
         C           -3.133995791359     0.003902321326    -0.014104188795    12.000000000000
         C           -1.018773791359    -1.115719678674    -0.459074188795    12.000000000000
         C           -1.018987791359     1.117126321326     0.447600811205    12.000000000000
         C           -2.412779791359    -1.111574678674    -0.459185188795    12.000000000000
         C           -2.412953791359     1.115603321326     0.440606811205    12.000000000000
         C            1.891075208641    -1.122665678674     0.452521811205    12.000000000000
         C            1.894362208641     1.118194321326    -0.450976188795    12.000000000000
         C           -4.640055791359    -0.009600678674     0.019435811205    12.000000000000
         C            3.286091208641    -1.124525678674     0.451892811205    12.000000000000
         C            3.289392208641     1.117603321326    -0.446024188795    12.000000000000
         C            3.989874208641    -0.004032678674     0.004068811205    12.000000000000
         H           -0.479224791359    -1.979810678674    -0.842278188795     1.007825032230
         H           -0.479737791359     1.982378321326     0.828621811205     1.007825032230
         H           -2.950564791359    -1.983235678674    -0.829943188795     1.007825032230
         H           -2.950953791359     1.992912321326     0.797519811205     1.007825032230
         H            1.345427208641    -1.985204678674     0.829936811205     1.007825032230
         H            1.351450208641     1.981566321326    -0.830380188795     1.007825032230
         H           -5.045866791359     0.997272321326    -0.114456188795     1.007825032230
         H           -5.045388791359    -0.647092678674    -0.771578188795     1.007825032230
         H           -5.011314791359    -0.392233678674     0.976637811205     1.007825032230
         H            3.825088208641    -1.997847678674     0.812281811205     1.007825032230
         H            3.831000208641     1.989969321326    -0.804807188795     1.007825032230
         H            5.077224208641    -0.004958678674     0.005737811205     1.007825032230

  Basis Set: AUG-CC-PVTZ
    Blend: AUG-CC-PVTZ
  Basis Set: (AUG-CC-PVTZ AUX)
    Blend: AUG-CC-PVTZ-JKFIT
	 Reference Energy          =    -499.4483207304728580 [Eh]
	 Singles Energy            =      -0.0000000000000000 [Eh]
	 Same-Spin Energy          =      -0.5649068146008247 [Eh]
	 Opposite-Spin Energy      =      -1.7789208564398655 [Eh]
	 Correlation Energy        =      -2.3438276710406902 [Eh]
	 Total Energy              =    -501.7921484015135434 [Eh]

	 ================> DF-SCS-MP2 Energies <==================
	-----------------------------------------------------------
	 SCS Same-Spin Scale       =       0.3333333333333333 [-]
	 SCS Opposite-Spin Scale   =       1.2000000000000000 [-]
	 SCS Same-Spin Energy      =      -0.1883022715336082 [Eh]
	 SCS Opposite-Spin Energy  =      -2.1347050277278385 [Eh]
	 SCS Correlation Energy    =      -2.3230072992614468 [Eh]
	 SCS Total Energy          =    -501.7713280297343204 [Eh]
	-----------------------------------------------------------

  Dipole Moment: [D]
     X:    -0.5410      Y:    -0.0176      Z:     0.0375     Total:     0.5425

*** Psi4 exiting successfully. Buy a developer a beer!
