                               Psi4 1.4a3.dev225

  ==> Input File <==

--------------------------------------------------------------------------
#psi4
#
memory 32 gb

molecule  {
0 1
  C       -0.2663850     0.0008990    -0.0013960
  C        1.2106340     0.0001110     0.0000760
  C       -3.1008180     0.0056250    -0.0137190
  C       -0.9855960    -1.1139970    -0.4586890
  C       -0.9858100     1.1188490     0.4479860
  C       -2.3796020    -1.1098520    -0.4588000
  C       -2.3797760     1.1173260     0.4409920
  C        1.9242530    -1.1209430     0.4529070
  C        1.9275400     1.1199170    -0.4505910
  C       -4.6068780    -0.0078780     0.0198210
  C        3.3192690    -1.1228030     0.4522780
  C        3.3225700     1.1193260    -0.4456390
  C        4.0481248    -0.0424574     0.0205644
  H       -0.4460470    -1.9780880    -0.8418930
  H       -0.4465600     1.9841010     0.8290070
  H       -2.9173870    -1.9815130    -0.8295580
  H       -2.9177760     1.9946350     0.7979050
  H        1.3786050    -1.9834820     0.8303220
  H        1.3846280     1.9832890    -0.8299950
  H       -5.0126890     0.9989950    -0.1140710
  H       -5.0122110    -0.6453700    -0.7711930
  H       -4.9781370    -0.3905110     0.9770230
  H        3.8582660    -1.9961250     0.8126670
  H        3.8641780     1.9916920    -0.8044220
  H        5.1104020    -0.0032360     0.0061230
units angstrom
no_reorient  #important for SAPT in psi4, default
symmetry c1  #important for SAPT in psi4, default
}

set PROPERTIES_ORIGIN ["COM"]
properties('MP2/aug-cc-pvtz', properties = ['dipole'])
--------------------------------------------------------------------------

    Molecular point group: c1
  Charge       = 0
  Multiplicity = 1
  Basis Set: AUG-CC-PVTZ
    Blend: AUG-CC-PVTZ
  Basis Set: (AUG-CC-PVTZ AUX)
    Blend: AUG-CC-PVTZ-JKFIT

    Orbital Energies [Eh]
    ---------------------

    Doubly Occupied:

       1A    -11.245538     2A    -11.242777     3A    -11.241989
       4A    -11.241343     5A    -11.235574     6A    -11.235528
       7A    -11.235348     8A    -11.234592     9A    -11.234382
      10A    -11.233554    11A    -11.232240    12A    -11.232121
      13A    -11.225610    14A     -1.167496    15A     -1.140028
      16A     -1.064906    17A     -1.016708    18A     -1.009350
      19A     -1.002342    20A     -0.929289    21A     -0.840581
      22A     -0.833909    23A     -0.810303    24A     -0.779936
      25A     -0.711575    26A     -0.670000    27A     -0.645722
      28A     -0.642009    29A     -0.613132    30A     -0.612650
      31A     -0.587268    32A     -0.580060    33A     -0.576652
      34A     -0.571968    35A     -0.541364    36A     -0.516878
      37A     -0.507593    38A     -0.495118    39A     -0.482395
      40A     -0.481208    41A     -0.476828    42A     -0.358904
      43A     -0.337316    44A     -0.335518    45A     -0.295639

  @DF-RHF Final Energy:  -499.44688796774926

   => Energetics <=

    Nuclear Repulsion Energy =            686.8445965867633731
    One-Electron Energy =               -2037.1724896077871563
    Two-Electron Energy =                 850.8810050532745208
    Total Energy =                       -499.4468879677492623
  Basis Set: (AUG-CC-PVTZ AUX)
    Blend: AUG-CC-PVTZ-RI
    Molecular point group: c1

    Geometry (in Angstrom), charge = 0, multiplicity = 1:

       Center              X                  Y                   Z               Mass
    ------------   -----------------  -----------------  -----------------  -----------------
         C           -0.304385053190     0.003613805365    -0.002180586987    12.000000000000
         C            1.172633946810     0.002825805365    -0.000708586987    12.000000000000
         C           -3.138818053190     0.008339805365    -0.014503586987    12.000000000000
         C           -1.023596053190    -1.111282194635    -0.459473586987    12.000000000000
         C           -1.023810053190     1.121563805365     0.447201413013    12.000000000000
         C           -2.417602053190    -1.107137194635    -0.459584586987    12.000000000000
         C           -2.417776053190     1.120040805365     0.440207413013    12.000000000000
         C            1.886252946810    -1.118228194635     0.452122413013    12.000000000000
         C            1.889539946810     1.122631805365    -0.451375586987    12.000000000000
         C           -4.644878053190    -0.005163194635     0.019036413013    12.000000000000
         C            3.281268946810    -1.120088194635     0.451493413013    12.000000000000
         C            3.284569946810     1.122040805365    -0.446423586987    12.000000000000
         C            4.010124746810    -0.039742594635     0.019779813013    12.000000000000
         H           -0.484047053190    -1.975373194635    -0.842677586987     1.007825032230
         H           -0.484560053190     1.986815805365     0.828222413013     1.007825032230
         H           -2.955387053190    -1.978798194635    -0.830342586987     1.007825032230
         H           -2.955776053190     1.997349805365     0.797120413013     1.007825032230
         H            1.340604946810    -1.980767194635     0.829537413013     1.007825032230
         H            1.346627946810     1.986003805365    -0.830779586987     1.007825032230
         H           -5.050689053190     1.001709805365    -0.114855586987     1.007825032230
         H           -5.050211053190    -0.642655194635    -0.771977586987     1.007825032230
         H           -5.016137053190    -0.387796194635     0.976238413013     1.007825032230
         H            3.820265946810    -1.993410194635     0.811882413013     1.007825032230
         H            3.826177946810     1.994406805365    -0.805206586987     1.007825032230
         H            5.072401946810    -0.000521194635     0.005338413013     1.007825032230

  Basis Set: AUG-CC-PVTZ
    Blend: AUG-CC-PVTZ
  Basis Set: (AUG-CC-PVTZ AUX)
    Blend: AUG-CC-PVTZ-JKFIT
	 Reference Energy          =    -499.4468879677492623 [Eh]
	 Singles Energy            =      -0.0000000000000000 [Eh]
	 Same-Spin Energy          =      -0.5653059785074954 [Eh]
	 Opposite-Spin Energy      =      -1.7798372291202531 [Eh]
	 Correlation Energy        =      -2.3451432076277485 [Eh]
	 Total Energy              =    -501.7920311753770193 [Eh]

	 ================> DF-SCS-MP2 Energies <==================
	-----------------------------------------------------------
	 SCS Same-Spin Scale       =       0.3333333333333333 [-]
	 SCS Opposite-Spin Scale   =       1.2000000000000000 [-]
	 SCS Same-Spin Energy      =      -0.1884353261691651 [Eh]
	 SCS Opposite-Spin Energy  =      -2.1358046749443038 [Eh]
	 SCS Correlation Energy    =      -2.3242400011134690 [Eh]
	 SCS Total Energy          =    -501.7711279688627428 [Eh]
	-----------------------------------------------------------

  Dipole Moment: [D]
     X:    -0.4869      Y:    -0.0054      Z:     0.0341     Total:     0.4881

*** Psi4 exiting successfully. Buy a developer a beer!
