                               Psi4 1.4a3.dev225

  ==> Input File <==

--------------------------------------------------------------------------
#psi4
#
memory 32 gb

molecule  {
0 1
  C       -0.2663850     0.0008990    -0.0013960
  C        1.2106340     0.0001110     0.0000760
  C       -3.1008180     0.0056250    -0.0137190
  C       -0.9855960    -1.1139970    -0.4586890
  C       -0.9858100     1.1188490     0.4479860
  C       -2.3796020    -1.1098520    -0.4588000
  C       -2.3797760     1.1173260     0.4409920
  C        1.9242530    -1.1209430     0.4529070
  C        1.9275400     1.1199170    -0.4505910
  C       -4.6068780    -0.0078780     0.0198210
  C        3.3192690    -1.1228030     0.4522780
  C        3.3225700     1.1193260    -0.4456390
  C        4.0647328    -0.0255962     0.0143484
  H       -0.4460470    -1.9780880    -0.8418930
  H       -0.4465600     1.9841010     0.8290070
  H       -2.9173870    -1.9815130    -0.8295580
  H       -2.9177760     1.9946350     0.7979050
  H        1.3786050    -1.9834820     0.8303220
  H        1.3846280     1.9832890    -0.8299950
  H       -5.0126890     0.9989950    -0.1140710
  H       -5.0122110    -0.6453700    -0.7711930
  H       -4.9781370    -0.3905110     0.9770230
  H        3.8582660    -1.9961250     0.8126670
  H        3.8641780     1.9916920    -0.8044220
  H        5.1104020    -0.0032360     0.0061230
units angstrom
no_reorient  #important for SAPT in psi4, default
symmetry c1  #important for SAPT in psi4, default
}

set PROPERTIES_ORIGIN ["COM"]
properties('MP2/aug-cc-pvtz', properties = ['dipole'])
--------------------------------------------------------------------------

    Molecular point group: c1
  Charge       = 0
  Multiplicity = 1
  Basis Set: AUG-CC-PVTZ
    Blend: AUG-CC-PVTZ
  Basis Set: (AUG-CC-PVTZ AUX)
    Blend: AUG-CC-PVTZ-JKFIT

    Orbital Energies [Eh]
    ---------------------

    Doubly Occupied:

       1A    -11.245926     2A    -11.242909     3A    -11.241635
       4A    -11.241449     5A    -11.237601     6A    -11.235654
       7A    -11.235500     8A    -11.235495     9A    -11.234351
      10A    -11.234171    11A    -11.232327    12A    -11.232229
      13A    -11.225690    14A     -1.167166    15A     -1.138992
      16A     -1.064250    17A     -1.016158    18A     -1.008299
      19A     -1.003116    20A     -0.929542    21A     -0.839886
      22A     -0.835193    23A     -0.809798    24A     -0.780397
      25A     -0.711473    26A     -0.672572    27A     -0.645524
      28A     -0.641995    29A     -0.612749    30A     -0.611689
      31A     -0.586622    32A     -0.579221    33A     -0.577079
      34A     -0.574013    35A     -0.541375    36A     -0.518474
      37A     -0.507006    38A     -0.494378    39A     -0.482896
      40A     -0.480670    41A     -0.476972    42A     -0.357699
      43A     -0.337365    44A     -0.335471    45A     -0.295531

  @DF-RHF Final Energy:  -499.44652670662026

   => Energetics <=

    Nuclear Repulsion Energy =            686.5076727298805963
    One-Electron Energy =               -2036.4913747793741550
    Two-Electron Energy =                 850.5371753428732973
    Total Energy =                       -499.4465267066202614
  Basis Set: (AUG-CC-PVTZ AUX)
    Blend: AUG-CC-PVTZ-RI
    Molecular point group: c1

    Geometry (in Angstrom), charge = 0, multiplicity = 1:

       Center              X                  Y                   Z               Mass
    ------------   -----------------  -----------------  -----------------  -----------------
         C           -0.305570676223     0.002410106721    -0.001736835014    12.000000000000
         C            1.171448323777     0.001622106721    -0.000264835014    12.000000000000
         C           -3.140003676223     0.007136106721    -0.014059835014    12.000000000000
         C           -1.024781676223    -1.112485893279    -0.459029835014    12.000000000000
         C           -1.024995676223     1.120360106721     0.447645164986    12.000000000000
         C           -2.418787676223    -1.108340893279    -0.459140835014    12.000000000000
         C           -2.418961676223     1.118837106721     0.440651164986    12.000000000000
         C            1.885067323777    -1.119431893279     0.452566164986    12.000000000000
         C            1.888354323777     1.121428106721    -0.450931835014    12.000000000000
         C           -4.646063676223    -0.006366893279     0.019480164986    12.000000000000
         C            3.280083323777    -1.121291893279     0.451937164986    12.000000000000
         C            3.283384323777     1.120837106721    -0.445979835014    12.000000000000
         C            4.025547123777    -0.024085093279     0.014007564986    12.000000000000
         H           -0.485232676223    -1.976576893279    -0.842233835014     1.007825032230
         H           -0.485745676223     1.985612106721     0.828666164986     1.007825032230
         H           -2.956572676223    -1.980001893279    -0.829898835014     1.007825032230
         H           -2.956961676223     1.996146106721     0.797564164986     1.007825032230
         H            1.339419323777    -1.981970893279     0.829981164986     1.007825032230
         H            1.345442323777     1.984800106721    -0.830335835014     1.007825032230
         H           -5.051874676223     1.000506106721    -0.114411835014     1.007825032230
         H           -5.051396676223    -0.643858893279    -0.771533835014     1.007825032230
         H           -5.017322676223    -0.388999893279     0.976682164986     1.007825032230
         H            3.819080323777    -1.994613893279     0.812326164986     1.007825032230
         H            3.824992323777     1.993203106721    -0.804762835014     1.007825032230
         H            5.071216323777    -0.001724893279     0.005782164986     1.007825032230

  Basis Set: AUG-CC-PVTZ
    Blend: AUG-CC-PVTZ
  Basis Set: (AUG-CC-PVTZ AUX)
    Blend: AUG-CC-PVTZ-JKFIT
	 Reference Energy          =    -499.4465267066202614 [Eh]
	 Singles Energy            =      -0.0000000000000000 [Eh]
	 Same-Spin Energy          =      -0.5653506100557948 [Eh]
	 Opposite-Spin Energy      =      -1.7799436924755820 [Eh]
	 Correlation Energy        =      -2.3452943025313768 [Eh]
	 Total Energy              =    -501.7918210091516471 [Eh]

	 ================> DF-SCS-MP2 Energies <==================
	-----------------------------------------------------------
	 SCS Same-Spin Scale       =       0.3333333333333333 [-]
	 SCS Opposite-Spin Scale   =       1.2000000000000000 [-]
	 SCS Same-Spin Energy      =      -0.1884502033519316 [Eh]
	 SCS Opposite-Spin Energy  =      -2.1359324309706982 [Eh]
	 SCS Correlation Energy    =      -2.3243826343226299 [Eh]
	 SCS Total Energy          =    -501.7709093409428647 [Eh]
	-----------------------------------------------------------

  Dipole Moment: [D]
     X:    -0.4914      Y:    -0.0091      Z:     0.0350     Total:     0.4927

*** Psi4 exiting successfully. Buy a developer a beer!
