                               Psi4 1.4a3.dev225

  ==> Input File <==

--------------------------------------------------------------------------
#psi4
#
memory 32 gb

molecule  {
0 1
  C       -0.2663850     0.0008990    -0.0013960
  C        1.2106340     0.0001110     0.0000760
  C       -3.1008180     0.0056250    -0.0137190
  C       -0.9855960    -1.1139970    -0.4586890
  C       -0.9858100     1.1188490     0.4479860
  C       -2.3796020    -1.1098520    -0.4588000
  C       -2.3797760     1.1173260     0.4409920
  C        1.9242530    -1.1209430     0.4529070
  C        1.9275400     1.1199170    -0.4505910
  C       -4.5069068    -0.0069817     0.0175946
  C        3.3192690    -1.1228030     0.4522780
  C        3.3225700     1.1193260    -0.4456390
  C        4.0230520    -0.0023100     0.0044540
  H       -0.4460470    -1.9780880    -0.8418930
  H       -0.4465600     1.9841010     0.8290070
  H       -2.9173870    -1.9815130    -0.8295580
  H       -2.9177760     1.9946350     0.7979050
  H        1.3786050    -1.9834820     0.8303220
  H        1.3846280     1.9832890    -0.8299950
  H       -5.0126890     0.9989950    -0.1140710
  H       -5.0122110    -0.6453700    -0.7711930
  H       -4.9781370    -0.3905110     0.9770230
  H        3.8582660    -1.9961250     0.8126670
  H        3.8641780     1.9916920    -0.8044220
  H        5.1104020    -0.0032360     0.0061230
units angstrom
no_reorient  #important for SAPT in psi4, default
symmetry c1  #important for SAPT in psi4, default
}

set PROPERTIES_ORIGIN ["COM"]
properties('MP2/aug-cc-pvtz', properties = ['dipole'])
--------------------------------------------------------------------------

    Molecular point group: c1
  Charge       = 0
  Multiplicity = 1
  Basis Set: AUG-CC-PVTZ
    Blend: AUG-CC-PVTZ
  Basis Set: (AUG-CC-PVTZ AUX)
    Blend: AUG-CC-PVTZ-JKFIT

    Orbital Energies [Eh]
    ---------------------

    Doubly Occupied:

       1A    -11.245211     2A    -11.241690     3A    -11.237429
       4A    -11.237371     5A    -11.237123     6A    -11.235663
       7A    -11.235524     8A    -11.234749     9A    -11.234582
      10A    -11.234345    11A    -11.232412    12A    -11.232269
      13A    -11.229872    14A     -1.169898    15A     -1.144520
      16A     -1.073624    17A     -1.017290    18A     -1.009246
      19A     -1.008944    20A     -0.925885    21A     -0.842013
      22A     -0.830862    23A     -0.812702    24A     -0.779752
      25A     -0.712262    26A     -0.669070    27A     -0.649844
      28A     -0.648014    29A     -0.614151    30A     -0.613995
      31A     -0.587986    32A     -0.580224    33A     -0.580042
      34A     -0.567640    35A     -0.526007    36A     -0.524161
      37A     -0.506664    38A     -0.494527    39A     -0.485014
      40A     -0.478174    41A     -0.476265    42A     -0.357479
      43A     -0.337905    44A     -0.336188    45A     -0.294812

  @DF-RHF Final Energy:  -499.43757764806531

   => Energetics <=

    Nuclear Repulsion Energy =            689.1598417473308018
    One-Electron Energy =               -2041.7480414183930861
    Two-Electron Energy =                 853.1506220229969131
    Total Energy =                       -499.4375776480653712
  Basis Set: (AUG-CC-PVTZ AUX)
    Blend: AUG-CC-PVTZ-RI
    Molecular point group: c1

    Geometry (in Angstrom), charge = 0, multiplicity = 1:

       Center              X                  Y                   Z               Mass
    ------------   -----------------  -----------------  -----------------  -----------------
         C           -0.309731950359     0.000683750206    -0.000871547221    12.000000000000
         C            1.167287049641    -0.000104249794     0.000600452779    12.000000000000
         C           -3.144164950359     0.005409750206    -0.013194547221    12.000000000000
         C           -1.028942950359    -1.114212249794    -0.458164547221    12.000000000000
         C           -1.029156950359     1.118633750206     0.448510452779    12.000000000000
         C           -2.422948950359    -1.110067249794    -0.458275547221    12.000000000000
         C           -2.423122950359     1.117110750206     0.441516452779    12.000000000000
         C            1.880906049641    -1.121158249794     0.453431452779    12.000000000000
         C            1.884193049641     1.119701750206    -0.450066547221    12.000000000000
         C           -4.550253750359    -0.007196949794     0.018119052779    12.000000000000
         C            3.275922049641    -1.123018249794     0.452802452779    12.000000000000
         C            3.279223049641     1.119110750206    -0.445114547221    12.000000000000
         C            3.979705049641    -0.002525249794     0.004978452779    12.000000000000
         H           -0.489393950359    -1.978303249794    -0.841368547221     1.007825032230
         H           -0.489906950359     1.983885750206     0.829531452779     1.007825032230
         H           -2.960733950359    -1.981728249794    -0.829033547221     1.007825032230
         H           -2.961122950359     1.994419750206     0.798429452779     1.007825032230
         H            1.335258049641    -1.983697249794     0.830846452779     1.007825032230
         H            1.341281049641     1.983073750206    -0.829470547221     1.007825032230
         H           -5.056035950359     0.998779750206    -0.113546547221     1.007825032230
         H           -5.055557950359    -0.645585249794    -0.770668547221     1.007825032230
         H           -5.021483950359    -0.390726249794     0.977547452779     1.007825032230
         H            3.814919049641    -1.996340249794     0.813191452779     1.007825032230
         H            3.820831049641     1.991476750206    -0.803897547221     1.007825032230
         H            5.067055049641    -0.003451249794     0.006647452779     1.007825032230

  Basis Set: AUG-CC-PVTZ
    Blend: AUG-CC-PVTZ
  Basis Set: (AUG-CC-PVTZ AUX)
    Blend: AUG-CC-PVTZ-JKFIT
	 Reference Energy          =    -499.4375776480653144 [Eh]
	 Singles Energy            =      -0.0000000000000000 [Eh]
	 Same-Spin Energy          =      -0.5666620761693626 [Eh]
	 Opposite-Spin Energy      =      -1.7810898188457813 [Eh]
	 Correlation Energy        =      -2.3477518950151439 [Eh]
	 Total Energy              =    -501.7853295430804792 [Eh]

	 ================> DF-SCS-MP2 Energies <==================
	-----------------------------------------------------------
	 SCS Same-Spin Scale       =       0.3333333333333333 [-]
	 SCS Opposite-Spin Scale   =       1.2000000000000000 [-]
	 SCS Same-Spin Energy      =      -0.1888873587231208 [Eh]
	 SCS Opposite-Spin Energy  =      -2.1373077826149376 [Eh]
	 SCS Correlation Energy    =      -2.3261951413380584 [Eh]
	 SCS Total Energy          =    -501.7637727894033901 [Eh]
	-----------------------------------------------------------

  Dipole Moment: [D]
     X:    -0.4756      Y:    -0.0150      Z:     0.0399     Total:     0.4775

*** Psi4 exiting successfully. Buy a developer a beer!
