                               Psi4 1.4a3.dev225

  ==> Input File <==

--------------------------------------------------------------------------
#psi4
#
memory 32 gb

molecule  {
0 1
  C       -0.2663850     0.0008990    -0.0013960
  C        1.2106340     0.0001110     0.0000760
  C       -3.1008180     0.0056250    -0.0137190
  C       -0.9855960    -1.1139970    -0.4586890
  C       -0.9858100     1.1188490     0.4479860
  C       -2.5796011    -1.1092573    -0.4588159
  C       -2.3797760     1.1173260     0.4409920
  C        1.9242530    -1.1209430     0.4529070
  C        1.9275400     1.1199170    -0.4505910
  C       -4.6068780    -0.0078780     0.0198210
  C        3.3192690    -1.1228030     0.4522780
  C        3.3225700     1.1193260    -0.4456390
  C        4.0230520    -0.0023100     0.0044540
  H       -0.4460470    -1.9780880    -0.8418930
  H       -0.4465600     1.9841010     0.8290070
  H       -2.9173870    -1.9815130    -0.8295580
  H       -2.9177760     1.9946350     0.7979050
  H        1.3786050    -1.9834820     0.8303220
  H        1.3846280     1.9832890    -0.8299950
  H       -5.0126890     0.9989950    -0.1140710
  H       -5.0122110    -0.6453700    -0.7711930
  H       -4.9781370    -0.3905110     0.9770230
  H        3.8582660    -1.9961250     0.8126670
  H        3.8641780     1.9916920    -0.8044220
  H        5.1104020    -0.0032360     0.0061230
units angstrom
no_reorient  #important for SAPT in psi4, default
symmetry c1  #important for SAPT in psi4, default
}

set PROPERTIES_ORIGIN ["COM"]
properties('MP2/aug-cc-pvtz', properties = ['dipole'])
--------------------------------------------------------------------------

    Molecular point group: c1
  Charge       = 0
  Multiplicity = 1
  Basis Set: AUG-CC-PVTZ
    Blend: AUG-CC-PVTZ
  Basis Set: (AUG-CC-PVTZ AUX)
    Blend: AUG-CC-PVTZ-JKFIT

    Orbital Energies [Eh]
    ---------------------

    Doubly Occupied:

       1A    -11.250298     2A    -11.245446     3A    -11.241654
       4A    -11.239584     5A    -11.237480     6A    -11.237095
       7A    -11.235080     8A    -11.234917     9A    -11.234588
      10A    -11.234238    11A    -11.233961    12A    -11.232063
      13A    -11.219810    14A     -1.166078    15A     -1.141931
      16A     -1.073783    17A     -1.015594    18A     -1.010547
      19A     -0.986737    20A     -0.927116    21A     -0.851070
      22A     -0.830125    23A     -0.816586    24A     -0.778170
      25A     -0.713270    26A     -0.670558    27A     -0.653889
      28A     -0.642646    29A     -0.622129    30A     -0.612054
      31A     -0.586474    32A     -0.577535    33A     -0.574773
      34A     -0.572630    35A     -0.538101    36A     -0.511586
      37A     -0.507915    38A     -0.502539    39A     -0.488462
      40A     -0.476607    41A     -0.450995    42A     -0.367308
      43A     -0.336961    44A     -0.324270    45A     -0.301068

  @DF-RHF Final Energy:  -499.40774209925473

   => Energetics <=

    Nuclear Repulsion Energy =            685.7012297715807563
    One-Electron Energy =               -2034.8064980060846665
    Two-Electron Energy =                 849.6975261352491771
    Total Energy =                       -499.4077420992547331
  Basis Set: (AUG-CC-PVTZ AUX)
    Blend: AUG-CC-PVTZ-RI
    Molecular point group: c1

    Geometry (in Angstrom), charge = 0, multiplicity = 1:

       Center              X                  Y                   Z               Mass
    ------------   -----------------  -----------------  -----------------  -----------------
         C           -0.288317469573     0.000705281029    -0.001029351877    12.000000000000
         C            1.188701530427    -0.000082718971     0.000442648123    12.000000000000
         C           -3.122750469573     0.005431281029    -0.013352351877    12.000000000000
         C           -1.007528469573    -1.114190718971    -0.458322351877    12.000000000000
         C           -1.007742469573     1.118655281029     0.448352648123    12.000000000000
         C           -2.601533569573    -1.109451018971    -0.458449251877    12.000000000000
         C           -2.401708469573     1.117132281029     0.441358648123    12.000000000000
         C            1.902320530427    -1.121136718971     0.453273648123    12.000000000000
         C            1.905607530427     1.119723281029    -0.450224351877    12.000000000000
         C           -4.628810469573    -0.008071718971     0.020187648123    12.000000000000
         C            3.297336530427    -1.122996718971     0.452644648123    12.000000000000
         C            3.300637530427     1.119132281029    -0.445272351877    12.000000000000
         C            4.001119530427    -0.002503718971     0.004820648123    12.000000000000
         H           -0.467979469573    -1.978281718971    -0.841526351877     1.007825032230
         H           -0.468492469573     1.983907281029     0.829373648123     1.007825032230
         H           -2.939319469573    -1.981706718971    -0.829191351877     1.007825032230
         H           -2.939708469573     1.994441281029     0.798271648123     1.007825032230
         H            1.356672530427    -1.983675718971     0.830688648123     1.007825032230
         H            1.362695530427     1.983095281029    -0.829628351877     1.007825032230
         H           -5.034621469573     0.998801281029    -0.113704351877     1.007825032230
         H           -5.034143469573    -0.645563718971    -0.770826351877     1.007825032230
         H           -5.000069469573    -0.390704718971     0.977389648123     1.007825032230
         H            3.836333530427    -1.996318718971     0.813033648123     1.007825032230
         H            3.842245530427     1.991498281029    -0.804055351877     1.007825032230
         H            5.088469530427    -0.003429718971     0.006489648123     1.007825032230

  Basis Set: AUG-CC-PVTZ
    Blend: AUG-CC-PVTZ
  Basis Set: (AUG-CC-PVTZ AUX)
    Blend: AUG-CC-PVTZ-JKFIT
	 Reference Energy          =    -499.4077420992547331 [Eh]
	 Singles Energy            =      -0.0000000000000000 [Eh]
	 Same-Spin Energy          =      -0.5649631918421432 [Eh]
	 Opposite-Spin Energy      =      -1.7822788142734327 [Eh]
	 Correlation Energy        =      -2.3472420061155761 [Eh]
	 Total Energy              =    -501.7549841053702835 [Eh]

	 ================> DF-SCS-MP2 Energies <==================
	-----------------------------------------------------------
	 SCS Same-Spin Scale       =       0.3333333333333333 [-]
	 SCS Opposite-Spin Scale   =       1.2000000000000000 [-]
	 SCS Same-Spin Energy      =      -0.1883210639473810 [Eh]
	 SCS Opposite-Spin Energy  =      -2.1387345771281190 [Eh]
	 SCS Correlation Energy    =      -2.3270556410754999 [Eh]
	 SCS Total Energy          =    -501.7347977403302366 [Eh]
	-----------------------------------------------------------

  Dipole Moment: [D]
     X:    -0.3507      Y:    -0.0355      Z:     0.0200     Total:     0.3530

*** Psi4 exiting successfully. Buy a developer a beer!
