                               Psi4 1.4a3.dev225

  ==> Input File <==

--------------------------------------------------------------------------
#psi4
#
memory 32 gb

molecule  {
0 1
  C       -0.2663850     0.0008990    -0.0013960
  C        1.2106340     0.0001110     0.0000760
  C       -3.1008180     0.0056250    -0.0137190
  C       -0.9855960    -1.1139970    -0.4586890
  C       -0.9858100     1.1188490     0.4479860
  C       -2.4796016    -1.1095547    -0.4588080
  C       -2.3797760     1.1173260     0.4409920
  C        1.9242530    -1.1209430     0.4529070
  C        1.9275400     1.1199170    -0.4505910
  C       -4.6068780    -0.0078780     0.0198210
  C        3.3192690    -1.1228030     0.4522780
  C        3.3225700     1.1193260    -0.4456390
  C        4.0230520    -0.0023100     0.0044540
  H       -0.4460470    -1.9780880    -0.8418930
  H       -0.4465600     1.9841010     0.8290070
  H       -2.9173870    -1.9815130    -0.8295580
  H       -2.9177760     1.9946350     0.7979050
  H        1.3786050    -1.9834820     0.8303220
  H        1.3846280     1.9832890    -0.8299950
  H       -5.0126890     0.9989950    -0.1140710
  H       -5.0122110    -0.6453700    -0.7711930
  H       -4.9781370    -0.3905110     0.9770230
  H        3.8582660    -1.9961250     0.8126670
  H        3.8641780     1.9916920    -0.8044220
  H        5.1104020    -0.0032360     0.0061230
units angstrom
no_reorient  #important for SAPT in psi4, default
symmetry c1  #important for SAPT in psi4, default
}

set PROPERTIES_ORIGIN ["COM"]
properties('MP2/aug-cc-pvtz', properties = ['dipole'])
--------------------------------------------------------------------------

    Molecular point group: c1
  Charge       = 0
  Multiplicity = 1
  Basis Set: AUG-CC-PVTZ
    Blend: AUG-CC-PVTZ
  Basis Set: (AUG-CC-PVTZ AUX)
    Blend: AUG-CC-PVTZ-JKFIT

    Orbital Energies [Eh]
    ---------------------

    Doubly Occupied:

       1A    -11.245279     2A    -11.244526     3A    -11.241440
       4A    -11.237826     5A    -11.237367     6A    -11.237278
       7A    -11.237075     8A    -11.234767     9A    -11.234543
      10A    -11.234271    11A    -11.233489    12A    -11.232216
      13A    -11.222433    14A     -1.166683    15A     -1.141103
      16A     -1.069333    17A     -1.015406    18A     -1.008425
      19A     -0.995795    20A     -0.928320    21A     -0.846087
      22A     -0.831380    23A     -0.814737    24A     -0.777807
      25A     -0.712475    26A     -0.666776    27A     -0.646320
      28A     -0.643479    29A     -0.619690    30A     -0.612540
      31A     -0.587220    32A     -0.579275    33A     -0.575650
      34A     -0.572521    35A     -0.539162    36A     -0.509336
      37A     -0.506080    38A     -0.504447    39A     -0.486553
      40A     -0.478436    41A     -0.470170    42A     -0.362797
      43A     -0.336938    44A     -0.327673    45A     -0.300136

  @DF-RHF Final Energy:  -499.43828963871454

   => Energetics <=

    Nuclear Repulsion Energy =            686.4600035408385565
    One-Electron Energy =               -2036.3860668153811275
    Two-Electron Energy =                 850.4877736358281481
    Total Energy =                       -499.4382896387145365
  Basis Set: (AUG-CC-PVTZ AUX)
    Blend: AUG-CC-PVTZ-RI
    Molecular point group: c1

    Geometry (in Angstrom), charge = 0, multiplicity = 1:

       Center              X                  Y                   Z               Mass
    ------------   -----------------  -----------------  -----------------  -----------------
         C           -0.295456300889     0.000726512019    -0.001029915847    12.000000000000
         C            1.181562699111    -0.000061487981     0.000442084153    12.000000000000
         C           -3.129889300889     0.005452512019    -0.013352915847    12.000000000000
         C           -1.014667300889    -1.114169487981    -0.458322915847    12.000000000000
         C           -1.014881300889     1.118676512019     0.448352084153    12.000000000000
         C           -2.508672900889    -1.109727187981    -0.458441915847    12.000000000000
         C           -2.408847300889     1.117153512019     0.441358084153    12.000000000000
         C            1.895181699111    -1.121115487981     0.453273084153    12.000000000000
         C            1.898468699111     1.119744512019    -0.450224915847    12.000000000000
         C           -4.635949300889    -0.008050487981     0.020187084153    12.000000000000
         C            3.290197699111    -1.122975487981     0.452644084153    12.000000000000
         C            3.293498699111     1.119153512019    -0.445272915847    12.000000000000
         C            3.993980699111    -0.002482487981     0.004820084153    12.000000000000
         H           -0.475118300889    -1.978260487981    -0.841526915847     1.007825032230
         H           -0.475631300889     1.983928512019     0.829373084153     1.007825032230
         H           -2.946458300889    -1.981685487981    -0.829191915847     1.007825032230
         H           -2.946847300889     1.994462512019     0.798271084153     1.007825032230
         H            1.349533699111    -1.983654487981     0.830688084153     1.007825032230
         H            1.355556699111     1.983116512019    -0.829628915847     1.007825032230
         H           -5.041760300889     0.998822512019    -0.113704915847     1.007825032230
         H           -5.041282300889    -0.645542487981    -0.770826915847     1.007825032230
         H           -5.007208300889    -0.390683487981     0.977389084153     1.007825032230
         H            3.829194699111    -1.996297487981     0.813033084153     1.007825032230
         H            3.835106699111     1.991519512019    -0.804055915847     1.007825032230
         H            5.081330699111    -0.003408487981     0.006489084153     1.007825032230

  Basis Set: AUG-CC-PVTZ
    Blend: AUG-CC-PVTZ
  Basis Set: (AUG-CC-PVTZ AUX)
    Blend: AUG-CC-PVTZ-JKFIT
	 Reference Energy          =    -499.4382896387145365 [Eh]
	 Singles Energy            =      -0.0000000000000000 [Eh]
	 Same-Spin Energy          =      -0.5651699133546719 [Eh]
	 Opposite-Spin Energy      =      -1.7804634439791620 [Eh]
	 Correlation Energy        =      -2.3456333573338339 [Eh]
	 Total Energy              =    -501.7839229960483749 [Eh]

	 ================> DF-SCS-MP2 Energies <==================
	-----------------------------------------------------------
	 SCS Same-Spin Scale       =       0.3333333333333333 [-]
	 SCS Opposite-Spin Scale   =       1.2000000000000000 [-]
	 SCS Same-Spin Energy      =      -0.1883899711182240 [Eh]
	 SCS Opposite-Spin Energy  =      -2.1365561327749942 [Eh]
	 SCS Correlation Energy    =      -2.3249461038932182 [Eh]
	 SCS Total Energy          =    -501.7632357426077760 [Eh]
	-----------------------------------------------------------

  Dipole Moment: [D]
     X:    -0.4132      Y:    -0.0295      Z:     0.0262     Total:     0.4150

*** Psi4 exiting successfully. Buy a developer a beer!
