                               Psi4 1.4a3.dev225

  ==> Input File <==

--------------------------------------------------------------------------
#psi4
#
memory 32 gb

molecule  {
0 1
  C       -0.2663850     0.0008990    -0.0013960
  C        1.2106340     0.0001110     0.0000760
  C       -3.1008180     0.0056250    -0.0137190
  C       -0.9855960    -1.1139970    -0.4586890
  C       -0.9858100     1.1188490     0.4479860
  C       -2.3796020    -1.1098520    -0.4588000
  C       -2.3797760     1.1173260     0.4409920
  C        1.8225941    -0.9612428     0.3883988
  C        1.9275400     1.1199170    -0.4505910
  C       -4.6068780    -0.0078780     0.0198210
  C        3.3192690    -1.1228030     0.4522780
  C        3.3225700     1.1193260    -0.4456390
  C        4.0230520    -0.0023100     0.0044540
  H       -0.4460470    -1.9780880    -0.8418930
  H       -0.4465600     1.9841010     0.8290070
  H       -2.9173870    -1.9815130    -0.8295580
  H       -2.9177760     1.9946350     0.7979050
  H        1.3786050    -1.9834820     0.8303220
  H        1.3846280     1.9832890    -0.8299950
  H       -5.0126890     0.9989950    -0.1140710
  H       -5.0122110    -0.6453700    -0.7711930
  H       -4.9781370    -0.3905110     0.9770230
  H        3.8582660    -1.9961250     0.8126670
  H        3.8641780     1.9916920    -0.8044220
  H        5.1104020    -0.0032360     0.0061230
units angstrom
no_reorient  #important for SAPT in psi4, default
symmetry c1  #important for SAPT in psi4, default
}

set PROPERTIES_ORIGIN ["COM"]
properties('MP2/aug-cc-pvtz', properties = ['dipole'])
--------------------------------------------------------------------------

    Molecular point group: c1
  Charge       = 0
  Multiplicity = 1
  Basis Set: AUG-CC-PVTZ
    Blend: AUG-CC-PVTZ
  Basis Set: (AUG-CC-PVTZ AUX)
    Blend: AUG-CC-PVTZ-JKFIT

    Orbital Energies [Eh]
    ---------------------

    Doubly Occupied:

       1A    -11.246405     2A    -11.241522     3A    -11.239920
       4A    -11.237437     5A    -11.236201     6A    -11.235115
       7A    -11.234347     8A    -11.233913     9A    -11.231230
      10A    -11.231027    11A    -11.229374    12A    -11.224780
      13A    -11.217558    14A     -1.183899    15A     -1.145044
      16A     -1.070468    17A     -1.022639    18A     -1.011958
      19A     -0.996192    20A     -0.930427    21A     -0.849883
      22A     -0.825373    23A     -0.813069    24A     -0.776646
      25A     -0.714390    26A     -0.661897    27A     -0.646901
      28A     -0.640244    29A     -0.625240    30A     -0.611779
      31A     -0.582257    32A     -0.578051    33A     -0.574377
      34A     -0.566794    35A     -0.542551    36A     -0.518580
      37A     -0.514906    38A     -0.497319    39A     -0.483706
      40A     -0.481633    41A     -0.448491    42A     -0.376560
      43A     -0.335509    44A     -0.324080    45A     -0.306092

  @DF-RHF Final Energy:  -499.38954193658731

   => Energetics <=

    Nuclear Repulsion Energy =            690.6339066192283553
    One-Electron Energy =               -2044.6553306818163946
    Two-Electron Energy =                 854.6318821260007326
    Total Energy =                       -499.3895419365873067
  Basis Set: (AUG-CC-PVTZ AUX)
    Blend: AUG-CC-PVTZ-RI
    Molecular point group: c1

    Geometry (in Angstrom), charge = 0, multiplicity = 1:

       Center              X                  Y                   Z               Mass
    ------------   -----------------  -----------------  -----------------  -----------------
         C           -0.295337845668    -0.010653049021     0.003574667652    12.000000000000
         C            1.181681154332    -0.011441049021     0.005046667652    12.000000000000
         C           -3.129770845668    -0.005927049021    -0.008748332348    12.000000000000
         C           -1.014548845668    -1.125549049021    -0.453718332348    12.000000000000
         C           -1.014762845668     1.107296950979     0.452956667652    12.000000000000
         C           -2.408554845668    -1.121404049021    -0.453829332348    12.000000000000
         C           -2.408728845668     1.105773950979     0.445962667652    12.000000000000
         C            1.793641254332    -0.972794849021     0.393369467652    12.000000000000
         C            1.898587154332     1.108364950979    -0.445620332348    12.000000000000
         C           -4.635830845668    -0.019430049021     0.024791667652    12.000000000000
         C            3.290316154332    -1.134355049021     0.457248667652    12.000000000000
         C            3.293617154332     1.107773950979    -0.440668332348    12.000000000000
         C            3.994099154332    -0.013862049021     0.009424667652    12.000000000000
         H           -0.474999845668    -1.989640049021    -0.836922332348     1.007825032230
         H           -0.475512845668     1.972548950979     0.833977667652     1.007825032230
         H           -2.946339845668    -1.993065049021    -0.824587332348     1.007825032230
         H           -2.946728845668     1.983082950979     0.802875667652     1.007825032230
         H            1.349652154332    -1.995034049021     0.835292667652     1.007825032230
         H            1.355675154332     1.971736950979    -0.825024332348     1.007825032230
         H           -5.041641845668     0.987442950979    -0.109100332348     1.007825032230
         H           -5.041163845668    -0.656922049021    -0.766222332348     1.007825032230
         H           -5.007089845668    -0.402063049021     0.981993667652     1.007825032230
         H            3.829313154332    -2.007677049021     0.817637667652     1.007825032230
         H            3.835225154332     1.980139950979    -0.799451332348     1.007825032230
         H            5.081449154332    -0.014788049021     0.011093667652     1.007825032230

  Basis Set: AUG-CC-PVTZ
    Blend: AUG-CC-PVTZ
  Basis Set: (AUG-CC-PVTZ AUX)
    Blend: AUG-CC-PVTZ-JKFIT
	 Reference Energy          =    -499.3895419365873067 [Eh]
	 Singles Energy            =      -0.0000000000000000 [Eh]
	 Same-Spin Energy          =      -0.5648480107751950 [Eh]
	 Opposite-Spin Energy      =      -1.7814305268774668 [Eh]
	 Correlation Energy        =      -2.3462785376526618 [Eh]
	 Total Energy              =    -501.7358204742399721 [Eh]

	 ================> DF-SCS-MP2 Energies <==================
	-----------------------------------------------------------
	 SCS Same-Spin Scale       =       0.3333333333333333 [-]
	 SCS Opposite-Spin Scale   =       1.2000000000000000 [-]
	 SCS Same-Spin Energy      =      -0.1882826702583983 [Eh]
	 SCS Opposite-Spin Energy  =      -2.1377166322529599 [Eh]
	 SCS Correlation Energy    =      -2.3259993025113581 [Eh]
	 SCS Total Energy          =    -501.7155412390986839 [Eh]
	-----------------------------------------------------------

  Dipole Moment: [D]
     X:    -0.3379      Y:     0.0019      Z:     0.0231     Total:     0.3387

*** Psi4 exiting successfully. Buy a developer a beer!
