                               Psi4 1.4a3.dev225

  ==> Input File <==

--------------------------------------------------------------------------
#psi4
#
memory 32 gb

molecule  {
0 1
  C       -0.2247846    -0.0224714    -0.0124689
  C        1.2106340     0.0001110     0.0000760
  C       -3.1008180     0.0056250    -0.0137190
  C       -0.9855960    -1.1139970    -0.4586890
  C       -0.9858100     1.1188490     0.4479860
  C       -2.3796020    -1.1098520    -0.4588000
  C       -2.3797760     1.1173260     0.4409920
  C        1.9242530    -1.1209430     0.4529070
  C        1.9275400     1.1199170    -0.4505910
  C       -4.6068780    -0.0078780     0.0198210
  C        3.3192690    -1.1228030     0.4522780
  C        3.3225700     1.1193260    -0.4456390
  C        4.0230520    -0.0023100     0.0044540
  H       -0.4460470    -1.9780880    -0.8418930
  H       -0.4465600     1.9841010     0.8290070
  H       -2.9173870    -1.9815130    -0.8295580
  H       -2.9177760     1.9946350     0.7979050
  H        1.3786050    -1.9834820     0.8303220
  H        1.3846280     1.9832890    -0.8299950
  H       -5.0126890     0.9989950    -0.1140710
  H       -5.0122110    -0.6453700    -0.7711930
  H       -4.9781370    -0.3905110     0.9770230
  H        3.8582660    -1.9961250     0.8126670
  H        3.8641780     1.9916920    -0.8044220
  H        5.1104020    -0.0032360     0.0061230
units angstrom
no_reorient  #important for SAPT in psi4, default
symmetry c1  #important for SAPT in psi4, default
}

set PROPERTIES_ORIGIN ["COM"]
properties('MP2/aug-cc-pvtz', properties = ['dipole'])
--------------------------------------------------------------------------

    Molecular point group: c1
  Charge       = 0
  Multiplicity = 1
  Basis Set: AUG-CC-PVTZ
    Blend: AUG-CC-PVTZ
  Basis Set: (AUG-CC-PVTZ AUX)
    Blend: AUG-CC-PVTZ-JKFIT

    Orbital Energies [Eh]
    ---------------------

    Doubly Occupied:

       1A    -11.243410     2A    -11.243154     3A    -11.242490
       4A    -11.239650     5A    -11.237745     6A    -11.237349
       7A    -11.235389     8A    -11.235381     9A    -11.235020
      10A    -11.234601    11A    -11.232124    12A    -11.231741
      13A    -11.225635    14A     -1.168500    15A     -1.140092
      16A     -1.067696    17A     -1.016597    18A     -1.007885
      19A     -1.003804    20A     -0.929063    21A     -0.840442
      22A     -0.837128    23A     -0.810276    24A     -0.778286
      25A     -0.713138    26A     -0.667087    27A     -0.646295
      28A     -0.642922    29A     -0.614047    30A     -0.613021
      31A     -0.587100    32A     -0.578436    33A     -0.576926
      34A     -0.573149    35A     -0.541026    36A     -0.512752
      37A     -0.509049    38A     -0.498334    39A     -0.487780
      40A     -0.478999    41A     -0.473921    42A     -0.361029
      43A     -0.337742    44A     -0.335489    45A     -0.292074

  @DF-RHF Final Energy:  -499.44565327787689

   => Energetics <=

    Nuclear Repulsion Energy =            687.2993344820134780
    One-Electron Energy =               -2038.0624285611786490
    Two-Electron Energy =                 851.3174408012881713
    Total Energy =                       -499.4456532778768860
  Basis Set: (AUG-CC-PVTZ AUX)
    Blend: AUG-CC-PVTZ-RI
    Molecular point group: c1

    Geometry (in Angstrom), charge = 0, multiplicity = 1:

       Center              X                  Y                   Z               Mass
    ------------   -----------------  -----------------  -----------------  -----------------
         C           -0.263964536574    -0.020954282353    -0.011312907351    12.000000000000
         C            1.171454063426     0.001628117647     0.001231992649    12.000000000000
         C           -3.139997936574     0.007142117647    -0.012563007351    12.000000000000
         C           -1.024775936574    -1.112479882353    -0.457533007351    12.000000000000
         C           -1.024989936574     1.120366117647     0.449141992649    12.000000000000
         C           -2.418781936574    -1.108334882353    -0.457644007351    12.000000000000
         C           -2.418955936574     1.118843117647     0.442147992649    12.000000000000
         C            1.885073063426    -1.119425882353     0.454062992649    12.000000000000
         C            1.888360063426     1.121434117647    -0.449435007351    12.000000000000
         C           -4.646057936574    -0.006360882353     0.020976992649    12.000000000000
         C            3.280089063426    -1.121285882353     0.453433992649    12.000000000000
         C            3.283390063426     1.120843117647    -0.444483007351    12.000000000000
         C            3.983872063426    -0.000792882353     0.005609992649    12.000000000000
         H           -0.485226936574    -1.976570882353    -0.840737007351     1.007825032230
         H           -0.485739936574     1.985618117647     0.830162992649     1.007825032230
         H           -2.956566936574    -1.979995882353    -0.828402007351     1.007825032230
         H           -2.956955936574     1.996152117647     0.799060992649     1.007825032230
         H            1.339425063426    -1.981964882353     0.831477992649     1.007825032230
         H            1.345448063426     1.984806117647    -0.828839007351     1.007825032230
         H           -5.051868936574     1.000512117647    -0.112915007351     1.007825032230
         H           -5.051390936574    -0.643852882353    -0.770037007351     1.007825032230
         H           -5.017316936574    -0.388993882353     0.978178992649     1.007825032230
         H            3.819086063426    -1.994607882353     0.813822992649     1.007825032230
         H            3.824998063426     1.993209117647    -0.803266007351     1.007825032230
         H            5.071222063426    -0.001718882353     0.007278992649     1.007825032230

  Basis Set: AUG-CC-PVTZ
    Blend: AUG-CC-PVTZ
  Basis Set: (AUG-CC-PVTZ AUX)
    Blend: AUG-CC-PVTZ-JKFIT
	 Reference Energy          =    -499.4456532778768860 [Eh]
	 Singles Energy            =      -0.0000000000000000 [Eh]
	 Same-Spin Energy          =      -0.5660157926582616 [Eh]
	 Opposite-Spin Energy      =      -1.7807129547595457 [Eh]
	 Correlation Energy        =      -2.3467287474178073 [Eh]
	 Total Energy              =    -501.7923820252946712 [Eh]

	 ================> DF-SCS-MP2 Energies <==================
	-----------------------------------------------------------
	 SCS Same-Spin Scale       =       0.3333333333333333 [-]
	 SCS Opposite-Spin Scale   =       1.2000000000000000 [-]
	 SCS Same-Spin Energy      =      -0.1886719308860872 [Eh]
	 SCS Opposite-Spin Energy  =      -2.1368555457114549 [Eh]
	 SCS Correlation Energy    =      -2.3255274765975420 [Eh]
	 SCS Total Energy          =    -501.7711807544744147 [Eh]
	-----------------------------------------------------------

  Dipole Moment: [D]
     X:    -0.4286      Y:    -0.0096      Z:     0.0364     Total:     0.4302

*** Psi4 exiting successfully. Buy a developer a beer!
