                               Psi4 1.4a3.dev225

  ==> Input File <==

--------------------------------------------------------------------------
#psi4
#
memory 32 gb

molecule  {
0 1
  C       -0.2663850     0.0008990    -0.0013960
  C        1.2106340     0.0001110     0.0000760
  C       -3.1008180     0.0056250    -0.0137190
  C       -0.9855960    -1.1139970    -0.4586890
  C       -0.9858100     1.1188490     0.4479860
  C       -2.3796020    -1.1098520    -0.4588000
  C       -2.3797760     1.1173260     0.4409920
  C        1.9242530    -1.1209430     0.4529070
  C        1.9275400     1.1199170    -0.4505910
  C       -4.6068780    -0.0078780     0.0198210
  C        3.3192690    -1.1228030     0.4522780
  C        3.3225700     1.1193260    -0.4456390
  C        4.0734334     0.0779022    -0.0276042
  H       -0.4460470    -1.9780880    -0.8418930
  H       -0.4465600     1.9841010     0.8290070
  H       -2.9173870    -1.9815130    -0.8295580
  H       -2.9177760     1.9946350     0.7979050
  H        1.3786050    -1.9834820     0.8303220
  H        1.3846280     1.9832890    -0.8299950
  H       -5.0126890     0.9989950    -0.1140710
  H       -5.0122110    -0.6453700    -0.7711930
  H       -4.9781370    -0.3905110     0.9770230
  H        3.8582660    -1.9961250     0.8126670
  H        3.8641780     1.9916920    -0.8044220
  H        5.1104020    -0.0032360     0.0061230
units angstrom
no_reorient  #important for SAPT in psi4, default
symmetry c1  #important for SAPT in psi4, default
}

set PROPERTIES_ORIGIN ["COM"]
properties('MP2/aug-cc-pvtz', properties = ['dipole'])
--------------------------------------------------------------------------

    Molecular point group: c1
  Charge       = 0
  Multiplicity = 1
  Basis Set: AUG-CC-PVTZ
    Blend: AUG-CC-PVTZ
  Basis Set: (AUG-CC-PVTZ AUX)
    Blend: AUG-CC-PVTZ-JKFIT

    Orbital Energies [Eh]
    ---------------------

    Doubly Occupied:

       1A    -11.246278     2A    -11.246210     3A    -11.242997
       4A    -11.241508     5A    -11.235781     6A    -11.235619
       7A    -11.235551     8A    -11.234339     9A    -11.234231
      10A    -11.232385    11A    -11.232274    12A    -11.231818
      13A    -11.225738    14A     -1.167163    15A     -1.139050
      16A     -1.065096    17A     -1.017421    18A     -1.010729
      19A     -0.999275    20A     -0.929837    21A     -0.841469
      22A     -0.834203    23A     -0.808851    24A     -0.780352
      25A     -0.711341    26A     -0.674454    27A     -0.645677
      28A     -0.641952    29A     -0.612849    30A     -0.612499
      31A     -0.587884    32A     -0.581889    33A     -0.576144
      34A     -0.570311    35A     -0.541401    36A     -0.521289
      37A     -0.506600    38A     -0.492124    39A     -0.483583
      40A     -0.480758    41A     -0.471691    42A     -0.360204
      43A     -0.337233    44A     -0.334903    45A     -0.294960

  @DF-RHF Final Energy:  -499.43843706305631

   => Energetics <=

    Nuclear Repulsion Energy =            686.3783665326525352
    One-Electron Energy =               -2036.2177669410348244
    Two-Electron Energy =                 850.4009633453259767
    Total Energy =                       -499.4384370630563126
  Basis Set: (AUG-CC-PVTZ AUX)
    Blend: AUG-CC-PVTZ-RI
    Molecular point group: c1

    Geometry (in Angstrom), charge = 0, multiplicity = 1:

       Center              X                  Y                   Z               Mass
    ------------   -----------------  -----------------  -----------------  -----------------
         C           -0.306191800486    -0.004978506413     0.001258105307    12.000000000000
         C            1.170827199514    -0.005766506413     0.002730105307    12.000000000000
         C           -3.140624800486    -0.000252506413    -0.011064894693    12.000000000000
         C           -1.025402800486    -1.119874506413    -0.456034894693    12.000000000000
         C           -1.025616800486     1.112971493587     0.450640105307    12.000000000000
         C           -2.419408800486    -1.115729506413    -0.456145894693    12.000000000000
         C           -2.419582800486     1.111448493587     0.443646105307    12.000000000000
         C            1.884446199514    -1.126820506413     0.455561105307    12.000000000000
         C            1.887733199514     1.114039493587    -0.447936894693    12.000000000000
         C           -4.646684800486    -0.013755506413     0.022475105307    12.000000000000
         C            3.279462199514    -1.128680506413     0.454932105307    12.000000000000
         C            3.282763199514     1.113448493587    -0.442984894693    12.000000000000
         C            4.033626599514     0.072024693587    -0.024950094693    12.000000000000
         H           -0.485853800486    -1.983965506413    -0.839238894693     1.007825032230
         H           -0.486366800486     1.978223493587     0.831661105307     1.007825032230
         H           -2.957193800486    -1.987390506413    -0.826903894693     1.007825032230
         H           -2.957582800486     1.988757493587     0.800559105307     1.007825032230
         H            1.338798199514    -1.989359506413     0.832976105307     1.007825032230
         H            1.344821199514     1.977411493587    -0.827340894693     1.007825032230
         H           -5.052495800486     0.993117493587    -0.111416894693     1.007825032230
         H           -5.052017800486    -0.651247506413    -0.768538894693     1.007825032230
         H           -5.017943800486    -0.396388506413     0.979677105307     1.007825032230
         H            3.818459199514    -2.002002506413     0.815321105307     1.007825032230
         H            3.824371199514     1.985814493587    -0.801767894693     1.007825032230
         H            5.070595199514    -0.009113506413     0.008777105307     1.007825032230

  Basis Set: AUG-CC-PVTZ
    Blend: AUG-CC-PVTZ
  Basis Set: (AUG-CC-PVTZ AUX)
    Blend: AUG-CC-PVTZ-JKFIT
	 Reference Energy          =    -499.4384370630563126 [Eh]
	 Singles Energy            =      -0.0000000000000000 [Eh]
	 Same-Spin Energy          =      -0.5651779341320171 [Eh]
	 Opposite-Spin Energy      =      -1.7803325406412633 [Eh]
	 Correlation Energy        =      -2.3455104747732802 [Eh]
	 Total Energy              =    -501.7839475378295901 [Eh]

	 ================> DF-SCS-MP2 Energies <==================
	-----------------------------------------------------------
	 SCS Same-Spin Scale       =       0.3333333333333333 [-]
	 SCS Opposite-Spin Scale   =       1.2000000000000000 [-]
	 SCS Same-Spin Energy      =      -0.1883926447106724 [Eh]
	 SCS Opposite-Spin Energy  =      -2.1363990487695159 [Eh]
	 SCS Correlation Energy    =      -2.3247916934801882 [Eh]
	 SCS Total Energy          =    -501.7632287565364777 [Eh]
	-----------------------------------------------------------

  Dipole Moment: [D]
     X:    -0.4930      Y:    -0.0290      Z:     0.0415     Total:     0.4956

*** Psi4 exiting successfully. Buy a developer a beer!
