                               Psi4 1.4a3.dev225

  ==> Input File <==

--------------------------------------------------------------------------
#psi4
#
memory 32 gb

molecule  {
0 1
  C       -0.2663850     0.0008990    -0.0013960
  C        1.2106340     0.0001110     0.0000760
  C       -3.1008180     0.0056250    -0.0137190
  C       -0.9855960    -1.1139970    -0.4586890
  C       -0.9858100     1.1188490     0.4479860
  C       -2.3796020    -1.1098520    -0.4588000
  C       -2.3797760     1.1173260     0.4409920
  C        1.9242530    -1.1209430     0.4529070
  C        1.9275400     1.1199170    -0.4505910
  C       -4.6268722    -0.0080573     0.0202663
  C        3.3192690    -1.1228030     0.4522780
  C        3.3225700     1.1193260    -0.4456390
  C        4.0230520    -0.0023100     0.0044540
  H       -0.4460470    -1.9780880    -0.8418930
  H       -0.4465600     1.9841010     0.8290070
  H       -2.9173870    -1.9815130    -0.8295580
  H       -2.9177760     1.9946350     0.7979050
  H        1.3786050    -1.9834820     0.8303220
  H        1.3846280     1.9832890    -0.8299950
  H       -5.0126890     0.9989950    -0.1140710
  H       -5.0122110    -0.6453700    -0.7711930
  H       -4.9781370    -0.3905110     0.9770230
  H        3.8582660    -1.9961250     0.8126670
  H        3.8641780     1.9916920    -0.8044220
  H        5.1104020    -0.0032360     0.0061230
units angstrom
no_reorient  #important for SAPT in psi4, default
symmetry c1  #important for SAPT in psi4, default
}

set PROPERTIES_ORIGIN ["COM"]
properties('MP2/aug-cc-pvtz', properties = ['dipole'])
--------------------------------------------------------------------------

    Molecular point group: c1
  Charge       = 0
  Multiplicity = 1
  Basis Set: AUG-CC-PVTZ
    Blend: AUG-CC-PVTZ
  Basis Set: (AUG-CC-PVTZ AUX)
    Blend: AUG-CC-PVTZ-JKFIT

    Orbital Energies [Eh]
    ---------------------

    Doubly Occupied:

       1A    -11.244895     2A    -11.243435     3A    -11.241123
       4A    -11.237120     5A    -11.236873     6A    -11.235244
       7A    -11.235112     8A    -11.234472     9A    -11.234290
      10A    -11.234070    11A    -11.232052    12A    -11.231981
      13A    -11.224932    14A     -1.167773    15A     -1.140823
      16A     -1.063929    17A     -1.016748    18A     -1.008600
      19A     -1.003271    20A     -0.929551    21A     -0.840564
      22A     -0.833187    23A     -0.811281    24A     -0.779432
      25A     -0.711764    26A     -0.665756    27A     -0.645642
      28A     -0.640676    29A     -0.613694    30A     -0.613404
      31A     -0.587675    32A     -0.580335    33A     -0.578130
      34A     -0.569492    35A     -0.544848    36A     -0.510177
      37A     -0.508921    38A     -0.498264    39A     -0.482414
      40A     -0.479467    41A     -0.479201    42A     -0.359289
      43A     -0.337427    44A     -0.335721    45A     -0.296264

  @DF-RHF Final Energy:  -499.44994570298343

   => Energetics <=

    Nuclear Repulsion Energy =            686.9868574886760371
    One-Electron Energy =               -2037.4749708358285716
    Two-Electron Energy =                 851.0381676441692207
    Total Energy =                       -499.4499457029834275
  Basis Set: (AUG-CC-PVTZ AUX)
    Blend: AUG-CC-PVTZ-RI
    Molecular point group: c1

    Geometry (in Angstrom), charge = 0, multiplicity = 1:

       Center              X                  Y                   Z               Mass
    ------------   -----------------  -----------------  -----------------  -----------------
         C           -0.301167779995     0.000760535859    -0.001062276331    12.000000000000
         C            1.175851220005    -0.000027464141     0.000409723669    12.000000000000
         C           -3.135600779995     0.005486535859    -0.013385276331    12.000000000000
         C           -1.020378779995    -1.114135464141    -0.458355276331    12.000000000000
         C           -1.020592779995     1.118710535859     0.448319723669    12.000000000000
         C           -2.414384779995    -1.109990464141    -0.458466276331    12.000000000000
         C           -2.414558779995     1.117187535859     0.441325723669    12.000000000000
         C            1.889470220005    -1.121081464141     0.453240723669    12.000000000000
         C            1.892757220005     1.119778535859    -0.450257276331    12.000000000000
         C           -4.661654979995    -0.008195764141     0.020600023669    12.000000000000
         C            3.284486220005    -1.122941464141     0.452611723669    12.000000000000
         C            3.287787220005     1.119187535859    -0.445305276331    12.000000000000
         C            3.988269220005    -0.002448464141     0.004787723669    12.000000000000
         H           -0.480829779995    -1.978226464141    -0.841559276331     1.007825032230
         H           -0.481342779995     1.983962535859     0.829340723669     1.007825032230
         H           -2.952169779995    -1.981651464141    -0.829224276331     1.007825032230
         H           -2.952558779995     1.994496535859     0.798238723669     1.007825032230
         H            1.343822220005    -1.983620464141     0.830655723669     1.007825032230
         H            1.349845220005     1.983150535859    -0.829661276331     1.007825032230
         H           -5.047471779995     0.998856535859    -0.113737276331     1.007825032230
         H           -5.046993779995    -0.645508464141    -0.770859276331     1.007825032230
         H           -5.012919779995    -0.390649464141     0.977356723669     1.007825032230
         H            3.823483220005    -1.996263464141     0.813000723669     1.007825032230
         H            3.829395220005     1.991553535859    -0.804088276331     1.007825032230
         H            5.075619220005    -0.003374464141     0.006456723669     1.007825032230

  Basis Set: AUG-CC-PVTZ
    Blend: AUG-CC-PVTZ
  Basis Set: (AUG-CC-PVTZ AUX)
    Blend: AUG-CC-PVTZ-JKFIT
	 Reference Energy          =    -499.4499457029834275 [Eh]
	 Singles Energy            =      -0.0000000000000000 [Eh]
	 Same-Spin Energy          =      -0.5652254528138365 [Eh]
	 Opposite-Spin Energy      =      -1.7794890646210764 [Eh]
	 Correlation Energy        =      -2.3447145174349129 [Eh]
	 Total Energy              =    -501.7946602204183364 [Eh]

	 ================> DF-SCS-MP2 Energies <==================
	-----------------------------------------------------------
	 SCS Same-Spin Scale       =       0.3333333333333333 [-]
	 SCS Opposite-Spin Scale   =       1.2000000000000000 [-]
	 SCS Same-Spin Energy      =      -0.1884084842712788 [Eh]
	 SCS Opposite-Spin Energy  =      -2.1353868775452916 [Eh]
	 SCS Correlation Energy    =      -2.3237953618165705 [Eh]
	 SCS Total Energy          =    -501.7737410647999923 [Eh]
	-----------------------------------------------------------

  Dipole Moment: [D]
     X:    -0.4830      Y:    -0.0136      Z:     0.0362     Total:     0.4846

*** Psi4 exiting successfully. Buy a developer a beer!
