                               Psi4 1.4a3.dev225

  ==> Input File <==

--------------------------------------------------------------------------
#psi4
#
memory 32 gb

molecule  {
0 1
  C       -0.2663850     0.0008990    -0.0013960
  C        1.2106340     0.0001110     0.0000760
  C       -3.1008180     0.0056250    -0.0137190
  C       -0.9855960    -1.1139970    -0.4586890
  C       -0.9858100     1.1188490     0.4479860
  C       -2.3796020    -1.1098520    -0.4588000
  C       -2.3797760     1.1173260     0.4409920
  C        1.9242530    -1.1209430     0.4529070
  C        1.9275400     1.1199170    -0.4505910
  C       -4.6068780    -0.0078780     0.0198210
  C        3.3192690    -1.1228030     0.4522780
  C        3.1225713     1.1194107    -0.4463489
  C        4.0230520    -0.0023100     0.0044540
  H       -0.4460470    -1.9780880    -0.8418930
  H       -0.4465600     1.9841010     0.8290070
  H       -2.9173870    -1.9815130    -0.8295580
  H       -2.9177760     1.9946350     0.7979050
  H        1.3786050    -1.9834820     0.8303220
  H        1.3846280     1.9832890    -0.8299950
  H       -5.0126890     0.9989950    -0.1140710
  H       -5.0122110    -0.6453700    -0.7711930
  H       -4.9781370    -0.3905110     0.9770230
  H        3.8582660    -1.9961250     0.8126670
  H        3.8641780     1.9916920    -0.8044220
  H        5.1104020    -0.0032360     0.0061230
units angstrom
no_reorient  #important for SAPT in psi4, default
symmetry c1  #important for SAPT in psi4, default
}

set PROPERTIES_ORIGIN ["COM"]
properties('MP2/aug-cc-pvtz', properties = ['dipole'])
--------------------------------------------------------------------------

    Molecular point group: c1
  Charge       = 0
  Multiplicity = 1
  Basis Set: AUG-CC-PVTZ
    Blend: AUG-CC-PVTZ
  Basis Set: (AUG-CC-PVTZ AUX)
    Blend: AUG-CC-PVTZ-JKFIT

    Orbital Energies [Eh]
    ---------------------

    Doubly Occupied:

       1A    -11.246303     2A    -11.243046     3A    -11.242743
       4A    -11.241510     5A    -11.236051     6A    -11.235832
       7A    -11.235433     8A    -11.232645     9A    -11.232259
      10A    -11.231966    11A    -11.230599    12A    -11.225813
      13A    -11.207773    14A     -1.177655    15A     -1.148641
      16A     -1.063052    17A     -1.042818    18A     -1.012323
      19A     -0.994501    20A     -0.927853    21A     -0.844457
      22A     -0.834201    23A     -0.797392    24A     -0.782522
      25A     -0.712731    26A     -0.667442    27A     -0.650426
      28A     -0.638328    29A     -0.622498    30A     -0.604801
      31A     -0.592019    32A     -0.581832    33A     -0.576500
      34A     -0.561989    35A     -0.541992    36A     -0.524396
      37A     -0.517468    38A     -0.488500    39A     -0.485386
      40A     -0.484811    41A     -0.445387    42A     -0.367412
      43A     -0.352085    44A     -0.337006    45A     -0.288807

  @DF-RHF Final Energy:  -499.38731361925136

   => Energetics <=

    Nuclear Repulsion Energy =            690.2818205434228958
    One-Electron Energy =               -2043.9198613277751519
    Two-Electron Energy =                 854.2507271651007841
    Total Energy =                       -499.3873136192513584
  Basis Set: (AUG-CC-PVTZ AUX)
    Blend: AUG-CC-PVTZ-RI
    Molecular point group: c1

    Geometry (in Angstrom), charge = 0, multiplicity = 1:

       Center              X                  Y                   Z               Mass
    ------------   -----------------  -----------------  -----------------  -----------------
         C           -0.288317498129     0.000741689251    -0.000979808140    12.000000000000
         C            1.188701501871    -0.000046310749     0.000492191860    12.000000000000
         C           -3.122750498129     0.005467689251    -0.013302808140    12.000000000000
         C           -1.007528498129    -1.114154310749    -0.458272808140    12.000000000000
         C           -1.007742498129     1.118691689251     0.448402191860    12.000000000000
         C           -2.401534498129    -1.110009310749    -0.458383808140    12.000000000000
         C           -2.401708498129     1.117168689251     0.441408191860    12.000000000000
         C            1.902320501871    -1.121100310749     0.453323191860    12.000000000000
         C            1.905607501871     1.119759689251    -0.450174808140    12.000000000000
         C           -4.628810498129    -0.008035310749     0.020237191860    12.000000000000
         C            3.297336501871    -1.122960310749     0.452694191860    12.000000000000
         C            3.100638801871     1.119253389251    -0.445932708140    12.000000000000
         C            4.001119501871    -0.002467310749     0.004870191860    12.000000000000
         H           -0.467979498129    -1.978245310749    -0.841476808140     1.007825032230
         H           -0.468492498129     1.983943689251     0.829423191860     1.007825032230
         H           -2.939319498129    -1.981670310749    -0.829141808140     1.007825032230
         H           -2.939708498129     1.994477689251     0.798321191860     1.007825032230
         H            1.356672501871    -1.983639310749     0.830738191860     1.007825032230
         H            1.362695501871     1.983131689251    -0.829578808140     1.007825032230
         H           -5.034621498129     0.998837689251    -0.113654808140     1.007825032230
         H           -5.034143498129    -0.645527310749    -0.770776808140     1.007825032230
         H           -5.000069498129    -0.390668310749     0.977439191860     1.007825032230
         H            3.836333501871    -1.996282310749     0.813083191860     1.007825032230
         H            3.842245501871     1.991534689251    -0.804005808140     1.007825032230
         H            5.088469501871    -0.003393310749     0.006539191860     1.007825032230

  Basis Set: AUG-CC-PVTZ
    Blend: AUG-CC-PVTZ
  Basis Set: (AUG-CC-PVTZ AUX)
    Blend: AUG-CC-PVTZ-JKFIT
	 Reference Energy          =    -499.3873136192513584 [Eh]
	 Singles Energy            =      -0.0000000000000000 [Eh]
	 Same-Spin Energy          =      -0.5650162007191819 [Eh]
	 Opposite-Spin Energy      =      -1.7811879896200893 [Eh]
	 Correlation Energy        =      -2.3462041903392712 [Eh]
	 Total Energy              =    -501.7335178095906372 [Eh]

	 ================> DF-SCS-MP2 Energies <==================
	-----------------------------------------------------------
	 SCS Same-Spin Scale       =       0.3333333333333333 [-]
	 SCS Opposite-Spin Scale   =       1.2000000000000000 [-]
	 SCS Same-Spin Energy      =      -0.1883387335730606 [Eh]
	 SCS Opposite-Spin Energy  =      -2.1374255875441071 [Eh]
	 SCS Correlation Energy    =      -2.3257643211171675 [Eh]
	 SCS Total Energy          =    -501.7130779403685210 [Eh]
	-----------------------------------------------------------

  Dipole Moment: [D]
     X:    -0.5025      Y:    -0.0977      Z:     0.0747     Total:     0.5174

*** Psi4 exiting successfully. Buy a developer a beer!
