                               Psi4 1.4a3.dev225

  ==> Input File <==

--------------------------------------------------------------------------
#psi4
#
memory 32 gb

molecule  {
0 1
  C       -0.2663850     0.0008990    -0.0013960
  C        1.2106340     0.0001110     0.0000760
  C       -3.1008180     0.0056250    -0.0137190
  C       -0.9855960    -1.1139970    -0.4586890
  C       -0.9858100     1.1188490     0.4479860
  C       -2.3796020    -1.1098520    -0.4588000
  C       -2.3797760     1.1173260     0.4409920
  C        1.9242530    -1.1209430     0.4529070
  C        1.9275400     1.1199170    -0.4505910
  C       -4.6068780    -0.0078780     0.0198210
  C        3.3192690    -1.1228030     0.4522780
  C        3.3225700     1.1193260    -0.4456390
  C        4.0230520    -0.0023100     0.0044540
  H       -0.3469015    -2.1368701    -0.9123091
  H       -0.4465600     1.9841010     0.8290070
  H       -2.9173870    -1.9815130    -0.8295580
  H       -2.9177760     1.9946350     0.7979050
  H        1.3786050    -1.9834820     0.8303220
  H        1.3846280     1.9832890    -0.8299950
  H       -5.0126890     0.9989950    -0.1140710
  H       -5.0122110    -0.6453700    -0.7711930
  H       -4.9781370    -0.3905110     0.9770230
  H        3.8582660    -1.9961250     0.8126670
  H        3.8641780     1.9916920    -0.8044220
  H        5.1104020    -0.0032360     0.0061230
units angstrom
no_reorient  #important for SAPT in psi4, default
symmetry c1  #important for SAPT in psi4, default
}

set PROPERTIES_ORIGIN ["COM"]
properties('MP2/aug-cc-pvtz', properties = ['dipole'])
--------------------------------------------------------------------------

    Molecular point group: c1
  Charge       = 0
  Multiplicity = 1
  Basis Set: AUG-CC-PVTZ
    Blend: AUG-CC-PVTZ
  Basis Set: (AUG-CC-PVTZ AUX)
    Blend: AUG-CC-PVTZ-JKFIT

    Orbital Energies [Eh]
    ---------------------

    Doubly Occupied:

       1A    -11.256590     2A    -11.244969     3A    -11.244234
       4A    -11.243558     5A    -11.237014     6A    -11.236841
       7A    -11.236544     8A    -11.234387     9A    -11.234377
      10A    -11.234109    11A    -11.233783    12A    -11.233174
      13A    -11.226510    14A     -1.168233    15A     -1.141712
      16A     -1.065644    17A     -1.015539    18A     -1.007488
      19A     -1.003694    20A     -0.929726    21A     -0.838869
      22A     -0.831149    23A     -0.808356    24A     -0.776639
      25A     -0.710578    26A     -0.665199    27A     -0.646975
      28A     -0.632880    29A     -0.613913    30A     -0.608822
      31A     -0.585575    32A     -0.577592    33A     -0.572242
      34A     -0.566706    35A     -0.541525    36A     -0.511721
      37A     -0.508283    38A     -0.495575    39A     -0.482717
      40A     -0.481347    41A     -0.470009    42A     -0.359559
      43A     -0.338367    44A     -0.335933    45A     -0.296876

  @DF-RHF Final Energy:  -499.42759248854964

   => Energetics <=

    Nuclear Repulsion Energy =            686.4325188958970330
    One-Electron Energy =               -2036.3491569029972652
    Two-Electron Energy =                 850.4890455185504834
    Total Energy =                       -499.4275924885496352
  Basis Set: (AUG-CC-PVTZ AUX)
    Blend: AUG-CC-PVTZ-RI
    Molecular point group: c1

    Geometry (in Angstrom), charge = 0, multiplicity = 1:

       Center              X                  Y                   Z               Mass
    ------------   -----------------  -----------------  -----------------  -----------------
         C           -0.303189576836     0.001699731004    -0.000608299667    12.000000000000
         C            1.173829423164     0.000911731004     0.000863700333    12.000000000000
         C           -3.137622576836     0.006425731004    -0.012931299667    12.000000000000
         C           -1.022400576836    -1.113196268996    -0.457901299667    12.000000000000
         C           -1.022614576836     1.119649731004     0.448773700333    12.000000000000
         C           -2.416406576836    -1.109051268996    -0.458012299667    12.000000000000
         C           -2.416580576836     1.118126731004     0.441779700333    12.000000000000
         C            1.887448423164    -1.120142268996     0.453694700333    12.000000000000
         C            1.890735423164     1.120717731004    -0.449803299667    12.000000000000
         C           -4.643682576836    -0.007077268996     0.020608700333    12.000000000000
         C            3.282464423164    -1.122002268996     0.453065700333    12.000000000000
         C            3.285765423164     1.120126731004    -0.444851299667    12.000000000000
         C            3.986247423164    -0.001509268996     0.005241700333    12.000000000000
         H           -0.383706076836    -2.136069368996    -0.911521399667     1.007825032230
         H           -0.483364576836     1.984901731004     0.829794700333     1.007825032230
         H           -2.954191576836    -1.980712268996    -0.828770299667     1.007825032230
         H           -2.954580576836     1.995435731004     0.798692700333     1.007825032230
         H            1.341800423164    -1.982681268996     0.831109700333     1.007825032230
         H            1.347823423164     1.984089731004    -0.829207299667     1.007825032230
         H           -5.049493576836     0.999795731004    -0.113283299667     1.007825032230
         H           -5.049015576836    -0.644569268996    -0.770405299667     1.007825032230
         H           -5.014941576836    -0.389710268996     0.977810700333     1.007825032230
         H            3.821461423164    -1.995324268996     0.813454700333     1.007825032230
         H            3.827373423164     1.992492731004    -0.803634299667     1.007825032230
         H            5.073597423164    -0.002435268996     0.006910700333     1.007825032230

  Basis Set: AUG-CC-PVTZ
    Blend: AUG-CC-PVTZ
  Basis Set: (AUG-CC-PVTZ AUX)
    Blend: AUG-CC-PVTZ-JKFIT
	 Reference Energy          =    -499.4275924885496352 [Eh]
	 Singles Energy            =      -0.0000000000000000 [Eh]
	 Same-Spin Energy          =      -0.5660786568179532 [Eh]
	 Opposite-Spin Energy      =      -1.7820999913773707 [Eh]
	 Correlation Energy        =      -2.3481786481953240 [Eh]
	 Total Energy              =    -501.7757711367449360 [Eh]

	 ================> DF-SCS-MP2 Energies <==================
	-----------------------------------------------------------
	 SCS Same-Spin Scale       =       0.3333333333333333 [-]
	 SCS Opposite-Spin Scale   =       1.2000000000000000 [-]
	 SCS Same-Spin Energy      =      -0.1886928856059844 [Eh]
	 SCS Opposite-Spin Energy  =      -2.1385199896528446 [Eh]
	 SCS Correlation Energy    =      -2.3272128752588288 [Eh]
	 SCS Total Energy          =    -501.7548053638084866 [Eh]
	-----------------------------------------------------------

  Dipole Moment: [D]
     X:    -0.5484      Y:     0.0549      Z:     0.0698     Total:     0.5555

*** Psi4 exiting successfully. Buy a developer a beer!
