                               Psi4 1.4a3.dev225

  ==> Input File <==

--------------------------------------------------------------------------
#psi4
#
memory 32 gb

molecule  {
0 1
  C       -0.3962853     0.0644238     0.0244381
  C        1.2106340     0.0001110     0.0000760
  C       -3.1008180     0.0056250    -0.0137190
  C       -0.9855960    -1.1139970    -0.4586890
  C       -0.9858100     1.1188490     0.4479860
  C       -2.3796020    -1.1098520    -0.4588000
  C       -2.3797760     1.1173260     0.4409920
  C        1.9242530    -1.1209430     0.4529070
  C        1.9275400     1.1199170    -0.4505910
  C       -4.6068780    -0.0078780     0.0198210
  C        3.3192690    -1.1228030     0.4522780
  C        3.3225700     1.1193260    -0.4456390
  C        4.0230520    -0.0023100     0.0044540
  H       -0.4460470    -1.9780880    -0.8418930
  H       -0.4465600     1.9841010     0.8290070
  H       -2.9173870    -1.9815130    -0.8295580
  H       -2.9177760     1.9946350     0.7979050
  H        1.3786050    -1.9834820     0.8303220
  H        1.3846280     1.9832890    -0.8299950
  H       -5.0126890     0.9989950    -0.1140710
  H       -5.0122110    -0.6453700    -0.7711930
  H       -4.9781370    -0.3905110     0.9770230
  H        3.8582660    -1.9961250     0.8126670
  H        3.8641780     1.9916920    -0.8044220
  H        5.1104020    -0.0032360     0.0061230
units angstrom
no_reorient  #important for SAPT in psi4, default
symmetry c1  #important for SAPT in psi4, default
}

set PROPERTIES_ORIGIN ["COM"]
properties('MP2/aug-cc-pvtz', properties = ['dipole'])
--------------------------------------------------------------------------

    Molecular point group: c1
  Charge       = 0
  Multiplicity = 1
  Basis Set: AUG-CC-PVTZ
    Blend: AUG-CC-PVTZ
  Basis Set: (AUG-CC-PVTZ AUX)
    Blend: AUG-CC-PVTZ-JKFIT

    Orbital Energies [Eh]
    ---------------------

    Doubly Occupied:

       1A    -11.247876     2A    -11.241116     3A    -11.236929
       4A    -11.235756     5A    -11.235635     6A    -11.234880
       7A    -11.233462     8A    -11.232854     9A    -11.232848
      10A    -11.232028    11A    -11.231172    12A    -11.225324
      13A    -11.220425    14A     -1.174295    15A     -1.142617
      16A     -1.063052    17A     -1.021833    18A     -1.009596
      19A     -1.001944    20A     -0.928403    21A     -0.843650
      22A     -0.821380    23A     -0.814004    24A     -0.781938
      25A     -0.708607    26A     -0.665449    27A     -0.648376
      28A     -0.638252    29A     -0.615237    30A     -0.612498
      31A     -0.596763    32A     -0.581883    33A     -0.576505
      34A     -0.558732    35A     -0.541975    36A     -0.512710
      37A     -0.511033    38A     -0.499425    39A     -0.490704
      40A     -0.485981    41A     -0.450286    42A     -0.356541
      43A     -0.338906    44A     -0.334517    45A     -0.305538

  @DF-RHF Final Energy:  -499.42573958309856

   => Energetics <=

    Nuclear Repulsion Energy =            687.6866110031411381
    One-Electron Energy =               -2038.8788285461214400
    Two-Electron Energy =                 851.7664779598818541
    Total Energy =                       -499.4257395830985615
  Basis Set: (AUG-CC-PVTZ AUX)
    Blend: AUG-CC-PVTZ-RI
    Molecular point group: c1

    Geometry (in Angstrom), charge = 0, multiplicity = 1:

       Center              X                  Y                   Z               Mass
    ------------   -----------------  -----------------  -----------------  -----------------
         C           -0.423222029681     0.059737584881     0.022959351001    12.000000000000
         C            1.183697270319    -0.004575215119    -0.001402748999    12.000000000000
         C           -3.127754729681     0.000938784881    -0.015197748999    12.000000000000
         C           -1.012532729681    -1.118683215119    -0.460167748999    12.000000000000
         C           -1.012746729681     1.114162784881     0.446507251001    12.000000000000
         C           -2.406538729681    -1.114538215119    -0.460278748999    12.000000000000
         C           -2.406712729681     1.112639784881     0.439513251001    12.000000000000
         C            1.897316270319    -1.125629215119     0.451428251001    12.000000000000
         C            1.900603270319     1.115230784881    -0.452069748999    12.000000000000
         C           -4.633814729681    -0.012564215119     0.018342251001    12.000000000000
         C            3.292332270319    -1.127489215119     0.450799251001    12.000000000000
         C            3.295633270319     1.114639784881    -0.447117748999    12.000000000000
         C            3.996115270319    -0.006996215119     0.002975251001    12.000000000000
         H           -0.472983729681    -1.982774215119    -0.843371748999     1.007825032230
         H           -0.473496729681     1.979414784881     0.827528251001     1.007825032230
         H           -2.944323729681    -1.986199215119    -0.831036748999     1.007825032230
         H           -2.944712729681     1.989948784881     0.796426251001     1.007825032230
         H            1.351668270319    -1.988168215119     0.828843251001     1.007825032230
         H            1.357691270319     1.978602784881    -0.831473748999     1.007825032230
         H           -5.039625729681     0.994308784881    -0.115549748999     1.007825032230
         H           -5.039147729681    -0.650056215119    -0.772671748999     1.007825032230
         H           -5.005073729681    -0.395197215119     0.975544251001     1.007825032230
         H            3.831329270319    -2.000811215119     0.811188251001     1.007825032230
         H            3.837241270319     1.987005784881    -0.805900748999     1.007825032230
         H            5.083465270319    -0.007922215119     0.004644251001     1.007825032230

  Basis Set: AUG-CC-PVTZ
    Blend: AUG-CC-PVTZ
  Basis Set: (AUG-CC-PVTZ AUX)
    Blend: AUG-CC-PVTZ-JKFIT
	 Reference Energy          =    -499.4257395830985615 [Eh]
	 Singles Energy            =      -0.0000000000000000 [Eh]
	 Same-Spin Energy          =      -0.5645118538848747 [Eh]
	 Opposite-Spin Energy      =      -1.7788431427865652 [Eh]
	 Correlation Energy        =      -2.3433549966714398 [Eh]
	 Total Energy              =    -501.7690945797700124 [Eh]

	 ================> DF-SCS-MP2 Energies <==================
	-----------------------------------------------------------
	 SCS Same-Spin Scale       =       0.3333333333333333 [-]
	 SCS Opposite-Spin Scale   =       1.2000000000000000 [-]
	 SCS Same-Spin Energy      =      -0.1881706179616249 [Eh]
	 SCS Opposite-Spin Energy  =      -2.1346117713438781 [Eh]
	 SCS Correlation Energy    =      -2.3227823893055031 [Eh]
	 SCS Total Energy          =    -501.7485219724040917 [Eh]
	-----------------------------------------------------------

  Dipole Moment: [D]
     X:    -0.6667      Y:    -0.0235      Z:     0.0402     Total:     0.6684

*** Psi4 exiting successfully. Buy a developer a beer!
