                               Psi4 1.4a3.dev225

  ==> Input File <==

--------------------------------------------------------------------------
#psi4
#
memory 32 gb

molecule  {
0 1
  C       -0.2663850     0.0008990    -0.0013960
  C        1.2106340     0.0001110     0.0000760
  C       -3.1008180     0.0056250    -0.0137190
  C       -0.9855960    -1.1139970    -0.4586890
  C       -0.9858100     1.1188490     0.4479860
  C       -2.3796020    -1.1098520    -0.4588000
  C       -2.3797760     1.1173260     0.4409920
  C        1.9242530    -1.1209430     0.4529070
  C        1.9275400     1.1199170    -0.4505910
  C       -4.6068780    -0.0078780     0.0198210
  C        3.3192690    -1.1228030     0.4522780
  C        3.3225700     1.1193260    -0.4456390
  C        4.0230520    -0.0023100     0.0044540
  H       -0.4460470    -1.9780880    -0.8418930
  H       -0.4366510     2.0000004     0.8360084
  H       -2.9173870    -1.9815130    -0.8295580
  H       -2.9177760     1.9946350     0.7979050
  H        1.3786050    -1.9834820     0.8303220
  H        1.3846280     1.9832890    -0.8299950
  H       -5.0126890     0.9989950    -0.1140710
  H       -5.0122110    -0.6453700    -0.7711930
  H       -4.9781370    -0.3905110     0.9770230
  H        3.8582660    -1.9961250     0.8126670
  H        3.8641780     1.9916920    -0.8044220
  H        5.1104020    -0.0032360     0.0061230
units angstrom
no_reorient  #important for SAPT in psi4, default
symmetry c1  #important for SAPT in psi4, default
}

set PROPERTIES_ORIGIN ["COM"]
properties('MP2/aug-cc-pvtz', properties = ['dipole'])
--------------------------------------------------------------------------

    Molecular point group: c1
  Charge       = 0
  Multiplicity = 1
  Basis Set: AUG-CC-PVTZ
    Blend: AUG-CC-PVTZ
  Basis Set: (AUG-CC-PVTZ AUX)
    Blend: AUG-CC-PVTZ-JKFIT

    Orbital Energies [Eh]
    ---------------------

    Doubly Occupied:

       1A    -11.244932     2A    -11.242725     3A    -11.241432
       4A    -11.237479     5A    -11.237125     6A    -11.236876
       7A    -11.235378     8A    -11.234489     9A    -11.234305
      10A    -11.234084    11A    -11.232301    12A    -11.232105
      13A    -11.225582    14A     -1.168003    15A     -1.141326
      16A     -1.065257    17A     -1.016599    18A     -1.008455
      19A     -1.004124    20A     -0.928920    21A     -0.840367
      22A     -0.832669    23A     -0.811041    24A     -0.779151
      25A     -0.711657    26A     -0.665912    27A     -0.646024
      28A     -0.640640    29A     -0.613493    30A     -0.613155
      31A     -0.587368    32A     -0.579411    33A     -0.576280
      34A     -0.570975    35A     -0.541360    36A     -0.512526
      37A     -0.508653    38A     -0.497714    39A     -0.481888
      40A     -0.480782    41A     -0.478715    42A     -0.359102
      43A     -0.337525    44A     -0.335826    45A     -0.296157

  @DF-RHF Final Energy:  -499.44935490925729

   => Energetics <=

    Nuclear Repulsion Energy =            687.2367253970613774
    One-Electron Energy =               -2037.9723981963627466
    Two-Electron Energy =                 851.2863178900441881
    Total Energy =                       -499.4493549092572948
  Basis Set: (AUG-CC-PVTZ AUX)
    Blend: AUG-CC-PVTZ-RI
    Molecular point group: c1

    Geometry (in Angstrom), charge = 0, multiplicity = 1:

       Center              X                  Y                   Z               Mass
    ------------   -----------------  -----------------  -----------------  -----------------
         C           -0.302654549816     0.000652409311    -0.001072464602    12.000000000000
         C            1.174364450184    -0.000135590689     0.000399535398    12.000000000000
         C           -3.137087549816     0.005378409311    -0.013395464602    12.000000000000
         C           -1.021865549816    -1.114243590689    -0.458365464602    12.000000000000
         C           -1.022079549816     1.118602409311     0.448309535398    12.000000000000
         C           -2.415871549816    -1.110098590689    -0.458476464602    12.000000000000
         C           -2.416045549816     1.117079409311     0.441315535398    12.000000000000
         C            1.887983450184    -1.121189590689     0.453230535398    12.000000000000
         C            1.891270450184     1.119670409311    -0.450267464602    12.000000000000
         C           -4.643147549816    -0.008124590689     0.020144535398    12.000000000000
         C            3.282999450184    -1.123049590689     0.452601535398    12.000000000000
         C            3.286300450184     1.119079409311    -0.445315464602    12.000000000000
         C            3.986782450184    -0.002556590689     0.004777535398    12.000000000000
         H           -0.482316549816    -1.978334590689    -0.841569464602     1.007825032230
         H           -0.472920549816     1.999753809311     0.836331935398     1.007825032230
         H           -2.953656549816    -1.981759590689    -0.829234464602     1.007825032230
         H           -2.954045549816     1.994388409311     0.798228535398     1.007825032230
         H            1.342335450184    -1.983728590689     0.830645535398     1.007825032230
         H            1.348358450184     1.983042409311    -0.829671464602     1.007825032230
         H           -5.048958549816     0.998748409311    -0.113747464602     1.007825032230
         H           -5.048480549816    -0.645616590689    -0.770869464602     1.007825032230
         H           -5.014406549816    -0.390757590689     0.977346535398     1.007825032230
         H            3.821996450184    -1.996371590689     0.812990535398     1.007825032230
         H            3.827908450184     1.991445409311    -0.804098464602     1.007825032230
         H            5.074132450184    -0.003482590689     0.006446535398     1.007825032230

  Basis Set: AUG-CC-PVTZ
    Blend: AUG-CC-PVTZ
  Basis Set: (AUG-CC-PVTZ AUX)
    Blend: AUG-CC-PVTZ-JKFIT
	 Reference Energy          =    -499.4493549092572948 [Eh]
	 Singles Energy            =      -0.0000000000000000 [Eh]
	 Same-Spin Energy          =      -0.5654366046835907 [Eh]
	 Opposite-Spin Energy      =      -1.7797925678343600 [Eh]
	 Correlation Energy        =      -2.3452291725179508 [Eh]
	 Total Energy              =    -501.7945840817752696 [Eh]

	 ================> DF-SCS-MP2 Energies <==================
	-----------------------------------------------------------
	 SCS Same-Spin Scale       =       0.3333333333333333 [-]
	 SCS Opposite-Spin Scale   =       1.2000000000000000 [-]
	 SCS Same-Spin Energy      =      -0.1884788682278636 [Eh]
	 SCS Opposite-Spin Energy  =      -2.1357510814012319 [Eh]
	 SCS Correlation Energy    =      -2.3242299496290957 [Eh]
	 SCS Total Energy          =    -501.7735848588864087 [Eh]
	-----------------------------------------------------------

  Dipole Moment: [D]
     X:    -0.4897      Y:    -0.0186      Z:     0.0344     Total:     0.4913

*** Psi4 exiting successfully. Buy a developer a beer!
