                               Psi4 1.4a3.dev225

  ==> Input File <==

--------------------------------------------------------------------------
#psi4
#
memory 32 gb

molecule  {
0 1
  C       -0.2663850     0.0008990    -0.0013960
  C        1.2106340     0.0001110     0.0000760
  C       -3.1008180     0.0056250    -0.0137190
  C       -0.9855960    -1.1139970    -0.4586890
  C       -0.9858100     1.1188490     0.4479860
  C       -2.3796020    -1.1098520    -0.4588000
  C       -2.1797786     1.1175445     0.4419955
  C        1.9242530    -1.1209430     0.4529070
  C        1.9275400     1.1199170    -0.4505910
  C       -4.6068780    -0.0078780     0.0198210
  C        3.3192690    -1.1228030     0.4522780
  C        3.3225700     1.1193260    -0.4456390
  C        4.0230520    -0.0023100     0.0044540
  H       -0.4460470    -1.9780880    -0.8418930
  H       -0.4465600     1.9841010     0.8290070
  H       -2.9173870    -1.9815130    -0.8295580
  H       -2.9177760     1.9946350     0.7979050
  H        1.3786050    -1.9834820     0.8303220
  H        1.3846280     1.9832890    -0.8299950
  H       -5.0126890     0.9989950    -0.1140710
  H       -5.0122110    -0.6453700    -0.7711930
  H       -4.9781370    -0.3905110     0.9770230
  H        3.8582660    -1.9961250     0.8126670
  H        3.8641780     1.9916920    -0.8044220
  H        5.1104020    -0.0032360     0.0061230
units angstrom
no_reorient  #important for SAPT in psi4, default
symmetry c1  #important for SAPT in psi4, default
}

set PROPERTIES_ORIGIN ["COM"]
properties('MP2/aug-cc-pvtz', properties = ['dipole'])
--------------------------------------------------------------------------

    Molecular point group: c1
  Charge       = 0
  Multiplicity = 1
  Basis Set: AUG-CC-PVTZ
    Blend: AUG-CC-PVTZ
  Basis Set: (AUG-CC-PVTZ AUX)
    Blend: AUG-CC-PVTZ-JKFIT

    Orbital Energies [Eh]
    ---------------------

    Doubly Occupied:

       1A    -11.251947     2A    -11.244455     3A    -11.240786
       4A    -11.236965     5A    -11.236566     6A    -11.234306
       7A    -11.233995     8A    -11.233607     9A    -11.232439
      10A    -11.231232    11A    -11.229175    12A    -11.228087
      13A    -11.207838    14A     -1.177352    15A     -1.145406
      16A     -1.059602    17A     -1.043776    18A     -1.012955
      19A     -1.001835    20A     -0.927941    21A     -0.838816
      22A     -0.829752    23A     -0.797585    24A     -0.786464
      25A     -0.711590    26A     -0.668480    27A     -0.653315
      28A     -0.640064    29A     -0.615529    30A     -0.604550
      31A     -0.588348    32A     -0.582002    33A     -0.577673
      34A     -0.561764    35A     -0.547148    36A     -0.520261
      37A     -0.513945    38A     -0.494401    39A     -0.489246
      40A     -0.487074    41A     -0.440060    42A     -0.366225
      43A     -0.353843    44A     -0.336407    45A     -0.286101

  @DF-RHF Final Energy:  -499.38648024885816

   => Energetics <=

    Nuclear Repulsion Energy =            689.6311942381848894
    One-Electron Energy =               -2042.6335318103599548
    Two-Electron Energy =                 853.6158573233169591
    Total Energy =                       -499.3864802488581063
  Basis Set: (AUG-CC-PVTZ AUX)
    Blend: AUG-CC-PVTZ-RI
    Molecular point group: c1

    Geometry (in Angstrom), charge = 0, multiplicity = 1:

       Center              X                  Y                   Z               Mass
    ------------   -----------------  -----------------  -----------------  -----------------
         C           -0.316872687752     0.000732137446    -0.001102125487    12.000000000000
         C            1.160146312248    -0.000055862554     0.000369874513    12.000000000000
         C           -3.151305687752     0.005458137446    -0.013425125487    12.000000000000
         C           -1.036083687752    -1.114163862554    -0.458395125487    12.000000000000
         C           -1.036297687752     1.118682137446     0.448279874513    12.000000000000
         C           -2.430089687752    -1.110018862554    -0.458506125487    12.000000000000
         C           -2.230266287752     1.117377637446     0.442289374513    12.000000000000
         C            1.873765312248    -1.121109862554     0.453200874513    12.000000000000
         C            1.877052312248     1.119750137446    -0.450297125487    12.000000000000
         C           -4.657365687752    -0.008044862554     0.020114874513    12.000000000000
         C            3.268781312248    -1.122969862554     0.452571874513    12.000000000000
         C            3.272082312248     1.119159137446    -0.445345125487    12.000000000000
         C            3.972564312248    -0.002476862554     0.004747874513    12.000000000000
         H           -0.496534687752    -1.978254862554    -0.841599125487     1.007825032230
         H           -0.497047687752     1.983934137446     0.829300874513     1.007825032230
         H           -2.967874687752    -1.981679862554    -0.829264125487     1.007825032230
         H           -2.968263687752     1.994468137446     0.798198874513     1.007825032230
         H            1.328117312248    -1.983648862554     0.830615874513     1.007825032230
         H            1.334140312248     1.983122137446    -0.829701125487     1.007825032230
         H           -5.063176687752     0.998828137446    -0.113777125487     1.007825032230
         H           -5.062698687752    -0.645536862554    -0.770899125487     1.007825032230
         H           -5.028624687752    -0.390677862554     0.977316874513     1.007825032230
         H            3.807778312248    -1.996291862554     0.812960874513     1.007825032230
         H            3.813690312248     1.991525137446    -0.804128125487     1.007825032230
         H            5.059914312248    -0.003402862554     0.006416874513     1.007825032230

  Basis Set: AUG-CC-PVTZ
    Blend: AUG-CC-PVTZ
  Basis Set: (AUG-CC-PVTZ AUX)
    Blend: AUG-CC-PVTZ-JKFIT
	 Reference Energy          =    -499.3864802488581631 [Eh]
	 Singles Energy            =      -0.0000000000000000 [Eh]
	 Same-Spin Energy          =      -0.5651253569002923 [Eh]
	 Opposite-Spin Energy      =      -1.7811772694632113 [Eh]
	 Correlation Energy        =      -2.3463026263635038 [Eh]
	 Total Energy              =    -501.7327828752216874 [Eh]

	 ================> DF-SCS-MP2 Energies <==================
	-----------------------------------------------------------
	 SCS Same-Spin Scale       =       0.3333333333333333 [-]
	 SCS Opposite-Spin Scale   =       1.2000000000000000 [-]
	 SCS Same-Spin Energy      =      -0.1883751189667641 [Eh]
	 SCS Opposite-Spin Energy  =      -2.1374127233558533 [Eh]
	 SCS Correlation Energy    =      -2.3257878423226175 [Eh]
	 SCS Total Energy          =    -501.7122680911807606 [Eh]
	-----------------------------------------------------------

  Dipole Moment: [D]
     X:    -0.5747      Y:    -0.0888      Z:     0.0079     Total:     0.5816

*** Psi4 exiting successfully. Buy a developer a beer!
