                               Psi4 1.4a3.dev225

  ==> Input File <==

--------------------------------------------------------------------------
#psi4
#
memory 32 gb

molecule  {
0 1
  C       -0.2663850     0.0008990    -0.0013960
  C        1.2106340     0.0001110     0.0000760
  C       -3.1008180     0.0056250    -0.0137190
  C       -0.9855960    -1.1139970    -0.4586890
  C       -0.9858100     1.1188490     0.4479860
  C       -2.3796020    -1.1098520    -0.4588000
  C       -2.3797760     1.1173260     0.4409920
  C        1.9242530    -1.1209430     0.4529070
  C        1.9354370     1.2546753    -0.5062695
  C       -4.6068780    -0.0078780     0.0198210
  C        3.3192690    -1.1228030     0.4522780
  C        3.3225700     1.1193260    -0.4456390
  C        4.0230520    -0.0023100     0.0044540
  H       -0.4460470    -1.9780880    -0.8418930
  H       -0.4465600     1.9841010     0.8290070
  H       -2.9173870    -1.9815130    -0.8295580
  H       -2.9177760     1.9946350     0.7979050
  H        1.3786050    -1.9834820     0.8303220
  H        1.3846280     1.9832890    -0.8299950
  H       -5.0126890     0.9989950    -0.1140710
  H       -5.0122110    -0.6453700    -0.7711930
  H       -4.9781370    -0.3905110     0.9770230
  H        3.8582660    -1.9961250     0.8126670
  H        3.8641780     1.9916920    -0.8044220
  H        5.1104020    -0.0032360     0.0061230
units angstrom
no_reorient  #important for SAPT in psi4, default
symmetry c1  #important for SAPT in psi4, default
}

set PROPERTIES_ORIGIN ["COM"]
properties('MP2/aug-cc-pvtz', properties = ['dipole'])
--------------------------------------------------------------------------

    Molecular point group: c1
  Charge       = 0
  Multiplicity = 1
  Basis Set: AUG-CC-PVTZ
    Blend: AUG-CC-PVTZ
  Basis Set: (AUG-CC-PVTZ AUX)
    Blend: AUG-CC-PVTZ-JKFIT

    Orbital Energies [Eh]
    ---------------------

    Doubly Occupied:

       1A    -11.258033     2A    -11.242709     3A    -11.240973
       4A    -11.240252     5A    -11.239966     6A    -11.238118
       7A    -11.235522     8A    -11.235066     9A    -11.234635
      10A    -11.233815    11A    -11.232379    12A    -11.232131
      13A    -11.225626    14A     -1.163335    15A     -1.135587
      16A     -1.063757    17A     -1.019693    18A     -1.010221
      19A     -0.997509    20A     -0.928254    21A     -0.845888
      22A     -0.832658    23A     -0.813749    24A     -0.775638
      25A     -0.711691    26A     -0.680793    27A     -0.647196
      28A     -0.642380    29A     -0.621311    30A     -0.602335
      31A     -0.593670    32A     -0.581475    33A     -0.576741
      34A     -0.567656    35A     -0.541199    36A     -0.522273
      37A     -0.504618    38A     -0.496291    39A     -0.483905
      40A     -0.480329    41A     -0.463666    42A     -0.356209
      43A     -0.338776    44A     -0.336476    45A     -0.290325

  @DF-RHF Final Energy:  -499.42125106419167

   => Energetics <=

    Nuclear Repulsion Energy =            684.9780319036750598
    One-Electron Energy =               -2033.3689106590361462
    Two-Electron Energy =                 848.9696276911693076
    Total Energy =                       -499.4212510641916651
  Basis Set: (AUG-CC-PVTZ AUX)
    Blend: AUG-CC-PVTZ-RI
    Molecular point group: c1

    Geometry (in Angstrom), charge = 0, multiplicity = 1:

       Center              X                  Y                   Z               Mass
    ------------   -----------------  -----------------  -----------------  -----------------
         C           -0.303158895671    -0.008872479951     0.002944327112    12.000000000000
         C            1.173860104329    -0.009660479951     0.004416327112    12.000000000000
         C           -3.137591895671    -0.004146479951    -0.009378672888    12.000000000000
         C           -1.022369895671    -1.123768479951    -0.454348672888    12.000000000000
         C           -1.022583895671     1.109077520049     0.452326327112    12.000000000000
         C           -2.416375895671    -1.119623479951    -0.454459672888    12.000000000000
         C           -2.416549895671     1.107554520049     0.445332327112    12.000000000000
         C            1.887479104329    -1.130714479951     0.457247327112    12.000000000000
         C            1.898663104329     1.244903820049    -0.501929172888    12.000000000000
         C           -4.643651895671    -0.017649479951     0.024161327112    12.000000000000
         C            3.282495104329    -1.132574479951     0.456618327112    12.000000000000
         C            3.285796104329     1.109554520049    -0.441298672888    12.000000000000
         C            3.986278104329    -0.012081479951     0.008794327112    12.000000000000
         H           -0.482820895671    -1.987859479951    -0.837552672888     1.007825032230
         H           -0.483333895671     1.974329520049     0.833347327112     1.007825032230
         H           -2.954160895671    -1.991284479951    -0.825217672888     1.007825032230
         H           -2.954549895671     1.984863520049     0.802245327112     1.007825032230
         H            1.341831104329    -1.993253479951     0.834662327112     1.007825032230
         H            1.347854104329     1.973517520049    -0.825654672888     1.007825032230
         H           -5.049462895671     0.989223520049    -0.109730672888     1.007825032230
         H           -5.048984895671    -0.655141479951    -0.766852672888     1.007825032230
         H           -5.014910895671    -0.400282479951     0.981363327112     1.007825032230
         H            3.821492104329    -2.005896479951     0.817007327112     1.007825032230
         H            3.827404104329     1.981920520049    -0.800081672888     1.007825032230
         H            5.073628104329    -0.013007479951     0.010463327112     1.007825032230

  Basis Set: AUG-CC-PVTZ
    Blend: AUG-CC-PVTZ
  Basis Set: (AUG-CC-PVTZ AUX)
    Blend: AUG-CC-PVTZ-JKFIT
	 Reference Energy          =    -499.4212510641916651 [Eh]
	 Singles Energy            =      -0.0000000000000000 [Eh]
	 Same-Spin Energy          =      -0.5656149480907761 [Eh]
	 Opposite-Spin Energy      =      -1.7816748525224411 [Eh]
	 Correlation Energy        =      -2.3472898006132170 [Eh]
	 Total Energy              =    -501.7685408648048906 [Eh]

	 ================> DF-SCS-MP2 Energies <==================
	-----------------------------------------------------------
	 SCS Same-Spin Scale       =       0.3333333333333333 [-]
	 SCS Opposite-Spin Scale   =       1.2000000000000000 [-]
	 SCS Same-Spin Energy      =      -0.1885383160302587 [Eh]
	 SCS Opposite-Spin Energy  =      -2.1380098230269291 [Eh]
	 SCS Correlation Energy    =      -2.3265481390571878 [Eh]
	 SCS Total Energy          =    -501.7477992032488601 [Eh]
	-----------------------------------------------------------

  Dipole Moment: [D]
     X:    -0.4854      Y:    -0.0412      Z:     0.0391     Total:     0.4887

*** Psi4 exiting successfully. Buy a developer a beer!
