                               Psi4 1.4a3.dev225

  ==> Input File <==

--------------------------------------------------------------------------
#psi4
#
memory 32 gb

molecule  {
0 1
  C       -0.2663850     0.0008990    -0.0013960
  C        1.2106340     0.0001110     0.0000760
  C       -3.1008180     0.0056250    -0.0137190
  C       -0.9855960    -1.1139970    -0.4586890
  C       -0.9858100     1.1188490     0.4479860
  C       -2.3796020    -1.1098520    -0.4588000
  C       -2.3797760     1.1173260     0.4409920
  C        1.9242530    -1.1209430     0.4529070
  C        1.9275400     1.1199170    -0.4505910
  C       -4.6068780    -0.0078780     0.0198210
  C        3.3192690    -1.1228030     0.4522780
  C        3.3225700     1.1193260    -0.4456390
  C        4.0230520    -0.0023100     0.0044540
  H       -0.4460470    -1.9780880    -0.8418930
  H       -0.4217875     2.0238496     0.8465106
  H       -2.9173870    -1.9815130    -0.8295580
  H       -2.9177760     1.9946350     0.7979050
  H        1.3786050    -1.9834820     0.8303220
  H        1.3846280     1.9832890    -0.8299950
  H       -5.0126890     0.9989950    -0.1140710
  H       -5.0122110    -0.6453700    -0.7711930
  H       -4.9781370    -0.3905110     0.9770230
  H        3.8582660    -1.9961250     0.8126670
  H        3.8641780     1.9916920    -0.8044220
  H        5.1104020    -0.0032360     0.0061230
units angstrom
no_reorient  #important for SAPT in psi4, default
symmetry c1  #important for SAPT in psi4, default
}

set PROPERTIES_ORIGIN ["COM"]
properties('MP2/aug-cc-pvtz', properties = ['dipole'])
--------------------------------------------------------------------------

    Molecular point group: c1
  Charge       = 0
  Multiplicity = 1
  Basis Set: AUG-CC-PVTZ
    Blend: AUG-CC-PVTZ
  Basis Set: (AUG-CC-PVTZ AUX)
    Blend: AUG-CC-PVTZ-JKFIT

    Orbital Energies [Eh]
    ---------------------

    Doubly Occupied:

       1A    -11.244925     2A    -11.242943     3A    -11.241984
       4A    -11.240614     5A    -11.237078     6A    -11.236825
       7A    -11.235614     8A    -11.234459     9A    -11.234267
      10A    -11.234043    11A    -11.232613    12A    -11.232240
      13A    -11.225715    14A     -1.167988    15A     -1.141360
      16A     -1.065273    17A     -1.016317    18A     -1.008146
      19A     -1.004052    20A     -0.929022    21A     -0.839889
      22A     -0.832353    23A     -0.810422    24A     -0.778635
      25A     -0.711414    26A     -0.665685    27A     -0.646149
      28A     -0.638744    29A     -0.613533    30A     -0.612287
      31A     -0.586905    32A     -0.578341    33A     -0.576081
      34A     -0.570967    35A     -0.541394    36A     -0.512290
      37A     -0.508646    38A     -0.497380    39A     -0.481910
      40A     -0.480871    41A     -0.477824    42A     -0.359162
      43A     -0.337593    44A     -0.335873    45A     -0.296257

  @DF-RHF Final Energy:  -499.44748876555053

   => Energetics <=

    Nuclear Repulsion Energy =            687.0924454163797463
    One-Electron Energy =               -2037.6877088148892199
    Two-Electron Energy =                 851.1477746329587717
    Total Energy =                       -499.4474887655505881
  Basis Set: (AUG-CC-PVTZ AUX)
    Blend: AUG-CC-PVTZ-RI
    Molecular point group: c1

    Geometry (in Angstrom), charge = 0, multiplicity = 1:

       Center              X                  Y                   Z               Mass
    ------------   -----------------  -----------------  -----------------  -----------------
         C           -0.302743665527     0.000509418871    -0.001135431670    12.000000000000
         C            1.174275334473    -0.000278581129     0.000336568330    12.000000000000
         C           -3.137176665527     0.005235418871    -0.013458431670    12.000000000000
         C           -1.021954665527    -1.114386581129    -0.458428431670    12.000000000000
         C           -1.022168665527     1.118459418871     0.448246568330    12.000000000000
         C           -2.415960665527    -1.110241581129    -0.458539431670    12.000000000000
         C           -2.416134665527     1.116936418871     0.441252568330    12.000000000000
         C            1.887894334473    -1.121332581129     0.453167568330    12.000000000000
         C            1.891181334473     1.119527418871    -0.450330431670    12.000000000000
         C           -4.643236665527    -0.008267581129     0.020081568330    12.000000000000
         C            3.282910334473    -1.123192581129     0.452538568330    12.000000000000
         C            3.286211334473     1.118936418871    -0.445378431670    12.000000000000
         C            3.986693334473    -0.002699581129     0.004714568330    12.000000000000
         H           -0.482405665527    -1.978477581129    -0.841632431670     1.007825032230
         H           -0.458146165527     2.023460018871     0.846771168330     1.007825032230
         H           -2.953745665527    -1.981902581129    -0.829297431670     1.007825032230
         H           -2.954134665527     1.994245418871     0.798165568330     1.007825032230
         H            1.342246334473    -1.983871581129     0.830582568330     1.007825032230
         H            1.348269334473     1.982899418871    -0.829734431670     1.007825032230
         H           -5.049047665527     0.998605418871    -0.113810431670     1.007825032230
         H           -5.048569665527    -0.645759581129    -0.770932431670     1.007825032230
         H           -5.014495665527    -0.390900581129     0.977283568330     1.007825032230
         H            3.821907334473    -1.996514581129     0.812927568330     1.007825032230
         H            3.827819334473     1.991302418871    -0.804161431670     1.007825032230
         H            5.074043334473    -0.003625581129     0.006383568330     1.007825032230

  Basis Set: AUG-CC-PVTZ
    Blend: AUG-CC-PVTZ
  Basis Set: (AUG-CC-PVTZ AUX)
    Blend: AUG-CC-PVTZ-JKFIT
	 Reference Energy          =    -499.4474887655505313 [Eh]
	 Singles Energy            =      -0.0000000000000000 [Eh]
	 Same-Spin Energy          =      -0.5655315208528842 [Eh]
	 Opposite-Spin Energy      =      -1.7801037975926643 [Eh]
	 Correlation Energy        =      -2.3456353184455487 [Eh]
	 Total Energy              =    -501.7931240839960765 [Eh]

	 ================> DF-SCS-MP2 Energies <==================
	-----------------------------------------------------------
	 SCS Same-Spin Scale       =       0.3333333333333333 [-]
	 SCS Opposite-Spin Scale   =       1.2000000000000000 [-]
	 SCS Same-Spin Energy      =      -0.1885105069509614 [Eh]
	 SCS Opposite-Spin Energy  =      -2.1361245571111973 [Eh]
	 SCS Correlation Energy    =      -2.3246350640621585 [Eh]
	 SCS Total Energy          =    -501.7721238296126671 [Eh]
	-----------------------------------------------------------

  Dipole Moment: [D]
     X:    -0.4979      Y:    -0.0268      Z:     0.0305     Total:     0.4995

*** Psi4 exiting successfully. Buy a developer a beer!
