                               Psi4 1.4a3.dev225

  ==> Input File <==

--------------------------------------------------------------------------
#psi4
#
memory 32 gb

molecule  {
0 1
  C       -0.2663850     0.0008990    -0.0013960
  C        1.2106340     0.0001110     0.0000760
  C       -3.1008180     0.0056250    -0.0137190
  C       -0.9855960    -1.1139970    -0.4586890
  C       -0.9858100     1.1188490     0.4479860
  C       -2.3786222    -1.0653960    -0.4390445
  C       -2.3797760     1.1173260     0.4409920
  C        1.9242530    -1.1209430     0.4529070
  C        1.9275400     1.1199170    -0.4505910
  C       -4.6068780    -0.0078780     0.0198210
  C        3.3192690    -1.1228030     0.4522780
  C        3.3225700     1.1193260    -0.4456390
  C        4.0230520    -0.0023100     0.0044540
  H       -0.4460470    -1.9780880    -0.8418930
  H       -0.4465600     1.9841010     0.8290070
  H       -2.9173870    -1.9815130    -0.8295580
  H       -2.9177760     1.9946350     0.7979050
  H        1.3786050    -1.9834820     0.8303220
  H        1.3846280     1.9832890    -0.8299950
  H       -5.0126890     0.9989950    -0.1140710
  H       -5.0122110    -0.6453700    -0.7711930
  H       -4.9781370    -0.3905110     0.9770230
  H        3.8582660    -1.9961250     0.8126670
  H        3.8641780     1.9916920    -0.8044220
  H        5.1104020    -0.0032360     0.0061230
units angstrom
no_reorient  #important for SAPT in psi4, default
symmetry c1  #important for SAPT in psi4, default
}

set PROPERTIES_ORIGIN ["COM"]
properties('MP2/aug-cc-pvtz', properties = ['dipole'])
--------------------------------------------------------------------------

    Molecular point group: c1
  Charge       = 0
  Multiplicity = 1
  Basis Set: AUG-CC-PVTZ
    Blend: AUG-CC-PVTZ
  Basis Set: (AUG-CC-PVTZ AUX)
    Blend: AUG-CC-PVTZ-JKFIT

    Orbital Energies [Eh]
    ---------------------

    Doubly Occupied:

       1A    -11.244925     2A    -11.241431     3A    -11.237547
       4A    -11.237387     5A    -11.237136     6A    -11.234845
       7A    -11.234781     8A    -11.234597     9A    -11.234460
      10A    -11.234369    11A    -11.232526    12A    -11.231034
      13A    -11.225706    14A     -1.170156    15A     -1.143920
      16A     -1.067534    17A     -1.016535    18A     -1.008042
      19A     -1.004720    20A     -0.930312    21A     -0.841471
      22A     -0.834497    23A     -0.811913    24A     -0.778636
      25A     -0.711135    26A     -0.665975    27A     -0.648066
      28A     -0.641575    29A     -0.614191    30A     -0.610990
      31A     -0.586958    32A     -0.578317    33A     -0.576364
      34A     -0.571534    35A     -0.539407    36A     -0.515025
      37A     -0.509434    38A     -0.498247    39A     -0.484033
      40A     -0.482458    41A     -0.473949    42A     -0.361070
      43A     -0.337430    44A     -0.335504    45A     -0.298222

  @DF-RHF Final Energy:  -499.44726893752380

   => Energetics <=

    Nuclear Repulsion Energy =            688.1371438900898738
    One-Electron Energy =               -2039.7520994320088903
    Two-Electron Energy =                 852.1676866043951577
    Total Energy =                       -499.4472689375238588
  Basis Set: (AUG-CC-PVTZ AUX)
    Blend: AUG-CC-PVTZ-RI
    Molecular point group: c1

    Geometry (in Angstrom), charge = 0, multiplicity = 1:

       Center              X                  Y                   Z               Mass
    ------------   -----------------  -----------------  -----------------  -----------------
         C           -0.302665085962    -0.002425918847    -0.002440805829    12.000000000000
         C            1.174353914038    -0.003213918847    -0.000968805829    12.000000000000
         C           -3.137098085962     0.002300081153    -0.014763805829    12.000000000000
         C           -1.021876085962    -1.117321918847    -0.459733805829    12.000000000000
         C           -1.022090085962     1.115524081153     0.446941194171    12.000000000000
         C           -2.414902285962    -1.068720918847    -0.440089305829    12.000000000000
         C           -2.416056085962     1.114001081153     0.439947194171    12.000000000000
         C            1.887972914038    -1.124267918847     0.451862194171    12.000000000000
         C            1.891259914038     1.116592081153    -0.451635805829    12.000000000000
         C           -4.643158085962    -0.011202918847     0.018776194171    12.000000000000
         C            3.282988914038    -1.126127918847     0.451233194171    12.000000000000
         C            3.286289914038     1.116001081153    -0.446683805829    12.000000000000
         C            3.986771914038    -0.005634918847     0.003409194171    12.000000000000
         H           -0.482327085962    -1.981412918847    -0.842937805829     1.007825032230
         H           -0.482840085962     1.980776081153     0.827962194171     1.007825032230
         H           -2.953667085962    -1.984837918847    -0.830602805829     1.007825032230
         H           -2.954056085962     1.991310081153     0.796860194171     1.007825032230
         H            1.342324914038    -1.986806918847     0.829277194171     1.007825032230
         H            1.348347914038     1.979964081153    -0.831039805829     1.007825032230
         H           -5.048969085962     0.995670081153    -0.115115805829     1.007825032230
         H           -5.048491085962    -0.648694918847    -0.772237805829     1.007825032230
         H           -5.014417085962    -0.393835918847     0.975978194171     1.007825032230
         H            3.821985914038    -1.999449918847     0.811622194171     1.007825032230
         H            3.827897914038     1.988367081153    -0.805466805829     1.007825032230
         H            5.074121914038    -0.006560918847     0.005078194171     1.007825032230

  Basis Set: AUG-CC-PVTZ
    Blend: AUG-CC-PVTZ
  Basis Set: (AUG-CC-PVTZ AUX)
    Blend: AUG-CC-PVTZ-JKFIT
	 Reference Energy          =    -499.4472689375238019 [Eh]
	 Singles Energy            =      -0.0000000000000000 [Eh]
	 Same-Spin Energy          =      -0.5654623421737776 [Eh]
	 Opposite-Spin Energy      =      -1.7796392504273335 [Eh]
	 Correlation Energy        =      -2.3451015926011110 [Eh]
	 Total Energy              =    -501.7923705301249129 [Eh]

	 ================> DF-SCS-MP2 Energies <==================
	-----------------------------------------------------------
	 SCS Same-Spin Scale       =       0.3333333333333333 [-]
	 SCS Opposite-Spin Scale   =       1.2000000000000000 [-]
	 SCS Same-Spin Energy      =      -0.1884874473912592 [Eh]
	 SCS Opposite-Spin Energy  =      -2.1355671005128003 [Eh]
	 SCS Correlation Energy    =      -2.3240545479040593 [Eh]
	 SCS Total Energy          =    -501.7713234854278426 [Eh]
	-----------------------------------------------------------

  Dipole Moment: [D]
     X:    -0.4559      Y:     0.0102      Z:     0.0439     Total:     0.4581

*** Psi4 exiting successfully. Buy a developer a beer!
