                               Psi4 1.4a3.dev225

  ==> Input File <==

--------------------------------------------------------------------------
#psi4
#
memory 32 gb

molecule  {
0 1
  C       -0.2663850     0.0008990    -0.0013960
  C        1.2106340     0.0001110     0.0000760
  C       -3.1008180     0.0056250    -0.0137190
  C       -0.9855960    -1.1139970    -0.4586890
  C       -0.9858100     1.1188490     0.4479860
  C       -2.3796020    -1.1098520    -0.4588000
  C       -2.3797760     1.1173260     0.4409920
  C        1.9242530    -1.1209430     0.4529070
  C        1.9275400     1.1199170    -0.4505910
  C       -4.6068780    -0.0078780     0.0198210
  C        3.3192690    -1.1228030     0.4522780
  C        3.3225700     1.1193260    -0.4456390
  C        4.0230520    -0.0023100     0.0044540
  H       -0.4460470    -1.9780880    -0.8418930
  H       -0.4465600     1.9841010     0.8290070
  H       -2.9173870    -1.9815130    -0.8295580
  H       -2.9177760     1.9946350     0.7979050
  H        1.3786050    -1.9834820     0.8303220
  H        1.3846280     1.9832890    -0.8299950
  H       -5.0126890     0.9989950    -0.1140710
  H       -5.0122110    -0.6453700    -0.7711930
  H       -4.9781370    -0.3905110     0.9770230
  H        3.8582660    -1.9961250     0.8126670
  H        3.8143840     1.9114890    -0.7714365
  H        5.1104020    -0.0032360     0.0061230
units angstrom
no_reorient  #important for SAPT in psi4, default
symmetry c1  #important for SAPT in psi4, default
}

set PROPERTIES_ORIGIN ["COM"]
properties('MP2/aug-cc-pvtz', properties = ['dipole'])
--------------------------------------------------------------------------

    Molecular point group: c1
  Charge       = 0
  Multiplicity = 1
  Basis Set: AUG-CC-PVTZ
    Blend: AUG-CC-PVTZ
  Basis Set: (AUG-CC-PVTZ AUX)
    Blend: AUG-CC-PVTZ-JKFIT

    Orbital Energies [Eh]
    ---------------------

    Doubly Occupied:

       1A    -11.244359     2A    -11.242399     3A    -11.240923
       4A    -11.236454     5A    -11.235093     6A    -11.234955
       7A    -11.234110     8A    -11.233757     9A    -11.233684
      10A    -11.231925    11A    -11.231843    12A    -11.225376
      13A    -11.224622    14A     -1.167888    15A     -1.141466
      16A     -1.065523    17A     -1.018631    18A     -1.009831
      19A     -1.004161    20A     -0.928656    21A     -0.843858
      22A     -0.833302    23A     -0.814331    24A     -0.781271
      25A     -0.716140    26A     -0.666042    27A     -0.646881
      28A     -0.645131    29A     -0.619097    30A     -0.613062
      31A     -0.590689    32A     -0.581143    33A     -0.576170
      34A     -0.570769    35A     -0.541226    36A     -0.512978
      37A     -0.508407    38A     -0.500034    39A     -0.481648
      40A     -0.481270    41A     -0.479567    42A     -0.358712
      43A     -0.337219    44A     -0.335515    45A     -0.295776

  @DF-RHF Final Energy:  -499.44420519330464

   => Energetics <=

    Nuclear Repulsion Energy =            687.8875977995312496
    One-Electron Energy =               -2039.2318182030667231
    Two-Electron Energy =                 851.9000152102307766
    Total Energy =                       -499.4442051933046969
  Basis Set: (AUG-CC-PVTZ AUX)
    Blend: AUG-CC-PVTZ-RI
    Molecular point group: c1

    Geometry (in Angstrom), charge = 0, multiplicity = 1:

       Center              X                  Y                   Z               Mass
    ------------   -----------------  -----------------  -----------------  -----------------
         C           -0.302296594068     0.001228601571    -0.001228255064    12.000000000000
         C            1.174722405932     0.000440601571     0.000243744936    12.000000000000
         C           -3.136729594068     0.005954601571    -0.013551255064    12.000000000000
         C           -1.021507594068    -1.113667398429    -0.458521255064    12.000000000000
         C           -1.021721594068     1.119178601571     0.448153744936    12.000000000000
         C           -2.415513594068    -1.109522398429    -0.458632255064    12.000000000000
         C           -2.415687594068     1.117655601571     0.441159744936    12.000000000000
         C            1.888341405932    -1.120613398429     0.453074744936    12.000000000000
         C            1.891628405932     1.120246601571    -0.450423255064    12.000000000000
         C           -4.642789594068    -0.007548398429     0.019988744936    12.000000000000
         C            3.283357405932    -1.122473398429     0.452445744936    12.000000000000
         C            3.286658405932     1.119655601571    -0.445471255064    12.000000000000
         C            3.987140405932    -0.001980398429     0.004621744936    12.000000000000
         H           -0.481958594068    -1.977758398429    -0.841725255064     1.007825032230
         H           -0.482471594068     1.984430601571     0.829174744936     1.007825032230
         H           -2.953298594068    -1.981183398429    -0.829390255064     1.007825032230
         H           -2.953687594068     1.994964601571     0.798072744936     1.007825032230
         H            1.342693405932    -1.983152398429     0.830489744936     1.007825032230
         H            1.348716405932     1.983618601571    -0.829827255064     1.007825032230
         H           -5.048600594068     0.999324601571    -0.113903255064     1.007825032230
         H           -5.048122594068    -0.645040398429    -0.771025255064     1.007825032230
         H           -5.014048594068    -0.390181398429     0.977190744936     1.007825032230
         H            3.822354405932    -1.995795398429     0.812834744936     1.007825032230
         H            3.778472405932     1.911818601571    -0.771268755064     1.007825032230
         H            5.074490405932    -0.002906398429     0.006290744936     1.007825032230

  Basis Set: AUG-CC-PVTZ
    Blend: AUG-CC-PVTZ
  Basis Set: (AUG-CC-PVTZ AUX)
    Blend: AUG-CC-PVTZ-JKFIT
	 Reference Energy          =    -499.4442051933046400 [Eh]
	 Singles Energy            =      -0.0000000000000000 [Eh]
	 Same-Spin Energy          =      -0.5652431217735624 [Eh]
	 Opposite-Spin Energy      =      -1.7791247500044536 [Eh]
	 Correlation Energy        =      -2.3443678717780161 [Eh]
	 Total Energy              =    -501.7885730650826304 [Eh]

	 ================> DF-SCS-MP2 Energies <==================
	-----------------------------------------------------------
	 SCS Same-Spin Scale       =       0.3333333333333333 [-]
	 SCS Opposite-Spin Scale   =       1.2000000000000000 [-]
	 SCS Same-Spin Energy      =      -0.1884143739245208 [Eh]
	 SCS Opposite-Spin Energy  =      -2.1349497000053441 [Eh]
	 SCS Correlation Energy    =      -2.3233640739298651 [Eh]
	 SCS Total Energy          =    -501.7675692672344780 [Eh]
	-----------------------------------------------------------

  Dipole Moment: [D]
     X:    -0.4580      Y:     0.0110      Z:     0.0266     Total:     0.4589

*** Psi4 exiting successfully. Buy a developer a beer!
