                               Psi4 1.4a3.dev225

  ==> Input File <==

--------------------------------------------------------------------------
#psi4
#
memory 32 gb

molecule  {
0 1
  C       -0.2663850     0.0008990    -0.0013960
  C        1.2106340     0.0001110     0.0000760
  C       -3.1008180     0.0056250    -0.0137190
  C       -0.9855960    -1.1139970    -0.4586890
  C       -0.9858100     1.1188490     0.4479860
  C       -2.3796020    -1.1098520    -0.4588000
  C       -2.3797760     1.1173260     0.4409920
  C        1.9242530    -1.1209430     0.4529070
  C        1.9275400     1.1199170    -0.4505910
  C       -4.6068780    -0.0078780     0.0198210
  C        3.3192690    -1.1228030     0.4522780
  C        3.3225700     1.1193260    -0.4456390
  C        3.9805138     0.0196110    -0.0048948
  H       -0.4460470    -1.9780880    -0.8418930
  H       -0.4465600     1.9841010     0.8290070
  H       -2.9173870    -1.9815130    -0.8295580
  H       -2.9177760     1.9946350     0.7979050
  H        1.3786050    -1.9834820     0.8303220
  H        1.3846280     1.9832890    -0.8299950
  H       -5.0126890     0.9989950    -0.1140710
  H       -5.0122110    -0.6453700    -0.7711930
  H       -4.9781370    -0.3905110     0.9770230
  H        3.8582660    -1.9961250     0.8126670
  H        3.8641780     1.9916920    -0.8044220
  H        5.1104020    -0.0032360     0.0061230
units angstrom
no_reorient  #important for SAPT in psi4, default
symmetry c1  #important for SAPT in psi4, default
}

set PROPERTIES_ORIGIN ["COM"]
properties('MP2/aug-cc-pvtz', properties = ['dipole'])
--------------------------------------------------------------------------

    Molecular point group: c1
  Charge       = 0
  Multiplicity = 1
  Basis Set: AUG-CC-PVTZ
    Blend: AUG-CC-PVTZ
  Basis Set: (AUG-CC-PVTZ AUX)
    Blend: AUG-CC-PVTZ-JKFIT

    Orbital Energies [Eh]
    ---------------------

    Doubly Occupied:

       1A    -11.244075     2A    -11.242322     3A    -11.241019
       4A    -11.236835     5A    -11.235034     6A    -11.234897
       7A    -11.234790     8A    -11.234542     9A    -11.233743
      10A    -11.231904    11A    -11.231835    12A    -11.231401
      13A    -11.225347    14A     -1.169440    15A     -1.143838
      16A     -1.066484    17A     -1.018444    18A     -1.009805
      19A     -1.004077    20A     -0.928311    21A     -0.842275
      22A     -0.830764    23A     -0.812942    24A     -0.778879
      25A     -0.712415    26A     -0.660542    27A     -0.646619
      28A     -0.642007    29A     -0.616037    30A     -0.614751
      31A     -0.589618    32A     -0.581032    33A     -0.576011
      34A     -0.566758    35A     -0.541367    36A     -0.511069
      37A     -0.507075    38A     -0.500656    39A     -0.483129
      40A     -0.480539    41A     -0.476696    42A     -0.361056
      43A     -0.337903    44A     -0.335931    45A     -0.296555

  @DF-RHF Final Energy:  -499.44716540724960

   => Energetics <=

    Nuclear Repulsion Energy =            688.2025770637076221
    One-Electron Energy =               -2039.8979417666225800
    Two-Electron Energy =                 852.2481992956653585
    Total Energy =                       -499.4471654072495994
  Basis Set: (AUG-CC-PVTZ AUX)
    Blend: AUG-CC-PVTZ-RI
    Molecular point group: c1

    Geometry (in Angstrom), charge = 0, multiplicity = 1:

       Center              X                  Y                   Z               Mass
    ------------   -----------------  -----------------  -----------------  -----------------
         C           -0.299558393816    -0.000817175166    -0.000363088557    12.000000000000
         C            1.177460606184    -0.001605175166     0.001108911443    12.000000000000
         C           -3.133991393816     0.003908824834    -0.012686088557    12.000000000000
         C           -1.018769393816    -1.115713175166    -0.457656088557    12.000000000000
         C           -1.018983393816     1.117132824834     0.449018911443    12.000000000000
         C           -2.412775393816    -1.111568175166    -0.457767088557    12.000000000000
         C           -2.412949393816     1.115609824834     0.442024911443    12.000000000000
         C            1.891079606184    -1.122659175166     0.453939911443    12.000000000000
         C            1.894366606184     1.118200824834    -0.449558088557    12.000000000000
         C           -4.640051393816    -0.009594175166     0.020853911443    12.000000000000
         C            3.286095606184    -1.124519175166     0.453310911443    12.000000000000
         C            3.289396606184     1.117609824834    -0.444606088557    12.000000000000
         C            3.947340406184     0.017894824834    -0.003861888557    12.000000000000
         H           -0.479220393816    -1.979804175166    -0.840860088557     1.007825032230
         H           -0.479733393816     1.982384824834     0.830039911443     1.007825032230
         H           -2.950560393816    -1.983229175166    -0.828525088557     1.007825032230
         H           -2.950949393816     1.992918824834     0.798937911443     1.007825032230
         H            1.345431606184    -1.985198175166     0.831354911443     1.007825032230
         H            1.351454606184     1.981572824834    -0.828962088557     1.007825032230
         H           -5.045862393816     0.997278824834    -0.113038088557     1.007825032230
         H           -5.045384393816    -0.647086175166    -0.770160088557     1.007825032230
         H           -5.011310393816    -0.392227175166     0.978055911443     1.007825032230
         H            3.825092606184    -1.997841175166     0.813699911443     1.007825032230
         H            3.831004606184     1.989975824834    -0.803389088557     1.007825032230
         H            5.077228606184    -0.004952175166     0.007155911443     1.007825032230

  Basis Set: AUG-CC-PVTZ
    Blend: AUG-CC-PVTZ
  Basis Set: (AUG-CC-PVTZ AUX)
    Blend: AUG-CC-PVTZ-JKFIT
	 Reference Energy          =    -499.4471654072495994 [Eh]
	 Singles Energy            =      -0.0000000000000000 [Eh]
	 Same-Spin Energy          =      -0.5654598649141539 [Eh]
	 Opposite-Spin Energy      =      -1.7796092566285571 [Eh]
	 Correlation Energy        =      -2.3450691215427111 [Eh]
	 Total Energy              =    -501.7922345287923349 [Eh]

	 ================> DF-SCS-MP2 Energies <==================
	-----------------------------------------------------------
	 SCS Same-Spin Scale       =       0.3333333333333333 [-]
	 SCS Opposite-Spin Scale   =       1.2000000000000000 [-]
	 SCS Same-Spin Energy      =      -0.1884866216380513 [Eh]
	 SCS Opposite-Spin Energy  =      -2.1355311079542685 [Eh]
	 SCS Correlation Energy    =      -2.3240177295923199 [Eh]
	 SCS Total Energy          =    -501.7711831368418984 [Eh]
	-----------------------------------------------------------

  Dipole Moment: [D]
     X:    -0.4918      Y:    -0.0188      Z:     0.0387     Total:     0.4937

*** Psi4 exiting successfully. Buy a developer a beer!
