                               Psi4 1.4a3.dev225

  ==> Input File <==

--------------------------------------------------------------------------
#psi4
#
memory 32 gb

molecule  {
0 1
  C       -0.2663850     0.0008990    -0.0013960
  C        1.2106340     0.0001110     0.0000760
  C       -3.1008180     0.0056250    -0.0137190
  C       -0.9855960    -1.1139970    -0.4586890
  C       -0.9858100     1.1188490     0.4479860
  C       -2.1796029    -1.1104467    -0.4587841
  C       -2.3797760     1.1173260     0.4409920
  C        1.9242530    -1.1209430     0.4529070
  C        1.9275400     1.1199170    -0.4505910
  C       -4.6068780    -0.0078780     0.0198210
  C        3.3192690    -1.1228030     0.4522780
  C        3.3225700     1.1193260    -0.4456390
  C        4.0230520    -0.0023100     0.0044540
  H       -0.4460470    -1.9780880    -0.8418930
  H       -0.4465600     1.9841010     0.8290070
  H       -2.9173870    -1.9815130    -0.8295580
  H       -2.9177760     1.9946350     0.7979050
  H        1.3786050    -1.9834820     0.8303220
  H        1.3846280     1.9832890    -0.8299950
  H       -5.0126890     0.9989950    -0.1140710
  H       -5.0122110    -0.6453700    -0.7711930
  H       -4.9781370    -0.3905110     0.9770230
  H        3.8582660    -1.9961250     0.8126670
  H        3.8641780     1.9916920    -0.8044220
  H        5.1104020    -0.0032360     0.0061230
units angstrom
no_reorient  #important for SAPT in psi4, default
symmetry c1  #important for SAPT in psi4, default
}

set PROPERTIES_ORIGIN ["COM"]
properties('MP2/aug-cc-pvtz', properties = ['dipole'])
--------------------------------------------------------------------------

    Molecular point group: c1
  Charge       = 0
  Multiplicity = 1
  Basis Set: AUG-CC-PVTZ
    Blend: AUG-CC-PVTZ
  Basis Set: (AUG-CC-PVTZ AUX)
    Blend: AUG-CC-PVTZ-JKFIT

    Orbital Energies [Eh]
    ---------------------

    Doubly Occupied:

       1A    -11.251933     2A    -11.244448     3A    -11.240776
       4A    -11.236972     5A    -11.236565     6A    -11.234313
       7A    -11.234002     8A    -11.233611     9A    -11.232450
      10A    -11.231217    11A    -11.229210    12A    -11.228049
      13A    -11.207813    14A     -1.177340    15A     -1.145403
      16A     -1.059603    17A     -1.043758    18A     -1.012961
      19A     -1.001839    20A     -0.927937    21A     -0.838858
      22A     -0.829716    23A     -0.797576    24A     -0.786458
      25A     -0.711585    26A     -0.668486    27A     -0.653293
      28A     -0.640067    29A     -0.615580    30A     -0.604490
      31A     -0.588279    32A     -0.582016    33A     -0.577831
      34A     -0.561845    35A     -0.547015    36A     -0.519624
      37A     -0.514570    38A     -0.494439    39A     -0.489166
      40A     -0.487063    41A     -0.440064    42A     -0.366242
      43A     -0.353796    44A     -0.336411    45A     -0.286111

  @DF-RHF Final Energy:  -499.38647384314106

   => Energetics <=

    Nuclear Repulsion Energy =            689.6312551345550901
    One-Electron Energy =               -2042.6338933075101068
    Two-Electron Energy =                 853.6161643298138415
    Total Energy =                       -499.3864738431410615
  Basis Set: (AUG-CC-PVTZ AUX)
    Blend: AUG-CC-PVTZ-RI
    Molecular point group: c1

    Geometry (in Angstrom), charge = 0, multiplicity = 1:

       Center              X                  Y                   Z               Mass
    ------------   -----------------  -----------------  -----------------  -----------------
         C           -0.316872809112     0.000790190713    -0.001031622036    12.000000000000
         C            1.160146190888     0.000002190713     0.000440377964    12.000000000000
         C           -3.151305809112     0.005516190713    -0.013354622036    12.000000000000
         C           -1.036083809112    -1.114105809287    -0.458324622036    12.000000000000
         C           -1.036297809112     1.118740190713     0.448350377964    12.000000000000
         C           -2.230090709112    -1.110555509287    -0.458419722036    12.000000000000
         C           -2.430263809112     1.117217190713     0.441356377964    12.000000000000
         C            1.873765190888    -1.121051809287     0.453271377964    12.000000000000
         C            1.877052190888     1.119808190713    -0.450226622036    12.000000000000
         C           -4.657365809112    -0.007986809287     0.020185377964    12.000000000000
         C            3.268781190888    -1.122911809287     0.452642377964    12.000000000000
         C            3.272082190888     1.119217190713    -0.445274622036    12.000000000000
         C            3.972564190888    -0.002418809287     0.004818377964    12.000000000000
         H           -0.496534809112    -1.978196809287    -0.841528622036     1.007825032230
         H           -0.497047809112     1.983992190713     0.829371377964     1.007825032230
         H           -2.967874809112    -1.981621809287    -0.829193622036     1.007825032230
         H           -2.968263809112     1.994526190713     0.798269377964     1.007825032230
         H            1.328117190888    -1.983590809287     0.830686377964     1.007825032230
         H            1.334140190888     1.983180190713    -0.829630622036     1.007825032230
         H           -5.063176809112     0.998886190713    -0.113706622036     1.007825032230
         H           -5.062698809112    -0.645478809287    -0.770828622036     1.007825032230
         H           -5.028624809112    -0.390619809287     0.977387377964     1.007825032230
         H            3.807778190888    -1.996233809287     0.813031377964     1.007825032230
         H            3.813690190888     1.991583190713    -0.804057622036     1.007825032230
         H            5.059914190888    -0.003344809287     0.006487377964     1.007825032230

  Basis Set: AUG-CC-PVTZ
    Blend: AUG-CC-PVTZ
  Basis Set: (AUG-CC-PVTZ AUX)
    Blend: AUG-CC-PVTZ-JKFIT
	 Reference Energy          =    -499.3864738431410615 [Eh]
	 Singles Energy            =      -0.0000000000000000 [Eh]
	 Same-Spin Energy          =      -0.5651269524079193 [Eh]
	 Opposite-Spin Energy      =      -1.7811676068325886 [Eh]
	 Correlation Energy        =      -2.3462945592405080 [Eh]
	 Total Energy              =    -501.7327684023815664 [Eh]

	 ================> DF-SCS-MP2 Energies <==================
	-----------------------------------------------------------
	 SCS Same-Spin Scale       =       0.3333333333333333 [-]
	 SCS Opposite-Spin Scale   =       1.2000000000000000 [-]
	 SCS Same-Spin Energy      =      -0.1883756508026398 [Eh]
	 SCS Opposite-Spin Energy  =      -2.1374011281991061 [Eh]
	 SCS Correlation Energy    =      -2.3257767790017461 [Eh]
	 SCS Total Energy          =    -501.7122506221427898 [Eh]
	-----------------------------------------------------------

  Dipole Moment: [D]
     X:    -0.5733      Y:     0.0574      Z:     0.0747     Total:     0.5810

*** Psi4 exiting successfully. Buy a developer a beer!
