                               Psi4 1.4a3.dev225

  ==> Input File <==

--------------------------------------------------------------------------
#psi4
#
memory 32 gb

molecule  {
0 1
  C       -0.2663850     0.0008990    -0.0013960
  C        1.2106340     0.0001110     0.0000760
  C       -3.1008180     0.0056250    -0.0137190
  C       -0.9855960    -1.1139970    -0.4586890
  C       -0.9858100     1.1188490     0.4479860
  C       -2.3796020    -1.1098520    -0.4588000
  C       -2.3597763     1.1173479     0.4410923
  C        1.9242530    -1.1209430     0.4529070
  C        1.9275400     1.1199170    -0.4505910
  C       -4.6068780    -0.0078780     0.0198210
  C        3.3192690    -1.1228030     0.4522780
  C        3.3225700     1.1193260    -0.4456390
  C        4.0230520    -0.0023100     0.0044540
  H       -0.4460470    -1.9780880    -0.8418930
  H       -0.4465600     1.9841010     0.8290070
  H       -2.9173870    -1.9815130    -0.8295580
  H       -2.9177760     1.9946350     0.7979050
  H        1.3786050    -1.9834820     0.8303220
  H        1.3846280     1.9832890    -0.8299950
  H       -5.0126890     0.9989950    -0.1140710
  H       -5.0122110    -0.6453700    -0.7711930
  H       -4.9781370    -0.3905110     0.9770230
  H        3.8582660    -1.9961250     0.8126670
  H        3.8641780     1.9916920    -0.8044220
  H        5.1104020    -0.0032360     0.0061230
units angstrom
no_reorient  #important for SAPT in psi4, default
symmetry c1  #important for SAPT in psi4, default
}

set PROPERTIES_ORIGIN ["COM"]
properties('MP2/aug-cc-pvtz', properties = ['dipole'])
--------------------------------------------------------------------------

    Molecular point group: c1
  Charge       = 0
  Multiplicity = 1
  Basis Set: AUG-CC-PVTZ
    Blend: AUG-CC-PVTZ
  Basis Set: (AUG-CC-PVTZ AUX)
    Blend: AUG-CC-PVTZ-JKFIT

    Orbital Energies [Eh]
    ---------------------

    Doubly Occupied:

       1A    -11.244868     2A    -11.243588     3A    -11.241097
       4A    -11.237116     5A    -11.236866     6A    -11.234866
       7A    -11.234466     8A    -11.234282     9A    -11.234059
      10A    -11.233276    11A    -11.231743    12A    -11.231676
      13A    -11.226122    14A     -1.168448    15A     -1.141497
      16A     -1.064502    17A     -1.017929    18A     -1.009914
      19A     -1.004303    20A     -0.928877    21A     -0.839791
      22A     -0.833149    23A     -0.810607    24A     -0.780052
      25A     -0.711735    26A     -0.666155    27A     -0.646621
      28A     -0.641684    29A     -0.613683    30A     -0.612444
      31A     -0.587747    32A     -0.580206    33A     -0.576397
      34A     -0.570389    35A     -0.541906    36A     -0.513705
      37A     -0.508932    38A     -0.496963    39A     -0.482302
      40A     -0.481876    41A     -0.477190    42A     -0.358420
      43A     -0.339215    44A     -0.336363    45A     -0.295099

  @DF-RHF Final Energy:  -499.44957336823825

   => Energetics <=

    Nuclear Repulsion Energy =            687.5287592489330564
    One-Electron Energy =               -2038.5524083320192403
    Two-Electron Energy =                 851.5740757148479361
    Total Energy =                       -499.4495733682382479
  Basis Set: (AUG-CC-PVTZ AUX)
    Blend: AUG-CC-PVTZ-RI
    Molecular point group: c1

    Geometry (in Angstrom), charge = 0, multiplicity = 1:

       Center              X                  Y                   Z               Mass
    ------------   -----------------  -----------------  -----------------  -----------------
         C           -0.304022891328     0.000746172459    -0.001037647240    12.000000000000
         C            1.172996108672    -0.000041827541     0.000434352760    12.000000000000
         C           -3.138455891328     0.005472172459    -0.013360647240    12.000000000000
         C           -1.023233891328    -1.114149827541    -0.458330647240    12.000000000000
         C           -1.023447891328     1.118696172459     0.448344352760    12.000000000000
         C           -2.417239891328    -1.110004827541    -0.458441647240    12.000000000000
         C           -2.397414191328     1.117195072459     0.441450652760    12.000000000000
         C            1.886615108672    -1.121095827541     0.453265352760    12.000000000000
         C            1.889902108672     1.119764172459    -0.450232647240    12.000000000000
         C           -4.644515891328    -0.008030827541     0.020179352760    12.000000000000
         C            3.281631108672    -1.122955827541     0.452636352760    12.000000000000
         C            3.284932108672     1.119173172459    -0.445280647240    12.000000000000
         C            3.985414108672    -0.002462827541     0.004812352760    12.000000000000
         H           -0.483684891328    -1.978240827541    -0.841534647240     1.007825032230
         H           -0.484197891328     1.983948172459     0.829365352760     1.007825032230
         H           -2.955024891328    -1.981665827541    -0.829199647240     1.007825032230
         H           -2.955413891328     1.994482172459     0.798263352760     1.007825032230
         H            1.340967108672    -1.983634827541     0.830680352760     1.007825032230
         H            1.346990108672     1.983136172459    -0.829636647240     1.007825032230
         H           -5.050326891328     0.998842172459    -0.113712647240     1.007825032230
         H           -5.049848891328    -0.645522827541    -0.770834647240     1.007825032230
         H           -5.015774891328    -0.390663827541     0.977381352760     1.007825032230
         H            3.820628108672    -1.996277827541     0.813025352760     1.007825032230
         H            3.826540108672     1.991539172459    -0.804063647240     1.007825032230
         H            5.072764108672    -0.003388827541     0.006481352760     1.007825032230

  Basis Set: AUG-CC-PVTZ
    Blend: AUG-CC-PVTZ
  Basis Set: (AUG-CC-PVTZ AUX)
    Blend: AUG-CC-PVTZ-JKFIT
	 Reference Energy          =    -499.4495733682382479 [Eh]
	 Singles Energy            =      -0.0000000000000000 [Eh]
	 Same-Spin Energy          =      -0.5653909604396831 [Eh]
	 Opposite-Spin Energy      =      -1.7795681031067900 [Eh]
	 Correlation Energy        =      -2.3449590635464732 [Eh]
	 Total Energy              =    -501.7945324317847167 [Eh]

	 ================> DF-SCS-MP2 Energies <==================
	-----------------------------------------------------------
	 SCS Same-Spin Scale       =       0.3333333333333333 [-]
	 SCS Opposite-Spin Scale   =       1.2000000000000000 [-]
	 SCS Same-Spin Energy      =      -0.1884636534798944 [Eh]
	 SCS Opposite-Spin Energy  =      -2.1354817237281480 [Eh]
	 SCS Correlation Energy    =      -2.3239453772080423 [Eh]
	 SCS Total Energy          =    -501.7735187454462675 [Eh]
	-----------------------------------------------------------

  Dipole Moment: [D]
     X:    -0.4983      Y:    -0.0187      Z:     0.0350     Total:     0.4999

*** Psi4 exiting successfully. Buy a developer a beer!
