                               Psi4 1.4a3.dev225

  ==> Input File <==

--------------------------------------------------------------------------
#psi4
#
memory 32 gb

molecule  {
0 1
  C       -0.2663850     0.0008990    -0.0013960
  C        1.2106340     0.0001110     0.0000760
  C       -3.1008180     0.0056250    -0.0137190
  C       -0.9855960    -1.1139970    -0.4586890
  C       -0.9858100     1.1188490     0.4479860
  C       -2.3796020    -1.1098520    -0.4588000
  C       -2.3797760     1.1173260     0.4409920
  C        1.9242530    -1.1209430     0.4529070
  C        1.9275400     1.1199170    -0.4505910
  C       -4.6068780    -0.0078780     0.0198210
  C        3.3192690    -1.1228030     0.4522780
  C        3.3225700     1.1193260    -0.4456390
  C        3.9979792     0.0378374    -0.0116564
  H       -0.4460470    -1.9780880    -0.8418930
  H       -0.4465600     1.9841010     0.8290070
  H       -2.9173870    -1.9815130    -0.8295580
  H       -2.9177760     1.9946350     0.7979050
  H        1.3786050    -1.9834820     0.8303220
  H        1.3846280     1.9832890    -0.8299950
  H       -5.0126890     0.9989950    -0.1140710
  H       -5.0122110    -0.6453700    -0.7711930
  H       -4.9781370    -0.3905110     0.9770230
  H        3.8582660    -1.9961250     0.8126670
  H        3.8641780     1.9916920    -0.8044220
  H        5.1104020    -0.0032360     0.0061230
units angstrom
no_reorient  #important for SAPT in psi4, default
symmetry c1  #important for SAPT in psi4, default
}

set PROPERTIES_ORIGIN ["COM"]
properties('MP2/aug-cc-pvtz', properties = ['dipole'])
--------------------------------------------------------------------------

    Molecular point group: c1
  Charge       = 0
  Multiplicity = 1
  Basis Set: AUG-CC-PVTZ
    Blend: AUG-CC-PVTZ
  Basis Set: (AUG-CC-PVTZ AUX)
    Blend: AUG-CC-PVTZ-JKFIT

    Orbital Energies [Eh]
    ---------------------

    Doubly Occupied:

       1A    -11.244433     2A    -11.242429     3A    -11.241087
       4A    -11.239300     5A    -11.235153     6A    -11.234994
       7A    -11.234623     8A    -11.234512     9A    -11.233939
      10A    -11.231975    11A    -11.231899    12A    -11.230506
      13A    -11.225406    14A     -1.168854    15A     -1.142955
      16A     -1.066285    17A     -1.018170    18A     -1.010069
      19A     -1.002955    20A     -0.928565    21A     -0.841970
      22A     -0.831353    23A     -0.812104    24A     -0.779017
      25A     -0.712149    26A     -0.662762    27A     -0.646364
      28A     -0.642026    29A     -0.615203    30A     -0.614285
      31A     -0.589029    32A     -0.580975    33A     -0.576022
      34A     -0.567868    35A     -0.541351    36A     -0.511750
      37A     -0.508765    38A     -0.498401    39A     -0.482720
      40A     -0.481031    41A     -0.476703    42A     -0.360983
      43A     -0.337558    44A     -0.335826    45A     -0.296242

  @DF-RHF Final Energy:  -499.44696280856249

   => Energetics <=

    Nuclear Repulsion Energy =            687.8573261861300807
    One-Electron Energy =               -2039.2074473068378211
    Two-Electron Energy =                 851.9031583121451376
    Total Energy =                       -499.4469628085624890
  Basis Set: (AUG-CC-PVTZ AUX)
    Blend: AUG-CC-PVTZ-RI
    Molecular point group: c1

    Geometry (in Angstrom), charge = 0, multiplicity = 1:

       Center              X                  Y                   Z               Mass
    ------------   -----------------  -----------------  -----------------  -----------------
         C           -0.300805225495    -0.002118333623     0.000119613074    12.000000000000
         C            1.176213774505    -0.002906333623     0.001591613074    12.000000000000
         C           -3.135238225495     0.002607666377    -0.012203386926    12.000000000000
         C           -1.020016225495    -1.117014333623    -0.457173386926    12.000000000000
         C           -1.020230225495     1.115831666377     0.449501613074    12.000000000000
         C           -2.414022225495    -1.112869333623    -0.457284386926    12.000000000000
         C           -2.414196225495     1.114308666377     0.442507613074    12.000000000000
         C            1.889832774505    -1.123960333623     0.454422613074    12.000000000000
         C            1.893119774505     1.116899666377    -0.449075386926    12.000000000000
         C           -4.641298225495    -0.010895333623     0.021336613074    12.000000000000
         C            3.284848774505    -1.125820333623     0.453793613074    12.000000000000
         C            3.288149774505     1.116308666377    -0.444123386926    12.000000000000
         C            3.963558974505     0.034820066377    -0.010140786926    12.000000000000
         H           -0.480467225495    -1.981105333623    -0.840377386926     1.007825032230
         H           -0.480980225495     1.981083666377     0.830522613074     1.007825032230
         H           -2.951807225495    -1.984530333623    -0.828042386926     1.007825032230
         H           -2.952196225495     1.991617666377     0.799420613074     1.007825032230
         H            1.344184774505    -1.986499333623     0.831837613074     1.007825032230
         H            1.350207774505     1.980271666377    -0.828479386926     1.007825032230
         H           -5.047109225495     0.995977666377    -0.112555386926     1.007825032230
         H           -5.046631225495    -0.648387333623    -0.769677386926     1.007825032230
         H           -5.012557225495    -0.393528333623     0.978538613074     1.007825032230
         H            3.823845774505    -1.999142333623     0.814182613074     1.007825032230
         H            3.829757774505     1.988674666377    -0.802906386926     1.007825032230
         H            5.075981774505    -0.006253333623     0.007638613074     1.007825032230

  Basis Set: AUG-CC-PVTZ
    Blend: AUG-CC-PVTZ
  Basis Set: (AUG-CC-PVTZ AUX)
    Blend: AUG-CC-PVTZ-JKFIT
	 Reference Energy          =    -499.4469628085624890 [Eh]
	 Singles Energy            =      -0.0000000000000000 [Eh]
	 Same-Spin Energy          =      -0.5653650960712655 [Eh]
	 Opposite-Spin Energy      =      -1.7796406834339882 [Eh]
	 Correlation Energy        =      -2.3450057795052537 [Eh]
	 Total Energy              =    -501.7919685880677321 [Eh]

	 ================> DF-SCS-MP2 Energies <==================
	-----------------------------------------------------------
	 SCS Same-Spin Scale       =       0.3333333333333333 [-]
	 SCS Opposite-Spin Scale   =       1.2000000000000000 [-]
	 SCS Same-Spin Energy      =      -0.1884550320237552 [Eh]
	 SCS Opposite-Spin Energy  =      -2.1355688201207856 [Eh]
	 SCS Correlation Energy    =      -2.3240238521445407 [Eh]
	 SCS Total Energy          =    -501.7709866607070239 [Eh]
	-----------------------------------------------------------

  Dipole Moment: [D]
     X:    -0.4871      Y:    -0.0229      Z:     0.0397     Total:     0.4893

*** Psi4 exiting successfully. Buy a developer a beer!
