                               Psi4 1.4a3.dev225

  ==> Input File <==

--------------------------------------------------------------------------
#psi4
#
memory 32 gb

molecule  {
0 1
  C       -0.3521628     0.0435381     0.0190655
  C        1.2106340     0.0001110     0.0000760
  C       -3.1008180     0.0056250    -0.0137190
  C       -0.9855960    -1.1139970    -0.4586890
  C       -0.9858100     1.1188490     0.4479860
  C       -2.3796020    -1.1098520    -0.4588000
  C       -2.3797760     1.1173260     0.4409920
  C        1.9242530    -1.1209430     0.4529070
  C        1.9275400     1.1199170    -0.4505910
  C       -4.6068780    -0.0078780     0.0198210
  C        3.3192690    -1.1228030     0.4522780
  C        3.3225700     1.1193260    -0.4456390
  C        4.0230520    -0.0023100     0.0044540
  H       -0.4460470    -1.9780880    -0.8418930
  H       -0.4465600     1.9841010     0.8290070
  H       -2.9173870    -1.9815130    -0.8295580
  H       -2.9177760     1.9946350     0.7979050
  H        1.3786050    -1.9834820     0.8303220
  H        1.3846280     1.9832890    -0.8299950
  H       -5.0126890     0.9989950    -0.1140710
  H       -5.0122110    -0.6453700    -0.7711930
  H       -4.9781370    -0.3905110     0.9770230
  H        3.8582660    -1.9961250     0.8126670
  H        3.8641780     1.9916920    -0.8044220
  H        5.1104020    -0.0032360     0.0061230
units angstrom
no_reorient  #important for SAPT in psi4, default
symmetry c1  #important for SAPT in psi4, default
}

set PROPERTIES_ORIGIN ["COM"]
properties('MP2/aug-cc-pvtz', properties = ['dipole'])
--------------------------------------------------------------------------

    Molecular point group: c1
  Charge       = 0
  Multiplicity = 1
  Basis Set: AUG-CC-PVTZ
    Blend: AUG-CC-PVTZ
  Basis Set: (AUG-CC-PVTZ AUX)
    Blend: AUG-CC-PVTZ-JKFIT

    Orbital Energies [Eh]
    ---------------------

    Doubly Occupied:

       1A    -11.247438     2A    -11.241534     3A    -11.238070
       4A    -11.236190     5A    -11.235646     6A    -11.235503
       7A    -11.233439     8A    -11.232871     9A    -11.232869
      10A    -11.232502    11A    -11.232267    12A    -11.225334
      13A    -11.225319    14A     -1.170809    15A     -1.142675
      16A     -1.062820    17A     -1.019599    18A     -1.009862
      19A     -1.002941    20A     -0.928527    21A     -0.842413
      22A     -0.824982    23A     -0.813469    24A     -0.781291
      25A     -0.709541    26A     -0.665227    27A     -0.647223
      28A     -0.639449    29A     -0.614647    30A     -0.612859
      31A     -0.593129    32A     -0.582075    33A     -0.576293
      34A     -0.562794    35A     -0.541802    36A     -0.512668
      37A     -0.509422    38A     -0.498314    39A     -0.488485
      40A     -0.484749    41A     -0.462049    42A     -0.356471
      43A     -0.338441    44A     -0.335195    45A     -0.302918

  @DF-RHF Final Energy:  -499.44029266482113

   => Energetics <=

    Nuclear Repulsion Energy =            687.5278998012717011
    One-Electron Energy =               -2038.5721393910184815
    Two-Electron Energy =                 851.6039469249255944
    Total Energy =                       -499.4402926648210723
  Basis Set: (AUG-CC-PVTZ AUX)
    Blend: AUG-CC-PVTZ-RI
    Molecular point group: c1

    Geometry (in Angstrom), charge = 0, multiplicity = 1:

       Center              X                  Y                   Z               Mass
    ------------   -----------------  -----------------  -----------------  -----------------
         C           -0.382249376277     0.040342887228     0.017970293770    12.000000000000
         C            1.180547423723    -0.003084212772    -0.001019206230    12.000000000000
         C           -3.130904576277     0.002429787228    -0.014814206230    12.000000000000
         C           -1.015682576277    -1.117192212772    -0.459784206230    12.000000000000
         C           -1.015896576277     1.115653787228     0.446890793770    12.000000000000
         C           -2.409688576277    -1.113047212772    -0.459895206230    12.000000000000
         C           -2.409862576277     1.114130787228     0.439896793770    12.000000000000
         C            1.894166423723    -1.124138212772     0.451811793770    12.000000000000
         C            1.897453423723     1.116721787228    -0.451686206230    12.000000000000
         C           -4.636964576277    -0.011073212772     0.018725793770    12.000000000000
         C            3.289182423723    -1.125998212772     0.451182793770    12.000000000000
         C            3.292483423723     1.116130787228    -0.446734206230    12.000000000000
         C            3.992965423723    -0.005505212772     0.003358793770    12.000000000000
         H           -0.476133576277    -1.981283212772    -0.842988206230     1.007825032230
         H           -0.476646576277     1.980905787228     0.827911793770     1.007825032230
         H           -2.947473576277    -1.984708212772    -0.830653206230     1.007825032230
         H           -2.947862576277     1.991439787228     0.796809793770     1.007825032230
         H            1.348518423723    -1.986677212772     0.829226793770     1.007825032230
         H            1.354541423723     1.980093787228    -0.831090206230     1.007825032230
         H           -5.042775576277     0.995799787228    -0.115166206230     1.007825032230
         H           -5.042297576277    -0.648565212772    -0.772288206230     1.007825032230
         H           -5.008223576277    -0.393706212772     0.975927793770     1.007825032230
         H            3.828179423723    -1.999320212772     0.811571793770     1.007825032230
         H            3.834091423723     1.988496787228    -0.805517206230     1.007825032230
         H            5.080315423723    -0.006431212772     0.005027793770     1.007825032230

  Basis Set: AUG-CC-PVTZ
    Blend: AUG-CC-PVTZ
  Basis Set: (AUG-CC-PVTZ AUX)
    Blend: AUG-CC-PVTZ-JKFIT
	 Reference Energy          =    -499.4402926648211292 [Eh]
	 Singles Energy            =      -0.0000000000000000 [Eh]
	 Same-Spin Energy          =      -0.5646144458668131 [Eh]
	 Opposite-Spin Energy      =      -1.7786666655008405 [Eh]
	 Correlation Energy        =      -2.3432811113676535 [Eh]
	 Total Energy              =    -501.7835737761888026 [Eh]

	 ================> DF-SCS-MP2 Energies <==================
	-----------------------------------------------------------
	 SCS Same-Spin Scale       =       0.3333333333333333 [-]
	 SCS Opposite-Spin Scale   =       1.2000000000000000 [-]
	 SCS Same-Spin Energy      =      -0.1882048152889377 [Eh]
	 SCS Opposite-Spin Energy  =      -2.1343999986010087 [Eh]
	 SCS Correlation Energy    =      -2.3226048138899462 [Eh]
	 SCS Total Energy          =    -501.7628974787110678 [Eh]
	-----------------------------------------------------------

  Dipole Moment: [D]
     X:    -0.6004      Y:    -0.0207      Z:     0.0384     Total:     0.6020

*** Psi4 exiting successfully. Buy a developer a beer!
