                               Psi4 1.4a3.dev225

  ==> Input File <==

--------------------------------------------------------------------------
#psi4
#
memory 32 gb

molecule  {
0 1
  C       -0.2663850     0.0008990    -0.0013960
  C        1.2106340     0.0001110     0.0000760
  C       -3.1008180     0.0056250    -0.0137190
  C       -0.9855960    -1.1139970    -0.4586890
  C       -0.9858100     1.1188490     0.4479860
  C       -2.3796020    -1.1098520    -0.4588000
  C       -2.3797760     1.1173260     0.4409920
  C        1.9242530    -1.1209430     0.4529070
  C        1.9275400     1.1199170    -0.4505910
  C       -4.6068780    -0.0078780     0.0198210
  C        3.3192690    -1.1228030     0.4522780
  C        3.3225700     1.1193260    -0.4456390
  C        4.0230520    -0.0023100     0.0044540
  H       -0.4460470    -1.9780880    -0.8418930
  H       -0.4465600     1.9841010     0.8290070
  H       -2.9173870    -1.9815130    -0.8295580
  H       -2.9177760     1.9946350     0.7979050
  H        1.3786050    -1.9834820     0.8303220
  H        1.3846280     1.9832890    -0.8299950
  H       -5.0126890     0.9989950    -0.1140710
  H       -5.0122110    -0.6453700    -0.7711930
  H       -4.9781370    -0.3905110     0.9770230
  H        3.8582660    -1.9961250     0.8126670
  H        3.8641780     1.9916920    -0.8044220
  H        5.1104020    -0.0032360     0.0061230
units angstrom
no_reorient  #important for SAPT in psi4, default
symmetry c1  #important for SAPT in psi4, default
}

set PROPERTIES_ORIGIN ["COM"]
properties('MP2/aug-cc-pvtz', properties = ['dipole'])
--------------------------------------------------------------------------

    Molecular point group: c1
  Charge       = 0
  Multiplicity = 1
  Basis Set: AUG-CC-PVTZ
    Blend: AUG-CC-PVTZ
  Basis Set: (AUG-CC-PVTZ AUX)
    Blend: AUG-CC-PVTZ-JKFIT

    Orbital Energies [Eh]
    ---------------------

    Doubly Occupied:

       1A    -11.244939     2A    -11.242588     3A    -11.241201
       4A    -11.237156     5A    -11.236908     6A    -11.235306
       7A    -11.235174     8A    -11.234511     9A    -11.234331
      10A    -11.234109    11A    -11.232087    12A    -11.232011
      13A    -11.225499    14A     -1.168026    15A     -1.141312
      16A     -1.065258    17A     -1.016824    18A     -1.008695
      19A     -1.004167    20A     -0.928859    21A     -0.840768
      22A     -0.832888    23A     -0.811491    24A     -0.779512
      25A     -0.711836    26A     -0.666104    27A     -0.645949
      28A     -0.642046    29A     -0.613757    30A     -0.613449
      31A     -0.587717    32A     -0.580115    33A     -0.576299
      34A     -0.570958    35A     -0.541337    36A     -0.512689
      37A     -0.508657    38A     -0.497925    39A     -0.481920
      40A     -0.480742    41A     -0.479175    42A     -0.359066
      43A     -0.337493    44A     -0.335792    45A     -0.296095

  @DF-RHF Final Energy:  -499.45003522798675

   => Energetics <=

    Nuclear Repulsion Energy =            687.3355637096332202
    One-Electron Energy =               -2038.1657177567872168
    Two-Electron Energy =                 851.3801188191671372
    Total Energy =                       -499.4500352279867457
  Basis Set: (AUG-CC-PVTZ AUX)
    Blend: AUG-CC-PVTZ-RI
    Molecular point group: c1

    Geometry (in Angstrom), charge = 0, multiplicity = 1:

       Center              X                  Y                   Z               Mass
    ------------   -----------------  -----------------  -----------------  -----------------
         C           -0.302595139343     0.000747735871    -0.001030486956    12.000000000000
         C            1.174423860657    -0.000040264129     0.000441513044    12.000000000000
         C           -3.137028139343     0.005473735871    -0.013353486956    12.000000000000
         C           -1.021806139343    -1.114148264129    -0.458323486956    12.000000000000
         C           -1.022020139343     1.118697735871     0.448351513044    12.000000000000
         C           -2.415812139343    -1.110003264129    -0.458434486956    12.000000000000
         C           -2.415986139343     1.117174735871     0.441357513044    12.000000000000
         C            1.888042860657    -1.121094264129     0.453272513044    12.000000000000
         C            1.891329860657     1.119765735871    -0.450225486956    12.000000000000
         C           -4.643088139343    -0.008029264129     0.020186513044    12.000000000000
         C            3.283058860657    -1.122954264129     0.452643513044    12.000000000000
         C            3.286359860657     1.119174735871    -0.445273486956    12.000000000000
         C            3.986841860657    -0.002461264129     0.004819513044    12.000000000000
         H           -0.482257139343    -1.978239264129    -0.841527486956     1.007825032230
         H           -0.482770139343     1.983949735871     0.829372513044     1.007825032230
         H           -2.953597139343    -1.981664264129    -0.829192486956     1.007825032230
         H           -2.953986139343     1.994483735871     0.798270513044     1.007825032230
         H            1.342394860657    -1.983633264129     0.830687513044     1.007825032230
         H            1.348417860657     1.983137735871    -0.829629486956     1.007825032230
         H           -5.048899139343     0.998843735871    -0.113705486956     1.007825032230
         H           -5.048421139343    -0.645521264129    -0.770827486956     1.007825032230
         H           -5.014347139343    -0.390662264129     0.977388513044     1.007825032230
         H            3.822055860657    -1.996276264129     0.813032513044     1.007825032230
         H            3.827967860657     1.991540735871    -0.804056486956     1.007825032230
         H            5.074191860657    -0.003387264129     0.006488513044     1.007825032230

  Basis Set: AUG-CC-PVTZ
    Blend: AUG-CC-PVTZ
  Basis Set: (AUG-CC-PVTZ AUX)
    Blend: AUG-CC-PVTZ-JKFIT
	 Reference Energy          =    -499.4500352279867457 [Eh]
	 Singles Energy            =      -0.0000000000000000 [Eh]
	 Same-Spin Energy          =      -0.5653769574225778 [Eh]
	 Opposite-Spin Energy      =      -1.7796062260371086 [Eh]
	 Correlation Energy        =      -2.3449831834596866 [Eh]
	 Total Energy              =    -501.7950184114464491 [Eh]

	 ================> DF-SCS-MP2 Energies <==================
	-----------------------------------------------------------
	 SCS Same-Spin Scale       =       0.3333333333333333 [-]
	 SCS Opposite-Spin Scale   =       1.2000000000000000 [-]
	 SCS Same-Spin Energy      =      -0.1884589858075259 [Eh]
	 SCS Opposite-Spin Energy  =      -2.1355274712445302 [Eh]
	 SCS Correlation Energy    =      -2.3239864570520563 [Eh]
	 SCS Total Energy          =    -501.7740216850388038 [Eh]
	-----------------------------------------------------------

  Dipole Moment: [D]
     X:    -0.4847      Y:    -0.0138      Z:     0.0368     Total:     0.4862

*** Psi4 exiting successfully. Buy a developer a beer!
