                               Psi4 1.4a3.dev225

  ==> Input File <==

--------------------------------------------------------------------------
#psi4
#
memory 32 gb

molecule  {
0 1
  C       -0.2663850     0.0008990    -0.0013960
  C        1.2106340     0.0001110     0.0000760
  C       -3.1008180     0.0056250    -0.0137190
  C       -0.9855960    -1.1139970    -0.4586890
  C       -0.9858100     1.1188490     0.4479860
  C       -2.3796020    -1.1098520    -0.4588000
  C       -2.3797760     1.1173260     0.4409920
  C        1.9242530    -1.1209430     0.4529070
  C        1.9275400     1.1199170    -0.4505910
  C       -4.6068780    -0.0078780     0.0198210
  C        3.3192690    -1.1228030     0.4522780
  C        3.3225700     1.1193260    -0.4456390
  C        4.0440028    -0.0137842     0.0093337
  H       -0.4460470    -1.9780880    -0.8418930
  H       -0.4465600     1.9841010     0.8290070
  H       -2.9173870    -1.9815130    -0.8295580
  H       -2.9177760     1.9946350     0.7979050
  H        1.3786050    -1.9834820     0.8303220
  H        1.3846280     1.9832890    -0.8299950
  H       -5.0126890     0.9989950    -0.1140710
  H       -5.0122110    -0.6453700    -0.7711930
  H       -4.9781370    -0.3905110     0.9770230
  H        3.8582660    -1.9961250     0.8126670
  H        3.8641780     1.9916920    -0.8044220
  H        5.1104020    -0.0032360     0.0061230
units angstrom
no_reorient  #important for SAPT in psi4, default
symmetry c1  #important for SAPT in psi4, default
}

set PROPERTIES_ORIGIN ["COM"]
properties('MP2/aug-cc-pvtz', properties = ['dipole'])
--------------------------------------------------------------------------

    Molecular point group: c1
  Charge       = 0
  Multiplicity = 1
  Basis Set: AUG-CC-PVTZ
    Blend: AUG-CC-PVTZ
  Basis Set: (AUG-CC-PVTZ AUX)
    Blend: AUG-CC-PVTZ-JKFIT

    Orbital Energies [Eh]
    ---------------------

    Doubly Occupied:

       1A    -11.245418     2A    -11.242742     3A    -11.241317
       4A    -11.239323     5A    -11.237269     6A    -11.235472
       7A    -11.235331     8A    -11.234951     9A    -11.234344
      10A    -11.234193    11A    -11.232201    12A    -11.232115
      13A    -11.225590    14A     -1.167539    15A     -1.140120
      16A     -1.064728    17A     -1.016398    18A     -1.008358
      19A     -1.003806    20A     -0.929183    21A     -0.840229
      22A     -0.834040    23A     -0.810664    24A     -0.779921
      25A     -0.711627    26A     -0.669243    27A     -0.645709
      28A     -0.642025    29A     -0.613243    30A     -0.612471
      31A     -0.587044    32A     -0.579519    33A     -0.576610
      34A     -0.572839    35A     -0.541348    36A     -0.515654
      37A     -0.507787    38A     -0.496128    39A     -0.481987
      40A     -0.481241    41A     -0.478287    42A     -0.358305
      43A     -0.337395    44A     -0.335654    45A     -0.295826

  @DF-RHF Final Energy:  -499.44907008511984

   => Energetics <=

    Nuclear Repulsion Energy =            686.9166899719779167
    One-Electron Energy =               -2037.3211280356654242
    Two-Electron Energy =                 850.9553679785675513
    Total Energy =                       -499.4490700851198426
  Basis Set: (AUG-CC-PVTZ AUX)
    Blend: AUG-CC-PVTZ-RI
    Molecular point group: c1

    Geometry (in Angstrom), charge = 0, multiplicity = 1:

       Center              X                  Y                   Z               Mass
    ------------   -----------------  -----------------  -----------------  -----------------
         C           -0.304090789092     0.001566863749    -0.001378842250    12.000000000000
         C            1.172928210908     0.000778863749     0.000093157750    12.000000000000
         C           -3.138523789092     0.006292863749    -0.013701842250    12.000000000000
         C           -1.023301789092    -1.113329136251    -0.458671842250    12.000000000000
         C           -1.023515789092     1.119516863749     0.448003157750    12.000000000000
         C           -2.417307789092    -1.109184136251    -0.458782842250    12.000000000000
         C           -2.417481789092     1.117993863749     0.441009157750    12.000000000000
         C            1.886547210908    -1.120275136251     0.452924157750    12.000000000000
         C            1.889834210908     1.120584863749    -0.450573842250    12.000000000000
         C           -4.644583789092    -0.007210136251     0.019838157750    12.000000000000
         C            3.281563210908    -1.122135136251     0.452295157750    12.000000000000
         C            3.284864210908     1.119993863749    -0.445621842250    12.000000000000
         C            4.006297010908    -0.013116336251     0.009350857750    12.000000000000
         H           -0.483752789092    -1.977420136251    -0.841875842250     1.007825032230
         H           -0.484265789092     1.984768863749     0.829024157750     1.007825032230
         H           -2.955092789092    -1.980845136251    -0.829540842250     1.007825032230
         H           -2.955481789092     1.995302863749     0.797922157750     1.007825032230
         H            1.340899210908    -1.982814136251     0.830339157750     1.007825032230
         H            1.346922210908     1.983956863749    -0.829977842250     1.007825032230
         H           -5.050394789092     0.999662863749    -0.114053842250     1.007825032230
         H           -5.049916789092    -0.644702136251    -0.771175842250     1.007825032230
         H           -5.015842789092    -0.389843136251     0.977040157750     1.007825032230
         H            3.820560210908    -1.995457136251     0.812684157750     1.007825032230
         H            3.826472210908     1.992359863749    -0.804404842250     1.007825032230
         H            5.072696210908    -0.002568136251     0.006140157750     1.007825032230

  Basis Set: AUG-CC-PVTZ
    Blend: AUG-CC-PVTZ
  Basis Set: (AUG-CC-PVTZ AUX)
    Blend: AUG-CC-PVTZ-JKFIT
	 Reference Energy          =    -499.4490700851198426 [Eh]
	 Singles Energy            =      -0.0000000000000000 [Eh]
	 Same-Spin Energy          =      -0.5653567480391307 [Eh]
	 Opposite-Spin Energy      =      -1.7797310712057102 [Eh]
	 Correlation Energy        =      -2.3450878192448408 [Eh]
	 Total Energy              =    -501.7941579043646811 [Eh]

	 ================> DF-SCS-MP2 Energies <==================
	-----------------------------------------------------------
	 SCS Same-Spin Scale       =       0.3333333333333333 [-]
	 SCS Opposite-Spin Scale   =       1.2000000000000000 [-]
	 SCS Same-Spin Energy      =      -0.1884522493463769 [Eh]
	 SCS Opposite-Spin Energy  =      -2.1356772854468522 [Eh]
	 SCS Correlation Energy    =      -2.3241295347932289 [Eh]
	 SCS Total Energy          =    -501.7731996199130435 [Eh]
	-----------------------------------------------------------

  Dipole Moment: [D]
     X:    -0.4864      Y:    -0.0114      Z:     0.0358     Total:     0.4879

*** Psi4 exiting successfully. Buy a developer a beer!
