                               Psi4 1.4a3.dev225

  ==> Input File <==

--------------------------------------------------------------------------
#psi4
#
memory 32 gb

molecule  {
0 1
  C       -0.2663850     0.0008990    -0.0013960
  C        1.2106340     0.0001110     0.0000760
  C       -3.1008180     0.0056250    -0.0137190
  C       -0.9855960    -1.1139970    -0.4586890
  C       -0.9858100     1.1188490     0.4479860
  C       -2.3796020    -1.1098520    -0.4588000
  C       -2.3797760     1.1173260     0.4409920
  C        1.9242530    -1.1209430     0.4529070
  C        1.9275400     1.1199170    -0.4505910
  C       -4.6068780    -0.0078780     0.0198210
  C        3.3192690    -1.1228030     0.4522780
  C        3.3225700     1.1193260    -0.4456390
  C        4.0230520    -0.0023100     0.0044540
  H       -0.4460470    -1.9780880    -0.8418930
  H       -0.4465600     1.9841010     0.8290070
  H       -2.9173870    -1.9815130    -0.8295580
  H       -2.9177760     1.9946350     0.7979050
  H        1.3786050    -1.9834820     0.8303220
  H        1.4095741     1.9436181    -0.8125619
  H       -5.0126890     0.9989950    -0.1140710
  H       -5.0122110    -0.6453700    -0.7711930
  H       -4.9781370    -0.3905110     0.9770230
  H        3.8582660    -1.9961250     0.8126670
  H        3.8641780     1.9916920    -0.8044220
  H        5.1104020    -0.0032360     0.0061230
units angstrom
no_reorient  #important for SAPT in psi4, default
symmetry c1  #important for SAPT in psi4, default
}

set PROPERTIES_ORIGIN ["COM"]
properties('MP2/aug-cc-pvtz', properties = ['dipole'])
--------------------------------------------------------------------------

    Molecular point group: c1
  Charge       = 0
  Multiplicity = 1
  Basis Set: AUG-CC-PVTZ
    Blend: AUG-CC-PVTZ
  Basis Set: (AUG-CC-PVTZ AUX)
    Blend: AUG-CC-PVTZ-JKFIT

    Orbital Energies [Eh]
    ---------------------

    Doubly Occupied:

       1A    -11.244463     2A    -11.242634     3A    -11.241219
       4A    -11.236888     5A    -11.236480     6A    -11.235383
       7A    -11.235219     8A    -11.234110     9A    -11.233842
      10A    -11.232166    11A    -11.232078    12A    -11.228512
      13A    -11.225536    14A     -1.168136    15A     -1.141344
      16A     -1.065220    17A     -1.017722    18A     -1.009237
      19A     -1.004267    20A     -0.929056    21A     -0.841902
      22A     -0.833336    23A     -0.812965    24A     -0.779724
      25A     -0.713453    26A     -0.668777    27A     -0.645943
      28A     -0.642689    29A     -0.615358    30A     -0.613251
      31A     -0.589426    32A     -0.580739    33A     -0.576539
      34A     -0.571138    35A     -0.541378    36A     -0.513281
      37A     -0.508738    38A     -0.498943    39A     -0.481871
      40A     -0.480870    41A     -0.479583    42A     -0.358926
      43A     -0.337427    44A     -0.335709    45A     -0.295997

  @DF-RHF Final Energy:  -499.44934649301115

   => Energetics <=

    Nuclear Repulsion Energy =            687.5842640334749376
    One-Electron Energy =               -2038.6442673447502330
    Two-Electron Energy =                 851.6106568182641468
    Total Energy =                       -499.4493464930111486
  Basis Set: (AUG-CC-PVTZ AUX)
    Blend: AUG-CC-PVTZ-RI
    Molecular point group: c1

    Geometry (in Angstrom), charge = 0, multiplicity = 1:

       Center              X                  Y                   Z               Mass
    ------------   -----------------  -----------------  -----------------  -----------------
         C           -0.302744706364     0.000985587012    -0.001135008980    12.000000000000
         C            1.174274293636     0.000197587012     0.000336991020    12.000000000000
         C           -3.137177706364     0.005711587012    -0.013458008980    12.000000000000
         C           -1.021955706364    -1.113910412988    -0.458428008980    12.000000000000
         C           -1.022169706364     1.118935587012     0.448246991020    12.000000000000
         C           -2.415961706364    -1.109765412988    -0.458539008980    12.000000000000
         C           -2.416135706364     1.117412587012     0.441252991020    12.000000000000
         C            1.887893293636    -1.120856412988     0.453167991020    12.000000000000
         C            1.891180293636     1.120003587012    -0.450330008980    12.000000000000
         C           -4.643237706364    -0.007791412988     0.020081991020    12.000000000000
         C            3.282909293636    -1.122716412988     0.452538991020    12.000000000000
         C            3.286210293636     1.119412587012    -0.445378008980    12.000000000000
         C            3.986692293636    -0.002223412988     0.004714991020    12.000000000000
         H           -0.482406706364    -1.978001412988    -0.841632008980     1.007825032230
         H           -0.482919706364     1.984187587012     0.829267991020     1.007825032230
         H           -2.953746706364    -1.981426412988    -0.829297008980     1.007825032230
         H           -2.954135706364     1.994721587012     0.798165991020     1.007825032230
         H            1.342245293636    -1.983395412988     0.830582991020     1.007825032230
         H            1.373214393636     1.943704687012    -0.812300908980     1.007825032230
         H           -5.049048706364     0.999081587012    -0.113810008980     1.007825032230
         H           -5.048570706364    -0.645283412988    -0.770932008980     1.007825032230
         H           -5.014496706364    -0.390424412988     0.977283991020     1.007825032230
         H            3.821906293636    -1.996038412988     0.812927991020     1.007825032230
         H            3.827818293636     1.991778587012    -0.804161008980     1.007825032230
         H            5.074042293636    -0.003149412988     0.006383991020     1.007825032230

  Basis Set: AUG-CC-PVTZ
    Blend: AUG-CC-PVTZ
  Basis Set: (AUG-CC-PVTZ AUX)
    Blend: AUG-CC-PVTZ-JKFIT
	 Reference Energy          =    -499.4493464930111486 [Eh]
	 Singles Energy            =      -0.0000000000000000 [Eh]
	 Same-Spin Energy          =      -0.5652457203149388 [Eh]
	 Opposite-Spin Energy      =      -1.7792469484982512 [Eh]
	 Correlation Energy        =      -2.3444926688131900 [Eh]
	 Total Energy              =    -501.7938391618243372 [Eh]

	 ================> DF-SCS-MP2 Energies <==================
	-----------------------------------------------------------
	 SCS Same-Spin Scale       =       0.3333333333333333 [-]
	 SCS Opposite-Spin Scale   =       1.2000000000000000 [-]
	 SCS Same-Spin Energy      =      -0.1884152401049796 [Eh]
	 SCS Opposite-Spin Energy  =      -2.1350963381979011 [Eh]
	 SCS Correlation Energy    =      -2.3235115783028806 [Eh]
	 SCS Total Energy          =    -501.7728580713140332 [Eh]
	-----------------------------------------------------------

  Dipole Moment: [D]
     X:    -0.4940      Y:    -0.0041      Z:     0.0321     Total:     0.4951

*** Psi4 exiting successfully. Buy a developer a beer!
