                               Psi4 1.4a3.dev225

  ==> Input File <==

--------------------------------------------------------------------------
#psi4
#
memory 32 gb

molecule  {
0 1
  C       -0.2663850     0.0008990    -0.0013960
  C        1.2106340     0.0001110     0.0000760
  C       -3.1008180     0.0056250    -0.0137190
  C       -0.9855960    -1.1139970    -0.4586890
  C       -1.0114428     1.1586811     0.4639973
  C       -2.3796020    -1.1098520    -0.4588000
  C       -2.3797760     1.1173260     0.4409920
  C        1.9242530    -1.1209430     0.4529070
  C        1.9275400     1.1199170    -0.4505910
  C       -4.6068780    -0.0078780     0.0198210
  C        3.3192690    -1.1228030     0.4522780
  C        3.3225700     1.1193260    -0.4456390
  C        4.0230520    -0.0023100     0.0044540
  H       -0.4460470    -1.9780880    -0.8418930
  H       -0.4465600     1.9841010     0.8290070
  H       -2.9173870    -1.9815130    -0.8295580
  H       -2.9177760     1.9946350     0.7979050
  H        1.3786050    -1.9834820     0.8303220
  H        1.3846280     1.9832890    -0.8299950
  H       -5.0126890     0.9989950    -0.1140710
  H       -5.0122110    -0.6453700    -0.7711930
  H       -4.9781370    -0.3905110     0.9770230
  H        3.8582660    -1.9961250     0.8126670
  H        3.8641780     1.9916920    -0.8044220
  H        5.1104020    -0.0032360     0.0061230
units angstrom
no_reorient  #important for SAPT in psi4, default
symmetry c1  #important for SAPT in psi4, default
}

set PROPERTIES_ORIGIN ["COM"]
properties('MP2/aug-cc-pvtz', properties = ['dipole'])
--------------------------------------------------------------------------

    Molecular point group: c1
  Charge       = 0
  Multiplicity = 1
  Basis Set: AUG-CC-PVTZ
    Blend: AUG-CC-PVTZ
  Basis Set: (AUG-CC-PVTZ AUX)
    Blend: AUG-CC-PVTZ-JKFIT

    Orbital Energies [Eh]
    ---------------------

    Doubly Occupied:

       1A    -11.246047     2A    -11.245020     3A    -11.242643
       4A    -11.237289     5A    -11.237037     6A    -11.235905
       7A    -11.234686     8A    -11.234658     9A    -11.234477
      10A    -11.234239    11A    -11.232069    12A    -11.230185
      13A    -11.225564    14A     -1.166021    15A     -1.141115
      16A     -1.062736    17A     -1.018802    18A     -1.010693
      19A     -1.003702    20A     -0.926894    21A     -0.839508
      22A     -0.834124    23A     -0.811095    24A     -0.779773
      25A     -0.710900    26A     -0.666345    27A     -0.648152
      28A     -0.643595    29A     -0.614708    30A     -0.611771
      31A     -0.589010    32A     -0.582099    33A     -0.576407
      34A     -0.568623    35A     -0.539954    36A     -0.514329
      37A     -0.507886    38A     -0.498164    39A     -0.484270
      40A     -0.480332    41A     -0.474612    42A     -0.358299
      43A     -0.340188    44A     -0.336631    45A     -0.292667

  @DF-RHF Final Energy:  -499.44676453217653

   => Energetics <=

    Nuclear Repulsion Energy =            686.6531390151650385
    One-Electron Energy =               -2036.7933561412182826
    Two-Electron Energy =                 850.6934525938768275
    Total Energy =                       -499.4467645321765303
  Basis Set: (AUG-CC-PVTZ AUX)
    Blend: AUG-CC-PVTZ-RI
    Molecular point group: c1

    Geometry (in Angstrom), charge = 0, multiplicity = 1:

       Center              X                  Y                   Z               Mass
    ------------   -----------------  -----------------  -----------------  -----------------
         C           -0.300765247840    -0.002095824775    -0.002173512370    12.000000000000
         C            1.176253752160    -0.002883824775    -0.000701512370    12.000000000000
         C           -3.135198247840     0.002630175225    -0.014496512370    12.000000000000
         C           -1.019976247840    -1.116991824775    -0.459466512370    12.000000000000
         C           -1.045823047840     1.155686275225     0.463219787630    12.000000000000
         C           -2.413982247840    -1.112846824775    -0.459577512370    12.000000000000
         C           -2.414156247840     1.114331175225     0.440214487630    12.000000000000
         C            1.889872752160    -1.123937824775     0.452129487630    12.000000000000
         C            1.893159752160     1.116922175225    -0.451368512370    12.000000000000
         C           -4.641258247840    -0.010872824775     0.019043487630    12.000000000000
         C            3.284888752160    -1.125797824775     0.451500487630    12.000000000000
         C            3.288189752160     1.116331175225    -0.446416512370    12.000000000000
         C            3.988671752160    -0.005304824775     0.003676487630    12.000000000000
         H           -0.480427247840    -1.981082824775    -0.842670512370     1.007825032230
         H           -0.480940247840     1.981106175225     0.828229487630     1.007825032230
         H           -2.951767247840    -1.984507824775    -0.830335512370     1.007825032230
         H           -2.952156247840     1.991640175225     0.797127487630     1.007825032230
         H            1.344224752160    -1.986476824775     0.829544487630     1.007825032230
         H            1.350247752160     1.980294175225    -0.830772512370     1.007825032230
         H           -5.047069247840     0.996000175225    -0.114848512370     1.007825032230
         H           -5.046591247840    -0.648364824775    -0.771970512370     1.007825032230
         H           -5.012517247840    -0.393505824775     0.976245487630     1.007825032230
         H            3.823885752160    -1.999119824775     0.811889487630     1.007825032230
         H            3.829797752160     1.988697175225    -0.805199512370     1.007825032230
         H            5.076021752160    -0.006230824775     0.005345487630     1.007825032230

  Basis Set: AUG-CC-PVTZ
    Blend: AUG-CC-PVTZ
  Basis Set: (AUG-CC-PVTZ AUX)
    Blend: AUG-CC-PVTZ-JKFIT
	 Reference Energy          =    -499.4467645321765303 [Eh]
	 Singles Energy            =      -0.0000000000000000 [Eh]
	 Same-Spin Energy          =      -0.5653720671412634 [Eh]
	 Opposite-Spin Energy      =      -1.7799000608295825 [Eh]
	 Correlation Energy        =      -2.3452721279708459 [Eh]
	 Total Energy              =    -501.7920366601474029 [Eh]

	 ================> DF-SCS-MP2 Energies <==================
	-----------------------------------------------------------
	 SCS Same-Spin Scale       =       0.3333333333333333 [-]
	 SCS Opposite-Spin Scale   =       1.2000000000000000 [-]
	 SCS Same-Spin Energy      =      -0.1884573557137545 [Eh]
	 SCS Opposite-Spin Energy  =      -2.1358800729954988 [Eh]
	 SCS Correlation Energy    =      -2.3243374287092533 [Eh]
	 SCS Total Energy          =    -501.7711019608858010 [Eh]
	-----------------------------------------------------------

  Dipole Moment: [D]
     X:    -0.4704      Y:    -0.0159      Z:     0.0373     Total:     0.4721

*** Psi4 exiting successfully. Buy a developer a beer!
