                               Psi4 1.4a3.dev225

  ==> Input File <==

--------------------------------------------------------------------------
#psi4
#
memory 32 gb

molecule  {
0 1
  C       -0.2663850     0.0008990    -0.0013960
  C        1.2106340     0.0001110     0.0000760
  C       -3.1008180     0.0056250    -0.0137190
  C       -0.9855960    -1.1139970    -0.4586890
  C       -0.9858100     1.1188490     0.4479860
  C       -2.3796020    -1.1098520    -0.4588000
  C       -2.3797760     1.1173260     0.4409920
  C        1.9496677    -1.1608681     0.4690341
  C        1.9275400     1.1199170    -0.4505910
  C       -4.6068780    -0.0078780     0.0198210
  C        3.3192690    -1.1228030     0.4522780
  C        3.3225700     1.1193260    -0.4456390
  C        4.0230520    -0.0023100     0.0044540
  H       -0.4460470    -1.9780880    -0.8418930
  H       -0.4465600     1.9841010     0.8290070
  H       -2.9173870    -1.9815130    -0.8295580
  H       -2.9177760     1.9946350     0.7979050
  H        1.3786050    -1.9834820     0.8303220
  H        1.3846280     1.9832890    -0.8299950
  H       -5.0126890     0.9989950    -0.1140710
  H       -5.0122110    -0.6453700    -0.7711930
  H       -4.9781370    -0.3905110     0.9770230
  H        3.8582660    -1.9961250     0.8126670
  H        3.8641780     1.9916920    -0.8044220
  H        5.1104020    -0.0032360     0.0061230
units angstrom
no_reorient  #important for SAPT in psi4, default
symmetry c1  #important for SAPT in psi4, default
}

set PROPERTIES_ORIGIN ["COM"]
properties('MP2/aug-cc-pvtz', properties = ['dipole'])
--------------------------------------------------------------------------

    Molecular point group: c1
  Charge       = 0
  Multiplicity = 1
  Basis Set: AUG-CC-PVTZ
    Blend: AUG-CC-PVTZ
  Basis Set: (AUG-CC-PVTZ AUX)
    Blend: AUG-CC-PVTZ-JKFIT

    Orbital Energies [Eh]
    ---------------------

    Doubly Occupied:

       1A    -11.249843     2A    -11.242868     3A    -11.241631
       4A    -11.237438     5A    -11.235620     6A    -11.235465
       7A    -11.235462     8A    -11.234549     9A    -11.233806
      10A    -11.233479    11A    -11.232326    12A    -11.232257
      13A    -11.225686    14A     -1.166292    15A     -1.140498
      16A     -1.064782    17A     -1.019251    18A     -1.010293
      19A     -1.000819    20A     -0.928695    21A     -0.840038
      22A     -0.834371    23A     -0.810632    24A     -0.778980
      25A     -0.711362    26A     -0.668985    27A     -0.646025
      28A     -0.642264    29A     -0.615259    30A     -0.610040
      31A     -0.590540    32A     -0.581118    33A     -0.576427
      34A     -0.569600    35A     -0.541400    36A     -0.515599
      37A     -0.507717    38A     -0.496603    39A     -0.482759
      40A     -0.481878    41A     -0.475341    42A     -0.357377
      43A     -0.340153    44A     -0.336660    45A     -0.293420

  @DF-RHF Final Energy:  -499.44686986189475

   => Energetics <=

    Nuclear Repulsion Energy =            686.6162996105796310
    One-Electron Energy =               -2036.7151237982689054
    Two-Electron Energy =                 850.6519543257945770
    Total Energy =                       -499.4468698618948110
  Basis Set: (AUG-CC-PVTZ AUX)
    Blend: AUG-CC-PVTZ-RI
    Molecular point group: c1

    Geometry (in Angstrom), charge = 0, multiplicity = 1:

       Center              X                  Y                   Z               Mass
    ------------   -----------------  -----------------  -----------------  -----------------
         C           -0.304409460977     0.003597935663    -0.002181779178    12.000000000000
         C            1.172609539023     0.002809935663    -0.000709779178    12.000000000000
         C           -3.138842460977     0.008323935663    -0.014504779178    12.000000000000
         C           -1.023620460977    -1.111298064337    -0.459474779178    12.000000000000
         C           -1.023834460977     1.121547935663     0.447200220822    12.000000000000
         C           -2.417626460977    -1.107153064337    -0.459585779178    12.000000000000
         C           -2.417800460977     1.120024935663     0.440206220822    12.000000000000
         C            1.911643239023    -1.158169164337     0.468248320822    12.000000000000
         C            1.889515539023     1.122615935663    -0.451376779178    12.000000000000
         C           -4.644902460977    -0.005179064337     0.019035220822    12.000000000000
         C            3.281244539023    -1.120104064337     0.451492220822    12.000000000000
         C            3.284545539023     1.122024935663    -0.446424779178    12.000000000000
         C            3.985027539023     0.000388935663     0.003668220822    12.000000000000
         H           -0.484071460977    -1.975389064337    -0.842678779178     1.007825032230
         H           -0.484584460977     1.986799935663     0.828221220822     1.007825032230
         H           -2.955411460977    -1.978814064337    -0.830343779178     1.007825032230
         H           -2.955800460977     1.997333935663     0.797119220822     1.007825032230
         H            1.340580539023    -1.980783064337     0.829536220822     1.007825032230
         H            1.346603539023     1.985987935663    -0.830780779178     1.007825032230
         H           -5.050713460977     1.001693935663    -0.114856779178     1.007825032230
         H           -5.050235460977    -0.642671064337    -0.771978779178     1.007825032230
         H           -5.016161460977    -0.387812064337     0.976237220822     1.007825032230
         H            3.820241539023    -1.993426064337     0.811881220822     1.007825032230
         H            3.826153539023     1.994390935663    -0.805207779178     1.007825032230
         H            5.072377539023    -0.000537064337     0.005337220822     1.007825032230

  Basis Set: AUG-CC-PVTZ
    Blend: AUG-CC-PVTZ
  Basis Set: (AUG-CC-PVTZ AUX)
    Blend: AUG-CC-PVTZ-JKFIT
	 Reference Energy          =    -499.4468698618947542 [Eh]
	 Singles Energy            =      -0.0000000000000000 [Eh]
	 Same-Spin Energy          =      -0.5653372956866792 [Eh]
	 Opposite-Spin Energy      =      -1.7797909113589230 [Eh]
	 Correlation Energy        =      -2.3451282070456023 [Eh]
	 Total Energy              =    -501.7919980689403587 [Eh]

	 ================> DF-SCS-MP2 Energies <==================
	-----------------------------------------------------------
	 SCS Same-Spin Scale       =       0.3333333333333333 [-]
	 SCS Opposite-Spin Scale   =       1.2000000000000000 [-]
	 SCS Same-Spin Energy      =      -0.1884457652288931 [Eh]
	 SCS Opposite-Spin Energy  =      -2.1357490936307073 [Eh]
	 SCS Correlation Energy    =      -2.3241948588596002 [Eh]
	 SCS Total Energy          =    -501.7710647207543389 [Eh]
	-----------------------------------------------------------

  Dipole Moment: [D]
     X:    -0.5090      Y:    -0.0090      Z:     0.0367     Total:     0.5104

*** Psi4 exiting successfully. Buy a developer a beer!
