                               Psi4 1.4a3.dev225

  ==> Input File <==

--------------------------------------------------------------------------
#psi4
#
memory 32 gb

molecule  {
0 1
  C       -0.2663850     0.0008990    -0.0013960
  C        1.2106340     0.0001110     0.0000760
  C       -3.1008180     0.0056250    -0.0137190
  C       -0.9855960    -1.1139970    -0.4586890
  C       -1.0883413     1.2781774     0.5120312
  C       -2.3796020    -1.1098520    -0.4588000
  C       -2.3797760     1.1173260     0.4409920
  C        1.9242530    -1.1209430     0.4529070
  C        1.9275400     1.1199170    -0.4505910
  C       -4.6068780    -0.0078780     0.0198210
  C        3.3192690    -1.1228030     0.4522780
  C        3.3225700     1.1193260    -0.4456390
  C        4.0230520    -0.0023100     0.0044540
  H       -0.4460470    -1.9780880    -0.8418930
  H       -0.4465600     1.9841010     0.8290070
  H       -2.9173870    -1.9815130    -0.8295580
  H       -2.9177760     1.9946350     0.7979050
  H        1.3786050    -1.9834820     0.8303220
  H        1.3846280     1.9832890    -0.8299950
  H       -5.0126890     0.9989950    -0.1140710
  H       -5.0122110    -0.6453700    -0.7711930
  H       -4.9781370    -0.3905110     0.9770230
  H        3.8582660    -1.9961250     0.8126670
  H        3.8641780     1.9916920    -0.8044220
  H        5.1104020    -0.0032360     0.0061230
units angstrom
no_reorient  #important for SAPT in psi4, default
symmetry c1  #important for SAPT in psi4, default
}

set PROPERTIES_ORIGIN ["COM"]
properties('MP2/aug-cc-pvtz', properties = ['dipole'])
--------------------------------------------------------------------------

    Molecular point group: c1
  Charge       = 0
  Multiplicity = 1
  Basis Set: AUG-CC-PVTZ
    Blend: AUG-CC-PVTZ
  Basis Set: (AUG-CC-PVTZ AUX)
    Blend: AUG-CC-PVTZ-JKFIT

    Orbital Energies [Eh]
    ---------------------

    Doubly Occupied:

       1A    -11.255236     2A    -11.245726     3A    -11.242821
       4A    -11.237770     5A    -11.237557     6A    -11.237232
       7A    -11.234994     8A    -11.234695     9A    -11.234386
      10A    -11.233611    11A    -11.232315    12A    -11.225708
      13A    -11.225631    14A     -1.162320    15A     -1.141112
      16A     -1.057482    17A     -1.029350    18A     -1.012974
      19A     -1.002483    20A     -0.921656    21A     -0.840339
      22A     -0.835493    23A     -0.811686    24A     -0.777682
      25A     -0.707913    26A     -0.676226    27A     -0.662054
      28A     -0.640999    29A     -0.617405    30A     -0.607496
      31A     -0.591290    32A     -0.584092    33A     -0.576282
      34A     -0.561544    35A     -0.535764    36A     -0.520710
      37A     -0.506603    38A     -0.498344    39A     -0.488505
      40A     -0.478843    41A     -0.448650    42A     -0.362950
      43A     -0.345809    44A     -0.337097    45A     -0.284038

  @DF-RHF Final Energy:  -499.40850647994381

   => Energetics <=

    Nuclear Repulsion Energy =            684.7564119216139034
    One-Electron Energy =               -2032.9240868478939319
    Two-Electron Energy =                 848.7591684463363890
    Total Energy =                       -499.4085064799437532
  Basis Set: (AUG-CC-PVTZ AUX)
    Blend: AUG-CC-PVTZ-RI
    Molecular point group: c1

    Geometry (in Angstrom), charge = 0, multiplicity = 1:

       Center              X                  Y                   Z               Mass
    ------------   -----------------  -----------------  -----------------  -----------------
         C           -0.295275566192    -0.010626506714    -0.005602588611    12.000000000000
         C            1.181743433808    -0.011414506714    -0.004130588611    12.000000000000
         C           -3.129708566192    -0.005900506714    -0.017925588611    12.000000000000
         C           -1.014486566192    -1.125522506714    -0.462895588611    12.000000000000
         C           -1.117231866192     1.266651893286     0.507824611389    12.000000000000
         C           -2.408492566192    -1.121377506714    -0.463006588611    12.000000000000
         C           -2.408666566192     1.105800493286     0.436785411389    12.000000000000
         C            1.895362433808    -1.132468506714     0.448700411389    12.000000000000
         C            1.898649433808     1.108391493286    -0.454797588611    12.000000000000
         C           -4.635768566192    -0.019403506714     0.015614411389    12.000000000000
         C            3.290378433808    -1.134328506714     0.448071411389    12.000000000000
         C            3.293679433808     1.107800493286    -0.449845588611    12.000000000000
         C            3.994161433808    -0.013835506714     0.000247411389    12.000000000000
         H           -0.474937566192    -1.989613506714    -0.846099588611     1.007825032230
         H           -0.475450566192     1.972575493286     0.824800411389     1.007825032230
         H           -2.946277566192    -1.993038506714    -0.833764588611     1.007825032230
         H           -2.946666566192     1.983109493286     0.793698411389     1.007825032230
         H            1.349714433808    -1.995007506714     0.826115411389     1.007825032230
         H            1.355737433808     1.971763493286    -0.834201588611     1.007825032230
         H           -5.041579566192     0.987469493286    -0.118277588611     1.007825032230
         H           -5.041101566192    -0.656895506714    -0.775399588611     1.007825032230
         H           -5.007027566192    -0.402036506714     0.972816411389     1.007825032230
         H            3.829375433808    -2.007650506714     0.808460411389     1.007825032230
         H            3.835287433808     1.980166493286    -0.808628588611     1.007825032230
         H            5.081511433808    -0.014761506714     0.001916411389     1.007825032230

  Basis Set: AUG-CC-PVTZ
    Blend: AUG-CC-PVTZ
  Basis Set: (AUG-CC-PVTZ AUX)
    Blend: AUG-CC-PVTZ-JKFIT
	 Reference Energy          =    -499.4085064799438101 [Eh]
	 Singles Energy            =      -0.0000000000000000 [Eh]
	 Same-Spin Energy          =      -0.5652458957307950 [Eh]
	 Opposite-Spin Energy      =      -1.7823028460627359 [Eh]
	 Correlation Energy        =      -2.3475487417935308 [Eh]
	 Total Energy              =    -501.7560552217373129 [Eh]

	 ================> DF-SCS-MP2 Energies <==================
	-----------------------------------------------------------
	 SCS Same-Spin Scale       =       0.3333333333333333 [-]
	 SCS Opposite-Spin Scale   =       1.2000000000000000 [-]
	 SCS Same-Spin Energy      =      -0.1884152985769317 [Eh]
	 SCS Opposite-Spin Energy  =      -2.1387634152752830 [Eh]
	 SCS Correlation Energy    =      -2.3271787138522146 [Eh]
	 SCS Total Energy          =    -501.7356851937960300 [Eh]
	-----------------------------------------------------------

  Dipole Moment: [D]
     X:    -0.4646      Y:    -0.0203      Z:     0.0401     Total:     0.4668

*** Psi4 exiting successfully. Buy a developer a beer!
