                               Psi4 1.4a3.dev225

  ==> Input File <==

--------------------------------------------------------------------------
#psi4
#
memory 32 gb

molecule  {
0 1
  C       -0.2663850     0.0008990    -0.0013960
  C        1.2106340     0.0001110     0.0000760
  C       -3.1008180     0.0056250    -0.0137190
  C       -0.9855960    -1.1139970    -0.4586890
  C       -0.9858100     1.1188490     0.4479860
  C       -2.4296018    -1.1097033    -0.4588040
  C       -2.3797760     1.1173260     0.4409920
  C        1.9242530    -1.1209430     0.4529070
  C        1.9275400     1.1199170    -0.4505910
  C       -4.6068780    -0.0078780     0.0198210
  C        3.3192690    -1.1228030     0.4522780
  C        3.3225700     1.1193260    -0.4456390
  C        4.0230520    -0.0023100     0.0044540
  H       -0.4460470    -1.9780880    -0.8418930
  H       -0.4465600     1.9841010     0.8290070
  H       -2.9173870    -1.9815130    -0.8295580
  H       -2.9177760     1.9946350     0.7979050
  H        1.3786050    -1.9834820     0.8303220
  H        1.3846280     1.9832890    -0.8299950
  H       -5.0126890     0.9989950    -0.1140710
  H       -5.0122110    -0.6453700    -0.7711930
  H       -4.9781370    -0.3905110     0.9770230
  H        3.8582660    -1.9961250     0.8126670
  H        3.8641780     1.9916920    -0.8044220
  H        5.1104020    -0.0032360     0.0061230
units angstrom
no_reorient  #important for SAPT in psi4, default
symmetry c1  #important for SAPT in psi4, default
}

set PROPERTIES_ORIGIN ["COM"]
properties('MP2/aug-cc-pvtz', properties = ['dipole'])
--------------------------------------------------------------------------

    Molecular point group: c1
  Charge       = 0
  Multiplicity = 1
  Basis Set: AUG-CC-PVTZ
    Blend: AUG-CC-PVTZ
  Basis Set: (AUG-CC-PVTZ AUX)
    Blend: AUG-CC-PVTZ-JKFIT

    Orbital Energies [Eh]
    ---------------------

    Doubly Occupied:

       1A    -11.245117     2A    -11.241611     3A    -11.240132
       4A    -11.239977     5A    -11.237263     6A    -11.237003
       7A    -11.236229     8A    -11.234638     9A    -11.234449
      10A    -11.234208    11A    -11.232807    12A    -11.232239
      13A    -11.223945    14A     -1.167223    15A     -1.141065
      16A     -1.067240    17A     -1.015673    18A     -1.007630
      19A     -1.000890    20A     -0.928683    21A     -0.843403
      22A     -0.832133    23A     -0.813332    24A     -0.778431
      25A     -0.712132    26A     -0.666215    27A     -0.644695
      28A     -0.643392    29A     -0.616970    30A     -0.612986
      31A     -0.587544    32A     -0.579837    33A     -0.575954
      34A     -0.571987    35A     -0.540109    36A     -0.510543
      37A     -0.507633    38A     -0.500995    39A     -0.484374
      40A     -0.479500    41A     -0.476454    42A     -0.360830
      43A     -0.336914    44A     -0.331419    45A     -0.298374

  @DF-RHF Final Energy:  -499.44688871921375

   => Energetics <=

    Nuclear Repulsion Energy =            686.8803304301642356
    One-Electron Energy =               -2037.2460788684597901
    Two-Electron Energy =                 850.9188597190818655
    Total Energy =                       -499.4468887192138027
  Basis Set: (AUG-CC-PVTZ AUX)
    Blend: AUG-CC-PVTZ-RI
    Molecular point group: c1

    Geometry (in Angstrom), charge = 0, multiplicity = 1:

       Center              X                  Y                   Z               Mass
    ------------   -----------------  -----------------  -----------------  -----------------
         C           -0.299025720116     0.000737120376    -0.001030201402    12.000000000000
         C            1.177993279884    -0.000050879624     0.000441798598    12.000000000000
         C           -3.133458720116     0.005463120376    -0.013353201402    12.000000000000
         C           -1.018236720116    -1.114158879624    -0.458323201402    12.000000000000
         C           -1.018450720116     1.118687120376     0.448351798598    12.000000000000
         C           -2.462242520116    -1.109865179624    -0.458438201402    12.000000000000
         C           -2.412416720116     1.117164120376     0.441357798598    12.000000000000
         C            1.891612279884    -1.121104879624     0.453272798598    12.000000000000
         C            1.894899279884     1.119755120376    -0.450225201402    12.000000000000
         C           -4.639518720116    -0.008039879624     0.020186798598    12.000000000000
         C            3.286628279884    -1.122964879624     0.452643798598    12.000000000000
         C            3.289929279884     1.119164120376    -0.445273201402    12.000000000000
         C            3.990411279884    -0.002471879624     0.004819798598    12.000000000000
         H           -0.478687720116    -1.978249879624    -0.841527201402     1.007825032230
         H           -0.479200720116     1.983939120376     0.829372798598     1.007825032230
         H           -2.950027720116    -1.981674879624    -0.829192201402     1.007825032230
         H           -2.950416720116     1.994473120376     0.798270798598     1.007825032230
         H            1.345964279884    -1.983643879624     0.830687798598     1.007825032230
         H            1.351987279884     1.983127120376    -0.829629201402     1.007825032230
         H           -5.045329720116     0.998833120376    -0.113705201402     1.007825032230
         H           -5.044851720116    -0.645531879624    -0.770827201402     1.007825032230
         H           -5.010777720116    -0.390672879624     0.977388798598     1.007825032230
         H            3.825625279884    -1.996286879624     0.813032798598     1.007825032230
         H            3.831537279884     1.991530120376    -0.804056201402     1.007825032230
         H            5.077761279884    -0.003397879624     0.006488798598     1.007825032230

  Basis Set: AUG-CC-PVTZ
    Blend: AUG-CC-PVTZ
  Basis Set: (AUG-CC-PVTZ AUX)
    Blend: AUG-CC-PVTZ-JKFIT
	 Reference Energy          =    -499.4468887192137458 [Eh]
	 Singles Energy            =      -0.0000000000000000 [Eh]
	 Same-Spin Energy          =      -0.5652947052573437 [Eh]
	 Opposite-Spin Energy      =      -1.7799017700483641 [Eh]
	 Correlation Energy        =      -2.3451964753057077 [Eh]
	 Total Energy              =    -501.7920851945194727 [Eh]

	 ================> DF-SCS-MP2 Energies <==================
	-----------------------------------------------------------
	 SCS Same-Spin Scale       =       0.3333333333333333 [-]
	 SCS Opposite-Spin Scale   =       1.2000000000000000 [-]
	 SCS Same-Spin Energy      =      -0.1884315684191146 [Eh]
	 SCS Opposite-Spin Energy  =      -2.1358821240580368 [Eh]
	 SCS Correlation Energy    =      -2.3243136924771512 [Eh]
	 SCS Total Energy          =    -501.7712024116909220 [Eh]
	-----------------------------------------------------------

  Dipole Moment: [D]
     X:    -0.4491      Y:    -0.0230      Z:     0.0309     Total:     0.4507

*** Psi4 exiting successfully. Buy a developer a beer!
