                               Psi4 1.4a3.dev225

  ==> Input File <==

--------------------------------------------------------------------------
#psi4
#
memory 32 gb

molecule  {
0 1
  C       -0.2663850     0.0008990    -0.0013960
  C        1.2106340     0.0001110     0.0000760
  C       -3.1008180     0.0056250    -0.0137190
  C       -0.9855960    -1.1139970    -0.4586890
  C       -0.9345444     1.0391848     0.4159634
  C       -2.3796020    -1.1098520    -0.4588000
  C       -2.3797760     1.1173260     0.4409920
  C        1.9242530    -1.1209430     0.4529070
  C        1.9275400     1.1199170    -0.4505910
  C       -4.6068780    -0.0078780     0.0198210
  C        3.3192690    -1.1228030     0.4522780
  C        3.3225700     1.1193260    -0.4456390
  C        4.0230520    -0.0023100     0.0044540
  H       -0.4460470    -1.9780880    -0.8418930
  H       -0.4465600     1.9841010     0.8290070
  H       -2.9173870    -1.9815130    -0.8295580
  H       -2.9177760     1.9946350     0.7979050
  H        1.3786050    -1.9834820     0.8303220
  H        1.3846280     1.9832890    -0.8299950
  H       -5.0126890     0.9989950    -0.1140710
  H       -5.0122110    -0.6453700    -0.7711930
  H       -4.9781370    -0.3905110     0.9770230
  H        3.8582660    -1.9961250     0.8126670
  H        3.8641780     1.9916920    -0.8044220
  H        5.1104020    -0.0032360     0.0061230
units angstrom
no_reorient  #important for SAPT in psi4, default
symmetry c1  #important for SAPT in psi4, default
}

set PROPERTIES_ORIGIN ["COM"]
properties('MP2/aug-cc-pvtz', properties = ['dipole'])
--------------------------------------------------------------------------

    Molecular point group: c1
  Charge       = 0
  Multiplicity = 1
  Basis Set: AUG-CC-PVTZ
    Blend: AUG-CC-PVTZ
  Basis Set: (AUG-CC-PVTZ AUX)
    Blend: AUG-CC-PVTZ-JKFIT

    Orbital Energies [Eh]
    ---------------------

    Doubly Occupied:

       1A    -11.244345     2A    -11.242542     3A    -11.236899
       4A    -11.236628     5A    -11.236607     6A    -11.236107
       7A    -11.234256     8A    -11.234043     9A    -11.233793
      10A    -11.233071    11A    -11.232284    12A    -11.229174
      13A    -11.225357    14A     -1.174127    15A     -1.141965
      16A     -1.071682    17A     -1.015099    18A     -1.005815
      19A     -1.003096    20A     -0.932497    21A     -0.844478
      22A     -0.830788    23A     -0.813264    24A     -0.776053
      25A     -0.713687    26A     -0.666383    27A     -0.648668
      28A     -0.636024    29A     -0.617217    30A     -0.612057
      31A     -0.586243    32A     -0.578625    33A     -0.575086
      34A     -0.569877    35A     -0.543723    36A     -0.511983
      37A     -0.510923    38A     -0.497645    39A     -0.487205
      40A     -0.483115    41A     -0.467192    42A     -0.363217
      43A     -0.336414    44A     -0.329923    45A     -0.303094

  @DF-RHF Final Energy:  -499.43714350528921

   => Energetics <=

    Nuclear Repulsion Energy =            688.8117223735951029
    One-Electron Energy =               -2041.0931877636430727
    Two-Electron Energy =                 852.8443218847587559
    Total Energy =                       -499.4371435052892139
  Basis Set: (AUG-CC-PVTZ AUX)
    Blend: AUG-CC-PVTZ-RI
    Molecular point group: c1

    Geometry (in Angstrom), charge = 0, multiplicity = 1:

       Center              X                  Y                   Z               Mass
    ------------   -----------------  -----------------  -----------------  -----------------
         C           -0.306254922349     0.006434857163     0.001255563871    12.000000000000
         C            1.170764077651     0.005646857163     0.002727563871    12.000000000000
         C           -3.140687922349     0.011160857163    -0.011067436129    12.000000000000
         C           -1.025465922349    -1.108461142837    -0.456037436129    12.000000000000
         C           -0.974414322349     1.044720657163     0.418614963871    12.000000000000
         C           -2.419471922349    -1.104316142837    -0.456148436129    12.000000000000
         C           -2.419645922349     1.122861857163     0.443643563871    12.000000000000
         C            1.884383077651    -1.115407142837     0.455558563871    12.000000000000
         C            1.887670077651     1.125452857163    -0.447939436129    12.000000000000
         C           -4.646747922349    -0.002342142837     0.022472563871    12.000000000000
         C            3.279399077651    -1.117267142837     0.454929563871    12.000000000000
         C            3.282700077651     1.124861857163    -0.442987436129    12.000000000000
         C            3.983182077651     0.003225857163     0.007105563871    12.000000000000
         H           -0.485916922349    -1.972552142837    -0.839241436129     1.007825032230
         H           -0.486429922349     1.989636857163     0.831658563871     1.007825032230
         H           -2.957256922349    -1.975977142837    -0.826906436129     1.007825032230
         H           -2.957645922349     2.000170857163     0.800556563871     1.007825032230
         H            1.338735077651    -1.977946142837     0.832973563871     1.007825032230
         H            1.344758077651     1.988824857163    -0.827343436129     1.007825032230
         H           -5.052558922349     1.004530857163    -0.111419436129     1.007825032230
         H           -5.052080922349    -0.639834142837    -0.768541436129     1.007825032230
         H           -5.018006922349    -0.384975142837     0.979674563871     1.007825032230
         H            3.818396077651    -1.990589142837     0.815318563871     1.007825032230
         H            3.824308077651     1.997227857163    -0.801770436129     1.007825032230
         H            5.070532077651     0.002299857163     0.008774563871     1.007825032230

  Basis Set: AUG-CC-PVTZ
    Blend: AUG-CC-PVTZ
  Basis Set: (AUG-CC-PVTZ AUX)
    Blend: AUG-CC-PVTZ-JKFIT
	 Reference Energy          =    -499.4371435052892139 [Eh]
	 Singles Energy            =      -0.0000000000000000 [Eh]
	 Same-Spin Energy          =      -0.5651525868344767 [Eh]
	 Opposite-Spin Energy      =      -1.7798907174077578 [Eh]
	 Correlation Energy        =      -2.3450433042422345 [Eh]
	 Total Energy              =    -501.7821868095314244 [Eh]

	 ================> DF-SCS-MP2 Energies <==================
	-----------------------------------------------------------
	 SCS Same-Spin Scale       =       0.3333333333333333 [-]
	 SCS Opposite-Spin Scale   =       1.2000000000000000 [-]
	 SCS Same-Spin Energy      =      -0.1883841956114922 [Eh]
	 SCS Opposite-Spin Energy  =      -2.1358688608893095 [Eh]
	 SCS Correlation Energy    =      -2.3242530565008015 [Eh]
	 SCS Total Energy          =    -501.7613965617900362 [Eh]
	-----------------------------------------------------------

  Dipole Moment: [D]
     X:    -0.5270      Y:    -0.0163      Z:     0.0331     Total:     0.5283

*** Psi4 exiting successfully. Buy a developer a beer!
