                               Psi4 1.4a3.dev225

  ==> Input File <==

--------------------------------------------------------------------------
#psi4
#
memory 32 gb

molecule  {
0 1
  C       -0.2663850     0.0008990    -0.0013960
  C        1.2106340     0.0001110     0.0000760
  C       -3.1008180     0.0056250    -0.0137190
  C       -0.9855960    -1.1139970    -0.4586890
  C       -0.9858100     1.1188490     0.4479860
  C       -2.3759452    -1.0209992    -0.4193130
  C       -2.3797760     1.1173260     0.4409920
  C        1.9242530    -1.1209430     0.4529070
  C        1.9275400     1.1199170    -0.4505910
  C       -4.6068780    -0.0078780     0.0198210
  C        3.3192690    -1.1228030     0.4522780
  C        3.3225700     1.1193260    -0.4456390
  C        4.0230520    -0.0023100     0.0044540
  H       -0.4460470    -1.9780880    -0.8418930
  H       -0.4465600     1.9841010     0.8290070
  H       -2.9173870    -1.9815130    -0.8295580
  H       -2.9177760     1.9946350     0.7979050
  H        1.3786050    -1.9834820     0.8303220
  H        1.3846280     1.9832890    -0.8299950
  H       -5.0126890     0.9989950    -0.1140710
  H       -5.0122110    -0.6453700    -0.7711930
  H       -4.9781370    -0.3905110     0.9770230
  H        3.8582660    -1.9961250     0.8126670
  H        3.8641780     1.9916920    -0.8044220
  H        5.1104020    -0.0032360     0.0061230
units angstrom
no_reorient  #important for SAPT in psi4, default
symmetry c1  #important for SAPT in psi4, default
}

set PROPERTIES_ORIGIN ["COM"]
properties('MP2/aug-cc-pvtz', properties = ['dipole'])
--------------------------------------------------------------------------

    Molecular point group: c1
  Charge       = 0
  Multiplicity = 1
  Basis Set: AUG-CC-PVTZ
    Blend: AUG-CC-PVTZ
  Basis Set: (AUG-CC-PVTZ AUX)
    Blend: AUG-CC-PVTZ-JKFIT

    Orbital Energies [Eh]
    ---------------------

    Doubly Occupied:

       1A    -11.244964     2A    -11.241811     3A    -11.237659
       4A    -11.237403     5A    -11.235100     6A    -11.234911
       7A    -11.234804     8A    -11.234671     9A    -11.234273
      10A    -11.233151    11A    -11.232302    12A    -11.230016
      13A    -11.226030    14A     -1.173059    15A     -1.146544
      16A     -1.070045    17A     -1.016416    18A     -1.007470
      19A     -1.005285    20A     -0.932206    21A     -0.843808
      22A     -0.835266    23A     -0.812625    24A     -0.777215
      25A     -0.710681    26A     -0.666513    27A     -0.650365
      28A     -0.641228    29A     -0.614926    30A     -0.609240
      31A     -0.586682    32A     -0.578971    33A     -0.574845
      34A     -0.571400    35A     -0.537343    36A     -0.518378
      37A     -0.510322    38A     -0.498098    39A     -0.486183
      40A     -0.484388    41A     -0.465149    42A     -0.363476
      43A     -0.337570    44A     -0.335300    45A     -0.300282

  @DF-RHF Final Energy:  -499.43824831976531

   => Energetics <=

    Nuclear Repulsion Energy =            688.9683749919875027
    One-Electron Energy =               -2041.3765029306639462
    Two-Electron Energy =                 852.9698796189111363
    Total Energy =                       -499.4382483197653073
  Basis Set: (AUG-CC-PVTZ AUX)
    Blend: AUG-CC-PVTZ-RI
    Molecular point group: c1

    Geometry (in Angstrom), charge = 0, multiplicity = 1:

       Center              X                  Y                   Z               Mass
    ------------   -----------------  -----------------  -----------------  -----------------
         C           -0.302856193432    -0.005595347355    -0.003849411373    12.000000000000
         C            1.174162806568    -0.006383347355    -0.002377411373    12.000000000000
         C           -3.137289193432    -0.000869347355    -0.016172411373    12.000000000000
         C           -1.022067193432    -1.120491347355    -0.461142411373    12.000000000000
         C           -1.022281193432     1.112354652645     0.445532588627    12.000000000000
         C           -2.412416393432    -1.027493547355    -0.421766411373    12.000000000000
         C           -2.416247193432     1.110831652645     0.438538588627    12.000000000000
         C            1.887781806568    -1.127437347355     0.450453588627    12.000000000000
         C            1.891068806568     1.113422652645    -0.453044411373    12.000000000000
         C           -4.643349193432    -0.014372347355     0.017367588627    12.000000000000
         C            3.282797806568    -1.129297347355     0.449824588627    12.000000000000
         C            3.286098806568     1.112831652645    -0.448092411373    12.000000000000
         C            3.986580806568    -0.008804347355     0.002000588627    12.000000000000
         H           -0.482518193432    -1.984582347355    -0.844346411373     1.007825032230
         H           -0.483031193432     1.977606652645     0.826553588627     1.007825032230
         H           -2.953858193432    -1.988007347355    -0.832011411373     1.007825032230
         H           -2.954247193432     1.988140652645     0.795451588627     1.007825032230
         H            1.342133806568    -1.989976347355     0.827868588627     1.007825032230
         H            1.348156806568     1.976794652645    -0.832448411373     1.007825032230
         H           -5.049160193432     0.992500652645    -0.116524411373     1.007825032230
         H           -5.048682193432    -0.651864347355    -0.773646411373     1.007825032230
         H           -5.014608193432    -0.397005347355     0.974569588627     1.007825032230
         H            3.821794806568    -2.002619347355     0.810213588627     1.007825032230
         H            3.827706806568     1.985197652645    -0.806875411373     1.007825032230
         H            5.073930806568    -0.009730347355     0.003669588627     1.007825032230

  Basis Set: AUG-CC-PVTZ
    Blend: AUG-CC-PVTZ
  Basis Set: (AUG-CC-PVTZ AUX)
    Blend: AUG-CC-PVTZ-JKFIT
	 Reference Energy          =    -499.4382483197653073 [Eh]
	 Singles Energy            =      -0.0000000000000000 [Eh]
	 Same-Spin Energy          =      -0.5656058713808979 [Eh]
	 Opposite-Spin Energy      =      -1.7799840260329998 [Eh]
	 Correlation Energy        =      -2.3455898974138978 [Eh]
	 Total Energy              =    -501.7838382171792091 [Eh]

	 ================> DF-SCS-MP2 Energies <==================
	-----------------------------------------------------------
	 SCS Same-Spin Scale       =       0.3333333333333333 [-]
	 SCS Opposite-Spin Scale   =       1.2000000000000000 [-]
	 SCS Same-Spin Energy      =      -0.1885352904602993 [Eh]
	 SCS Opposite-Spin Energy  =      -2.1359808312395998 [Eh]
	 SCS Correlation Energy    =      -2.3245161216998991 [Eh]
	 SCS Total Energy          =    -501.7627644414652082 [Eh]
	-----------------------------------------------------------

  Dipole Moment: [D]
     X:    -0.4168      Y:     0.0461      Z:     0.0561     Total:     0.4231

*** Psi4 exiting successfully. Buy a developer a beer!
