                               Psi4 1.4a3.dev225

  ==> Input File <==

--------------------------------------------------------------------------
#psi4
#
memory 32 gb

molecule  {
0 1
  C       -0.1840780    -0.0482855    -0.0214220
  C        1.2106340     0.0001110     0.0000760
  C       -3.1008180     0.0056250    -0.0137190
  C       -0.9855960    -1.1139970    -0.4586890
  C       -0.9858100     1.1188490     0.4479860
  C       -2.3796020    -1.1098520    -0.4588000
  C       -2.3797760     1.1173260     0.4409920
  C        1.9242530    -1.1209430     0.4529070
  C        1.9275400     1.1199170    -0.4505910
  C       -4.6068780    -0.0078780     0.0198210
  C        3.3192690    -1.1228030     0.4522780
  C        3.3225700     1.1193260    -0.4456390
  C        4.0230520    -0.0023100     0.0044540
  H       -0.4460470    -1.9780880    -0.8418930
  H       -0.4465600     1.9841010     0.8290070
  H       -2.9173870    -1.9815130    -0.8295580
  H       -2.9177760     1.9946350     0.7979050
  H        1.3786050    -1.9834820     0.8303220
  H        1.3846280     1.9832890    -0.8299950
  H       -5.0126890     0.9989950    -0.1140710
  H       -5.0122110    -0.6453700    -0.7711930
  H       -4.9781370    -0.3905110     0.9770230
  H        3.8582660    -1.9961250     0.8126670
  H        3.8641780     1.9916920    -0.8044220
  H        5.1104020    -0.0032360     0.0061230
units angstrom
no_reorient  #important for SAPT in psi4, default
symmetry c1  #important for SAPT in psi4, default
}

set PROPERTIES_ORIGIN ["COM"]
properties('MP2/aug-cc-pvtz', properties = ['dipole'])
--------------------------------------------------------------------------

    Molecular point group: c1
  Charge       = 0
  Multiplicity = 1
  Basis Set: AUG-CC-PVTZ
    Blend: AUG-CC-PVTZ
  Basis Set: (AUG-CC-PVTZ AUX)
    Blend: AUG-CC-PVTZ-JKFIT

    Orbital Energies [Eh]
    ---------------------

    Doubly Occupied:

       1A    -11.244604     2A    -11.243722     3A    -11.243570
       4A    -11.240854     5A    -11.238417     6A    -11.237720
       7A    -11.236402     8A    -11.235748     9A    -11.235693
      10A    -11.234954    11A    -11.232132    12A    -11.231517
      13A    -11.225780    14A     -1.169993    15A     -1.138724
      16A     -1.070773    17A     -1.016823    18A     -1.007831
      19A     -1.002366    20A     -0.929299    21A     -0.841688
      22A     -0.840258    23A     -0.809091    24A     -0.776825
      25A     -0.714493    26A     -0.668331    27A     -0.647697
      28A     -0.643101    29A     -0.614504    30A     -0.612473
      31A     -0.587237    32A     -0.580497    33A     -0.576473
      34A     -0.571925    35A     -0.540688    36A     -0.512889
      37A     -0.509759    38A     -0.498966    39A     -0.493468
      40A     -0.476605    41A     -0.466991    42A     -0.363108
      43A     -0.338236    44A     -0.335095    45A     -0.287829

  @DF-RHF Final Energy:  -499.43539267579251

   => Energetics <=

    Nuclear Repulsion Energy =            687.3003609206184592
    One-Electron Energy =               -2038.0212077860073805
    Two-Electron Energy =                 851.2854541895964076
    Total Energy =                       -499.4353926757925137
  Basis Set: (AUG-CC-PVTZ AUX)
    Blend: AUG-CC-PVTZ-RI
    Molecular point group: c1

    Geometry (in Angstrom), charge = 0, multiplicity = 1:

       Center              X                  Y                   Z               Mass
    ------------   -----------------  -----------------  -----------------  -----------------
         C           -0.226163926612    -0.044925548085    -0.019626857449    12.000000000000
         C            1.168548073388     0.003470951915     0.001871142551    12.000000000000
         C           -3.142903926612     0.008984951915    -0.011923857449    12.000000000000
         C           -1.027681926612    -1.110637048085    -0.456893857449    12.000000000000
         C           -1.027895926612     1.122208951915     0.449781142551    12.000000000000
         C           -2.421687926612    -1.106492048085    -0.457004857449    12.000000000000
         C           -2.421861926612     1.120685951915     0.442787142551    12.000000000000
         C            1.882167073388    -1.117583048085     0.454702142551    12.000000000000
         C            1.885454073388     1.123276951915    -0.448795857449    12.000000000000
         C           -4.648963926612    -0.004518048085     0.021616142551    12.000000000000
         C            3.277183073388    -1.119443048085     0.454073142551    12.000000000000
         C            3.280484073388     1.122685951915    -0.443843857449    12.000000000000
         C            3.980966073388     0.001049951915     0.006249142551    12.000000000000
         H           -0.488132926612    -1.974728048085    -0.840097857449     1.007825032230
         H           -0.488645926612     1.987460951915     0.830802142551     1.007825032230
         H           -2.959472926612    -1.978153048085    -0.827762857449     1.007825032230
         H           -2.959861926612     1.997994951915     0.799700142551     1.007825032230
         H            1.336519073388    -1.980122048085     0.832117142551     1.007825032230
         H            1.342542073388     1.986648951915    -0.828199857449     1.007825032230
         H           -5.054774926612     1.002354951915    -0.112275857449     1.007825032230
         H           -5.054296926612    -0.642010048085    -0.769397857449     1.007825032230
         H           -5.020222926612    -0.387151048085     0.978818142551     1.007825032230
         H            3.816180073388    -1.992765048085     0.814462142551     1.007825032230
         H            3.822092073388     1.995051951915    -0.802626857449     1.007825032230
         H            5.068316073388     0.000123951915     0.007918142551     1.007825032230

  Basis Set: AUG-CC-PVTZ
    Blend: AUG-CC-PVTZ
  Basis Set: (AUG-CC-PVTZ AUX)
    Blend: AUG-CC-PVTZ-JKFIT
	 Reference Energy          =    -499.4353926757925137 [Eh]
	 Singles Energy            =      -0.0000000000000000 [Eh]
	 Same-Spin Energy          =      -0.5668198137054214 [Eh]
	 Opposite-Spin Energy      =      -1.7822242425358445 [Eh]
	 Correlation Energy        =      -2.3490440562412660 [Eh]
	 Total Energy              =    -501.7844367320337824 [Eh]

	 ================> DF-SCS-MP2 Energies <==================
	-----------------------------------------------------------
	 SCS Same-Spin Scale       =       0.3333333333333333 [-]
	 SCS Opposite-Spin Scale   =       1.2000000000000000 [-]
	 SCS Same-Spin Energy      =      -0.1889399379018071 [Eh]
	 SCS Opposite-Spin Energy  =      -2.1386690910430133 [Eh]
	 SCS Correlation Energy    =      -2.3276090289448206 [Eh]
	 SCS Total Energy          =    -501.7630017047373485 [Eh]
	-----------------------------------------------------------

  Dipole Moment: [D]
     X:    -0.3703      Y:    -0.0053      Z:     0.0359     Total:     0.3721

*** Psi4 exiting successfully. Buy a developer a beer!
