                               Psi4 1.4a3.dev225

  ==> Input File <==

--------------------------------------------------------------------------
#psi4
#
memory 32 gb

molecule  {
0 1
  C       -0.1841111    -0.0471717    -0.0240854
  C        1.2106340     0.0001110     0.0000760
  C       -3.1008180     0.0056250    -0.0137190
  C       -0.9855960    -1.1139970    -0.4586890
  C       -0.9858100     1.1188490     0.4479860
  C       -2.3796020    -1.1098520    -0.4588000
  C       -2.3797760     1.1173260     0.4409920
  C        1.9242530    -1.1209430     0.4529070
  C        1.9275400     1.1199170    -0.4505910
  C       -4.6068780    -0.0078780     0.0198210
  C        3.3192690    -1.1228030     0.4522780
  C        3.3225700     1.1193260    -0.4456390
  C        4.0230520    -0.0023100     0.0044540
  H       -0.4460470    -1.9780880    -0.8418930
  H       -0.4465600     1.9841010     0.8290070
  H       -2.9173870    -1.9815130    -0.8295580
  H       -2.9177760     1.9946350     0.7979050
  H        1.3786050    -1.9834820     0.8303220
  H        1.3846280     1.9832890    -0.8299950
  H       -5.0126890     0.9989950    -0.1140710
  H       -5.0122110    -0.6453700    -0.7711930
  H       -4.9781370    -0.3905110     0.9770230
  H        3.8582660    -1.9961250     0.8126670
  H        3.8641780     1.9916920    -0.8044220
  H        5.1104020    -0.0032360     0.0061230
units angstrom
no_reorient  #important for SAPT in psi4, default
symmetry c1  #important for SAPT in psi4, default
}

set PROPERTIES_ORIGIN ["COM"]
properties('MP2/aug-cc-pvtz', properties = ['dipole'])
--------------------------------------------------------------------------

    Molecular point group: c1
  Charge       = 0
  Multiplicity = 1
  Basis Set: AUG-CC-PVTZ
    Blend: AUG-CC-PVTZ
  Basis Set: (AUG-CC-PVTZ AUX)
    Blend: AUG-CC-PVTZ-JKFIT

    Orbital Energies [Eh]
    ---------------------

    Doubly Occupied:

       1A    -11.244602     2A    -11.243721     3A    -11.243578
       4A    -11.240853     5A    -11.238403     6A    -11.237730
       7A    -11.236377     8A    -11.235731     9A    -11.235694
      10A    -11.234978    11A    -11.232133    12A    -11.231516
      13A    -11.225780    14A     -1.169989    15A     -1.138725
      16A     -1.070767    17A     -1.016826    18A     -1.007825
      19A     -1.002370    20A     -0.929298    21A     -0.841703
      22A     -0.840237    23A     -0.809091    24A     -0.776825
      25A     -0.714491    26A     -0.668331    27A     -0.647701
      28A     -0.643094    29A     -0.614513    30A     -0.612455
      31A     -0.587238    32A     -0.580500    33A     -0.576473
      34A     -0.571923    35A     -0.540688    36A     -0.512891
      37A     -0.509759    38A     -0.498968    39A     -0.493453
      40A     -0.476601    41A     -0.467023    42A     -0.363093
      43A     -0.338237    44A     -0.335108    45A     -0.287826

  @DF-RHF Final Energy:  -499.43541761939900

   => Energetics <=

    Nuclear Repulsion Energy =            687.3001645609363095
    One-Electron Energy =               -2038.0209207928728574
    Two-Electron Energy =                 851.2853386125375437
    Total Energy =                       -499.4354176193990043
  Basis Set: (AUG-CC-PVTZ AUX)
    Blend: AUG-CC-PVTZ-RI
    Molecular point group: c1

    Geometry (in Angstrom), charge = 0, multiplicity = 1:

       Center              X                  Y                   Z               Mass
    ------------   -----------------  -----------------  -----------------  -----------------
         C           -0.226194663647    -0.043891260785    -0.022100120865    12.000000000000
         C            1.168550436353     0.003391439215     0.002061279135    12.000000000000
         C           -3.142901563647     0.008905439215    -0.011733720865    12.000000000000
         C           -1.027679563647    -1.110716560785    -0.456703720865    12.000000000000
         C           -1.027893563647     1.122129439215     0.449971279135    12.000000000000
         C           -2.421685563647    -1.106571560785    -0.456814720865    12.000000000000
         C           -2.421859563647     1.120606439215     0.442977279135    12.000000000000
         C            1.882169436353    -1.117662560785     0.454892279135    12.000000000000
         C            1.885456436353     1.123197439215    -0.448605720865    12.000000000000
         C           -4.648961563647    -0.004597560785     0.021806279135    12.000000000000
         C            3.277185436353    -1.119522560785     0.454263279135    12.000000000000
         C            3.280486436353     1.122606439215    -0.443653720865    12.000000000000
         C            3.980968436353     0.000970439215     0.006439279135    12.000000000000
         H           -0.488130563647    -1.974807560785    -0.839907720865     1.007825032230
         H           -0.488643563647     1.987381439215     0.830992279135     1.007825032230
         H           -2.959470563647    -1.978232560785    -0.827572720865     1.007825032230
         H           -2.959859563647     1.997915439215     0.799890279135     1.007825032230
         H            1.336521436353    -1.980201560785     0.832307279135     1.007825032230
         H            1.342544436353     1.986569439215    -0.828009720865     1.007825032230
         H           -5.054772563647     1.002275439215    -0.112085720865     1.007825032230
         H           -5.054294563647    -0.642089560785    -0.769207720865     1.007825032230
         H           -5.020220563647    -0.387230560785     0.979008279135     1.007825032230
         H            3.816182436353    -1.992844560785     0.814652279135     1.007825032230
         H            3.822094436353     1.994972439215    -0.802436720865     1.007825032230
         H            5.068318436353     0.000044439215     0.008108279135     1.007825032230

  Basis Set: AUG-CC-PVTZ
    Blend: AUG-CC-PVTZ
  Basis Set: (AUG-CC-PVTZ AUX)
    Blend: AUG-CC-PVTZ-JKFIT
	 Reference Energy          =    -499.4354176193990043 [Eh]
	 Singles Energy            =      -0.0000000000000000 [Eh]
	 Same-Spin Energy          =      -0.5668181008643822 [Eh]
	 Opposite-Spin Energy      =      -1.7822216213750512 [Eh]
	 Correlation Energy        =      -2.3490397222394335 [Eh]
	 Total Energy              =    -501.7844573416384151 [Eh]

	 ================> DF-SCS-MP2 Energies <==================
	-----------------------------------------------------------
	 SCS Same-Spin Scale       =       0.3333333333333333 [-]
	 SCS Opposite-Spin Scale   =       1.2000000000000000 [-]
	 SCS Same-Spin Energy      =      -0.1889393669547941 [Eh]
	 SCS Opposite-Spin Energy  =      -2.1386659456500614 [Eh]
	 SCS Correlation Energy    =      -2.3276053126048555 [Eh]
	 SCS Total Energy          =    -501.7630229320038779 [Eh]
	-----------------------------------------------------------

  Dipole Moment: [D]
     X:    -0.3705      Y:    -0.0054      Z:     0.0364     Total:     0.3723

*** Psi4 exiting successfully. Buy a developer a beer!
