                               Psi4 1.4a3.dev225

  ==> Input File <==

--------------------------------------------------------------------------
#psi4
#
memory 32 gb

molecule  {
0 1
  C       -0.2875170     0.0120766     0.0039323
  C        1.2106340     0.0001110     0.0000760
  C       -3.1008180     0.0056250    -0.0137190
  C       -0.9855960    -1.1139970    -0.4586890
  C       -0.9858100     1.1188490     0.4479860
  C       -2.3796020    -1.1098520    -0.4588000
  C       -2.3797760     1.1173260     0.4409920
  C        1.9242530    -1.1209430     0.4529070
  C        1.9275400     1.1199170    -0.4505910
  C       -4.6068780    -0.0078780     0.0198210
  C        3.3192690    -1.1228030     0.4522780
  C        3.3225700     1.1193260    -0.4456390
  C        4.0230520    -0.0023100     0.0044540
  H       -0.4460470    -1.9780880    -0.8418930
  H       -0.4465600     1.9841010     0.8290070
  H       -2.9173870    -1.9815130    -0.8295580
  H       -2.9177760     1.9946350     0.7979050
  H        1.3786050    -1.9834820     0.8303220
  H        1.3846280     1.9832890    -0.8299950
  H       -5.0126890     0.9989950    -0.1140710
  H       -5.0122110    -0.6453700    -0.7711930
  H       -4.9781370    -0.3905110     0.9770230
  H        3.8582660    -1.9961250     0.8126670
  H        3.8641780     1.9916920    -0.8044220
  H        5.1104020    -0.0032360     0.0061230
units angstrom
no_reorient  #important for SAPT in psi4, default
symmetry c1  #important for SAPT in psi4, default
}

set PROPERTIES_ORIGIN ["COM"]
properties('MP2/aug-cc-pvtz', properties = ['dipole'])
--------------------------------------------------------------------------

    Molecular point group: c1
  Charge       = 0
  Multiplicity = 1
  Basis Set: AUG-CC-PVTZ
    Blend: AUG-CC-PVTZ
  Basis Set: (AUG-CC-PVTZ AUX)
    Blend: AUG-CC-PVTZ-JKFIT

    Orbital Energies [Eh]
    ---------------------

    Doubly Occupied:

       1A    -11.245726     2A    -11.242309     3A    -11.240401
       4A    -11.236908     5A    -11.236631     6A    -11.235228
       7A    -11.234208     8A    -11.233983     9A    -11.233715
      10A    -11.233153    11A    -11.232206    12A    -11.231818
      13A    -11.225439    14A     -1.168225    15A     -1.141815
      16A     -1.064320    17A     -1.017208    18A     -1.009185
      19A     -1.004011    20A     -0.928767    21A     -0.841062
      22A     -0.830830    23A     -0.812067    24A     -0.780035
      25A     -0.711218    26A     -0.665735    27A     -0.646108
      28A     -0.641414    29A     -0.613906    30A     -0.613373
      31A     -0.588541    32A     -0.581037    33A     -0.576212
      34A     -0.569066    35A     -0.541474    36A     -0.512673
      37A     -0.508620    38A     -0.497841    39A     -0.483556
      40A     -0.481211    41A     -0.476598    42A     -0.358196
      43A     -0.337567    44A     -0.335801    45A     -0.297978

  @DF-RHF Final Energy:  -499.44995430083100

   => Energetics <=

    Nuclear Repulsion Energy =            687.3683879349571271
    One-Electron Energy =               -2038.2419370636928306
    Two-Electron Energy =                 851.4235948279047079
    Total Energy =                       -499.4499543008309956
  Basis Set: (AUG-CC-PVTZ AUX)
    Blend: AUG-CC-PVTZ-RI
    Molecular point group: c1

    Geometry (in Angstrom), charge = 0, multiplicity = 1:

       Center              X                  Y                   Z               Mass
    ------------   -----------------  -----------------  -----------------  -----------------
         C           -0.322218553966     0.011127381872     0.003917432793    12.000000000000
         C            1.175932446034    -0.000838218128     0.000061132793    12.000000000000
         C           -3.135519553966     0.004675781872    -0.013733867207    12.000000000000
         C           -1.020297553966    -1.114946218128    -0.458703867207    12.000000000000
         C           -1.020511553966     1.117899781872     0.447971132793    12.000000000000
         C           -2.414303553966    -1.110801218128    -0.458814867207    12.000000000000
         C           -2.414477553966     1.116376781872     0.440977132793    12.000000000000
         C            1.889551446034    -1.121892218128     0.452892132793    12.000000000000
         C            1.892838446034     1.118967781872    -0.450605867207    12.000000000000
         C           -4.641579553966    -0.008827218128     0.019806132793    12.000000000000
         C            3.284567446034    -1.123752218128     0.452263132793    12.000000000000
         C            3.287868446034     1.118376781872    -0.445653867207    12.000000000000
         C            3.988350446034    -0.003259218128     0.004439132793    12.000000000000
         H           -0.480748553966    -1.979037218128    -0.841907867207     1.007825032230
         H           -0.481261553966     1.983151781872     0.828992132793     1.007825032230
         H           -2.952088553966    -1.982462218128    -0.829572867207     1.007825032230
         H           -2.952477553966     1.993685781872     0.797890132793     1.007825032230
         H            1.343903446034    -1.984431218128     0.830307132793     1.007825032230
         H            1.349926446034     1.982339781872    -0.830009867207     1.007825032230
         H           -5.047390553966     0.998045781872    -0.114085867207     1.007825032230
         H           -5.046912553966    -0.646319218128    -0.771207867207     1.007825032230
         H           -5.012838553966    -0.391460218128     0.977008132793     1.007825032230
         H            3.823564446034    -1.997074218128     0.812652132793     1.007825032230
         H            3.829476446034     1.990742781872    -0.804436867207     1.007825032230
         H            5.075700446034    -0.004185218128     0.006108132793     1.007825032230

  Basis Set: AUG-CC-PVTZ
    Blend: AUG-CC-PVTZ
  Basis Set: (AUG-CC-PVTZ AUX)
    Blend: AUG-CC-PVTZ-JKFIT
	 Reference Energy          =    -499.4499543008309956 [Eh]
	 Singles Energy            =      -0.0000000000000000 [Eh]
	 Same-Spin Energy          =      -0.5651203185578756 [Eh]
	 Opposite-Spin Energy      =      -1.7792099815845988 [Eh]
	 Correlation Energy        =      -2.3443303001424742 [Eh]
	 Total Energy              =    -501.7942846009734694 [Eh]

	 ================> DF-SCS-MP2 Energies <==================
	-----------------------------------------------------------
	 SCS Same-Spin Scale       =       0.3333333333333333 [-]
	 SCS Opposite-Spin Scale   =       1.2000000000000000 [-]
	 SCS Same-Spin Energy      =      -0.1883734395192919 [Eh]
	 SCS Opposite-Spin Energy  =      -2.1350519779015182 [Eh]
	 SCS Correlation Energy    =      -2.3234254174208102 [Eh]
	 SCS Total Energy          =    -501.7733797182518174 [Eh]
	-----------------------------------------------------------

  Dipole Moment: [D]
     X:    -0.5126      Y:    -0.0157      Z:     0.0371     Total:     0.5142

*** Psi4 exiting successfully. Buy a developer a beer!
