                               Psi4 1.4a3.dev225

  ==> Input File <==

--------------------------------------------------------------------------
#psi4
#
memory 32 gb

molecule  {
0 1
  C       -0.2663850     0.0008990    -0.0013960
  C        1.2106340     0.0001110     0.0000760
  C       -3.1008180     0.0056250    -0.0137190
  C       -0.9855960    -1.1139970    -0.4586890
  C       -0.9858100     1.1188490     0.4479860
  C       -2.3796020    -1.1098520    -0.4588000
  C       -2.3797760     1.1173260     0.4409920
  C        1.9242530    -1.1209430     0.4529070
  C        1.9275400     1.1199170    -0.4505910
  C       -4.6068780    -0.0078780     0.0198210
  C        3.3192690    -1.1228030     0.4522780
  C        3.3225700     1.1193260    -0.4456390
  C        4.0230520    -0.0023100     0.0044540
  H       -0.4460470    -1.9780880    -0.8418930
  H       -0.4961049     1.9046039     0.7939998
  H       -2.9173870    -1.9815130    -0.8295580
  H       -2.9177760     1.9946350     0.7979050
  H        1.3786050    -1.9834820     0.8303220
  H        1.3846280     1.9832890    -0.8299950
  H       -5.0126890     0.9989950    -0.1140710
  H       -5.0122110    -0.6453700    -0.7711930
  H       -4.9781370    -0.3905110     0.9770230
  H        3.8582660    -1.9961250     0.8126670
  H        3.8641780     1.9916920    -0.8044220
  H        5.1104020    -0.0032360     0.0061230
units angstrom
no_reorient  #important for SAPT in psi4, default
symmetry c1  #important for SAPT in psi4, default
}

set PROPERTIES_ORIGIN ["COM"]
properties('MP2/aug-cc-pvtz', properties = ['dipole'])
--------------------------------------------------------------------------

    Molecular point group: c1
  Charge       = 0
  Multiplicity = 1
  Basis Set: AUG-CC-PVTZ
    Blend: AUG-CC-PVTZ
  Basis Set: (AUG-CC-PVTZ AUX)
    Blend: AUG-CC-PVTZ-JKFIT

    Orbital Energies [Eh]
    ---------------------

    Doubly Occupied:

       1A    -11.244992     2A    -11.241988     3A    -11.240329
       4A    -11.237306     5A    -11.237058     6A    -11.234647
       7A    -11.234581     8A    -11.234461     9A    -11.234219
      10A    -11.231740    11A    -11.231497    12A    -11.225141
      13A    -11.223196    14A     -1.168323    15A     -1.141349
      16A     -1.065443    17A     -1.018665    18A     -1.010181
      19A     -1.004316    20A     -0.928651    21A     -0.844260
      22A     -0.833972    23A     -0.814099    24A     -0.781447
      25A     -0.712963    26A     -0.667933    27A     -0.650214
      28A     -0.645631    29A     -0.616428    30A     -0.613353
      31A     -0.589668    32A     -0.582466    33A     -0.576126
      34A     -0.570793    35A     -0.541248    36A     -0.513540
      37A     -0.508682    38A     -0.498836    39A     -0.482839
      40A     -0.480729    41A     -0.479916    42A     -0.358915
      43A     -0.337444    44A     -0.335623    45A     -0.295846

  @DF-RHF Final Energy:  -499.44440627855806

   => Energetics <=

    Nuclear Repulsion Energy =            687.8659086757699015
    One-Electron Energy =               -2039.1785209992779073
    Two-Electron Energy =                 851.8682060449498294
    Total Energy =                       -499.4444062785580627
  Basis Set: (AUG-CC-PVTZ AUX)
    Blend: AUG-CC-PVTZ-RI
    Molecular point group: c1

    Geometry (in Angstrom), charge = 0, multiplicity = 1:

       Center              X                  Y                   Z               Mass
    ------------   -----------------  -----------------  -----------------  -----------------
         C           -0.302298087574     0.001224369272    -0.000820597529    12.000000000000
         C            1.174720912426     0.000436369272     0.000651402471    12.000000000000
         C           -3.136731087574     0.005950369272    -0.013143597529    12.000000000000
         C           -1.021509087574    -1.113671630728    -0.458113597529    12.000000000000
         C           -1.021723087574     1.119174369272     0.448561402471    12.000000000000
         C           -2.415515087574    -1.109526630728    -0.458224597529    12.000000000000
         C           -2.415689087574     1.117651369272     0.441567402471    12.000000000000
         C            1.888339912426    -1.120617630728     0.453482402471    12.000000000000
         C            1.891626912426     1.120242369272    -0.450015597529    12.000000000000
         C           -4.642791087574    -0.007552630728     0.020396402471    12.000000000000
         C            3.283355912426    -1.122477630728     0.452853402471    12.000000000000
         C            3.286656912426     1.119651369272    -0.445063597529    12.000000000000
         C            3.987138912426    -0.001984630728     0.005029402471    12.000000000000
         H           -0.481960087574    -1.977762630728    -0.841317597529     1.007825032230
         H           -0.532017987574     1.904929269272     0.794575202471     1.007825032230
         H           -2.953300087574    -1.981187630728    -0.828982597529     1.007825032230
         H           -2.953689087574     1.994960369272     0.798480402471     1.007825032230
         H            1.342691912426    -1.983156630728     0.830897402471     1.007825032230
         H            1.348714912426     1.983614369272    -0.829419597529     1.007825032230
         H           -5.048602087574     0.999320369272    -0.113495597529     1.007825032230
         H           -5.048124087574    -0.645044630728    -0.770617597529     1.007825032230
         H           -5.014050087574    -0.390185630728     0.977598402471     1.007825032230
         H            3.822352912426    -1.995799630728     0.813242402471     1.007825032230
         H            3.828264912426     1.992017369272    -0.803846597529     1.007825032230
         H            5.074488912426    -0.002910630728     0.006698402471     1.007825032230

  Basis Set: AUG-CC-PVTZ
    Blend: AUG-CC-PVTZ
  Basis Set: (AUG-CC-PVTZ AUX)
    Blend: AUG-CC-PVTZ-JKFIT
	 Reference Energy          =    -499.4444062785580627 [Eh]
	 Singles Energy            =      -0.0000000000000000 [Eh]
	 Same-Spin Energy          =      -0.5651338224080662 [Eh]
	 Opposite-Spin Energy      =      -1.7789657564210524 [Eh]
	 Correlation Energy        =      -2.3440995788291188 [Eh]
	 Total Energy              =    -501.7885058573871788 [Eh]

	 ================> DF-SCS-MP2 Energies <==================
	-----------------------------------------------------------
	 SCS Same-Spin Scale       =       0.3333333333333333 [-]
	 SCS Opposite-Spin Scale   =       1.2000000000000000 [-]
	 SCS Same-Spin Energy      =      -0.1883779408026887 [Eh]
	 SCS Opposite-Spin Energy  =      -2.1347589077052627 [Eh]
	 SCS Correlation Energy    =      -2.3231368485079513 [Eh]
	 SCS Total Energy          =    -501.7675431270660056 [Eh]
	-----------------------------------------------------------

  Dipole Moment: [D]
     X:    -0.4637      Y:     0.0037      Z:     0.0452     Total:     0.4659

*** Psi4 exiting successfully. Buy a developer a beer!
