                               Psi4 1.4a3.dev225

  ==> Input File <==

--------------------------------------------------------------------------
#psi4
#
memory 32 gb

molecule  {
0 1
  C       -0.2663850     0.0008990    -0.0013960
  C        1.2106340     0.0001110     0.0000760
  C       -3.1008180     0.0056250    -0.0137190
  C       -0.9855960    -1.1139970    -0.4586890
  C       -0.9858100     1.1188490     0.4479860
  C       -2.3796020    -1.1098520    -0.4588000
  C       -2.3797760     1.1173260     0.4409920
  C        1.9242530    -1.1209430     0.4529070
  C        1.9275400     1.1199170    -0.4505910
  C       -4.6068780    -0.0078780     0.0198210
  C        3.3192690    -1.1228030     0.4522780
  C        3.3225700     1.1193260    -0.4456390
  C        3.9371699     0.0401402    -0.0136866
  H       -0.4460470    -1.9780880    -0.8418930
  H       -0.4465600     1.9841010     0.8290070
  H       -2.9173870    -1.9815130    -0.8295580
  H       -2.9177760     1.9946350     0.7979050
  H        1.3786050    -1.9834820     0.8303220
  H        1.3846280     1.9832890    -0.8299950
  H       -5.0126890     0.9989950    -0.1140710
  H       -5.0122110    -0.6453700    -0.7711930
  H       -4.9781370    -0.3905110     0.9770230
  H        3.8582660    -1.9961250     0.8126670
  H        3.8641780     1.9916920    -0.8044220
  H        5.1104020    -0.0032360     0.0061230
units angstrom
no_reorient  #important for SAPT in psi4, default
symmetry c1  #important for SAPT in psi4, default
}

set PROPERTIES_ORIGIN ["COM"]
properties('MP2/aug-cc-pvtz', properties = ['dipole'])
--------------------------------------------------------------------------

    Molecular point group: c1
  Charge       = 0
  Multiplicity = 1
  Basis Set: AUG-CC-PVTZ
    Blend: AUG-CC-PVTZ
  Basis Set: (AUG-CC-PVTZ AUX)
    Blend: AUG-CC-PVTZ-JKFIT

    Orbital Energies [Eh]
    ---------------------

    Doubly Occupied:

       1A    -11.243354     2A    -11.242123     3A    -11.240917
       4A    -11.236989     5A    -11.235039     6A    -11.234898
       7A    -11.234846     8A    -11.234682     9A    -11.232908
      10A    -11.231789    11A    -11.231710    12A    -11.226579
      13A    -11.225241    14A     -1.171646    15A     -1.146428
      16A     -1.067948    17A     -1.021207    18A     -1.010706
      19A     -1.003541    20A     -0.927889    21A     -0.844239
      22A     -0.828993    23A     -0.814010    24A     -0.778481
      25A     -0.713211    26A     -0.656153    27A     -0.647605
      28A     -0.641718    29A     -0.619294    30A     -0.615767
      31A     -0.591791    32A     -0.581529    33A     -0.575868
      34A     -0.562979    35A     -0.541481    36A     -0.513771
      37A     -0.507260    38A     -0.498468    39A     -0.484353
      40A     -0.481189    41A     -0.469735    42A     -0.363657
      43A     -0.338528    44A     -0.335967    45A     -0.296925

  @DF-RHF Final Energy:  -499.43781343933802

   => Energetics <=

    Nuclear Repulsion Energy =            689.1075788176278820
    One-Electron Energy =               -2041.6839595493775050
    Two-Electron Energy =                 853.1385672924116079
    Total Energy =                       -499.4378134393380151
  Basis Set: (AUG-CC-PVTZ AUX)
    Blend: AUG-CC-PVTZ-RI
    Molecular point group: c1

    Geometry (in Angstrom), charge = 0, multiplicity = 1:

       Center              X                  Y                   Z               Mass
    ------------   -----------------  -----------------  -----------------  -----------------
         C           -0.296464130439    -0.002282727452     0.000264546352    12.000000000000
         C            1.180554869561    -0.003070727452     0.001736546352    12.000000000000
         C           -3.130897130439     0.002443272548    -0.012058453648    12.000000000000
         C           -1.015675130439    -1.117178727452    -0.457028453648    12.000000000000
         C           -1.015889130439     1.115667272548     0.449646546352    12.000000000000
         C           -2.409681130439    -1.113033727452    -0.457139453648    12.000000000000
         C           -2.409855130439     1.114144272548     0.442652546352    12.000000000000
         C            1.894173869561    -1.124124727452     0.454567546352    12.000000000000
         C            1.897460869561     1.116735272548    -0.448930453648    12.000000000000
         C           -4.636957130439    -0.011059727452     0.021481546352    12.000000000000
         C            3.289189869561    -1.125984727452     0.453938546352    12.000000000000
         C            3.292490869561     1.116144272548    -0.443978453648    12.000000000000
         C            3.907090769561     0.036958472548    -0.012026053648    12.000000000000
         H           -0.476126130439    -1.981269727452    -0.840232453648     1.007825032230
         H           -0.476639130439     1.980919272548     0.830667546352     1.007825032230
         H           -2.947466130439    -1.984694727452    -0.827897453648     1.007825032230
         H           -2.947855130439     1.991453272548     0.799565546352     1.007825032230
         H            1.348525869561    -1.986663727452     0.831982546352     1.007825032230
         H            1.354548869561     1.980107272548    -0.828334453648     1.007825032230
         H           -5.042768130439     0.995813272548    -0.112410453648     1.007825032230
         H           -5.042290130439    -0.648551727452    -0.769532453648     1.007825032230
         H           -5.008216130439    -0.393692727452     0.978683546352     1.007825032230
         H            3.828186869561    -1.999306727452     0.814327546352     1.007825032230
         H            3.834098869561     1.988510272548    -0.802761453648     1.007825032230
         H            5.080322869561    -0.006417727452     0.007783546352     1.007825032230

  Basis Set: AUG-CC-PVTZ
    Blend: AUG-CC-PVTZ
  Basis Set: (AUG-CC-PVTZ AUX)
    Blend: AUG-CC-PVTZ-JKFIT
	 Reference Energy          =    -499.4378134393380151 [Eh]
	 Singles Energy            =      -0.0000000000000000 [Eh]
	 Same-Spin Energy          =      -0.5656019369154297 [Eh]
	 Opposite-Spin Energy      =      -1.7799243183176467 [Eh]
	 Correlation Energy        =      -2.3455262552330765 [Eh]
	 Total Energy              =    -501.7833396945711115 [Eh]

	 ================> DF-SCS-MP2 Energies <==================
	-----------------------------------------------------------
	 SCS Same-Spin Scale       =       0.3333333333333333 [-]
	 SCS Opposite-Spin Scale   =       1.2000000000000000 [-]
	 SCS Same-Spin Energy      =      -0.1885339789718099 [Eh]
	 SCS Opposite-Spin Energy  =      -2.1359091819811762 [Eh]
	 SCS Correlation Energy    =      -2.3244431609529861 [Eh]
	 SCS Total Energy          =    -501.7622566002909821 [Eh]
	-----------------------------------------------------------

  Dipole Moment: [D]
     X:    -0.5156      Y:    -0.0235      Z:     0.0405     Total:     0.5177

*** Psi4 exiting successfully. Buy a developer a beer!
