                               Psi4 1.4a3.dev225

  ==> Input File <==

--------------------------------------------------------------------------
#psi4
#
memory 32 gb

molecule  {
0 1
  C       -0.2663850     0.0008990    -0.0013960
  C        1.2106340     0.0001110     0.0000760
  C       -3.1008180     0.0056250    -0.0137190
  C       -0.9855960    -1.1139970    -0.4586890
  C       -0.9858100     1.1188490     0.4479860
  C       -2.3796020    -1.1098520    -0.4588000
  C       -2.3797760     1.1173260     0.4409920
  C        1.9242530    -1.1209430     0.4529070
  C        1.9275400     1.1199170    -0.4505910
  C       -4.6068780    -0.0078780     0.0198210
  C        3.3192690    -1.1228030     0.4522780
  C        3.3225700     1.1193260    -0.4456390
  C        4.0230520    -0.0023100     0.0044540
  H       -0.4460470    -1.9780880    -0.8418930
  H       -0.4465600     1.9841010     0.8290070
  H       -2.9173870    -1.9815130    -0.8295580
  H       -2.9177760     1.9946350     0.7979050
  H        1.3535335    -2.0231140     0.8476635
  H        1.3846280     1.9832890    -0.8299950
  H       -5.0126890     0.9989950    -0.1140710
  H       -5.0122110    -0.6453700    -0.7711930
  H       -4.9781370    -0.3905110     0.9770230
  H        3.8582660    -1.9961250     0.8126670
  H        3.8641780     1.9916920    -0.8044220
  H        5.1104020    -0.0032360     0.0061230
units angstrom
no_reorient  #important for SAPT in psi4, default
symmetry c1  #important for SAPT in psi4, default
}

set PROPERTIES_ORIGIN ["COM"]
properties('MP2/aug-cc-pvtz', properties = ['dipole'])
--------------------------------------------------------------------------

    Molecular point group: c1
  Charge       = 0
  Multiplicity = 1
  Basis Set: AUG-CC-PVTZ
    Blend: AUG-CC-PVTZ
  Basis Set: (AUG-CC-PVTZ AUX)
    Blend: AUG-CC-PVTZ-JKFIT

    Orbital Energies [Eh]
    ---------------------

    Doubly Occupied:

       1A    -11.245509     2A    -11.242544     3A    -11.241192
       4A    -11.240252     5A    -11.237402     6A    -11.237122
       7A    -11.235265     8A    -11.235098     9A    -11.234849
      10A    -11.234547    11A    -11.232017    12A    -11.231927
      13A    -11.225462    14A     -1.167977    15A     -1.141342
      16A     -1.065316    17A     -1.016222    18A     -1.008296
      19A     -1.004022    20A     -0.928713    21A     -0.840050
      22A     -0.832492    23A     -0.810197    24A     -0.779329
      25A     -0.710557    26A     -0.663883    27A     -0.645976
      28A     -0.641400    29A     -0.613716    30A     -0.612326
      31A     -0.586114    32A     -0.579071    33A     -0.576261
      34A     -0.570378    35A     -0.541295    36A     -0.512379
      37A     -0.508452    38A     -0.496588    39A     -0.481958
      40A     -0.480834    41A     -0.478338    42A     -0.359228
      43A     -0.337620    44A     -0.335864    45A     -0.296214

  @DF-RHF Final Energy:  -499.44749075870334

   => Energetics <=

    Nuclear Repulsion Energy =            687.1008015284003250
    One-Electron Energy =               -2037.7053949348776314
    Two-Electron Energy =                 851.1571026477739679
    Total Energy =                       -499.4474907587033385
  Basis Set: (AUG-CC-PVTZ AUX)
    Blend: AUG-CC-PVTZ-RI
    Molecular point group: c1

    Geometry (in Angstrom), charge = 0, multiplicity = 1:

       Center              X                  Y                   Z               Mass
    ------------   -----------------  -----------------  -----------------  -----------------
         C           -0.302444820472     0.000985353783    -0.001134459782    12.000000000000
         C            1.174574179528     0.000197353783     0.000337540218    12.000000000000
         C           -3.136877820472     0.005711353783    -0.013457459782    12.000000000000
         C           -1.021655820472    -1.113910646217    -0.458427459782    12.000000000000
         C           -1.021869820472     1.118935353783     0.448247540218    12.000000000000
         C           -2.415661820472    -1.109765646217    -0.458538459782    12.000000000000
         C           -2.415835820472     1.117412353783     0.441253540218    12.000000000000
         C            1.888193179528    -1.120856646217     0.453168540218    12.000000000000
         C            1.891480179528     1.120003353783    -0.450329459782    12.000000000000
         C           -4.642937820472    -0.007791646217     0.020082540218    12.000000000000
         C            3.283209179528    -1.122716646217     0.452539540218    12.000000000000
         C            3.286510179528     1.119412353783    -0.445377459782    12.000000000000
         C            3.986992179528    -0.002223646217     0.004715540218    12.000000000000
         H           -0.482106820472    -1.978001646217    -0.841631459782     1.007825032230
         H           -0.482619820472     1.984187353783     0.829268540218     1.007825032230
         H           -2.953446820472    -1.981426646217    -0.829296459782     1.007825032230
         H           -2.953835820472     1.994721353783     0.798166540218     1.007825032230
         H            1.317473679528    -2.023027646217     0.847925040218     1.007825032230
         H            1.348568179528     1.983375353783    -0.829733459782     1.007825032230
         H           -5.048748820472     0.999081353783    -0.113809459782     1.007825032230
         H           -5.048270820472    -0.645283646217    -0.770931459782     1.007825032230
         H           -5.014196820472    -0.390424646217     0.977284540218     1.007825032230
         H            3.822206179528    -1.996038646217     0.812928540218     1.007825032230
         H            3.828118179528     1.991778353783    -0.804160459782     1.007825032230
         H            5.074342179528    -0.003149646217     0.006384540218     1.007825032230

  Basis Set: AUG-CC-PVTZ
    Blend: AUG-CC-PVTZ
  Basis Set: (AUG-CC-PVTZ AUX)
    Blend: AUG-CC-PVTZ-JKFIT
	 Reference Energy          =    -499.4474907587033385 [Eh]
	 Singles Energy            =      -0.0000000000000000 [Eh]
	 Same-Spin Energy          =      -0.5655279539635979 [Eh]
	 Opposite-Spin Energy      =      -1.7800754675729555 [Eh]
	 Correlation Energy        =      -2.3456034215365533 [Eh]
	 Total Energy              =    -501.7930941802399047 [Eh]

	 ================> DF-SCS-MP2 Energies <==================
	-----------------------------------------------------------
	 SCS Same-Spin Scale       =       0.3333333333333333 [-]
	 SCS Opposite-Spin Scale   =       1.2000000000000000 [-]
	 SCS Same-Spin Energy      =      -0.1885093179878660 [Eh]
	 SCS Opposite-Spin Energy  =      -2.1360905610875465 [Eh]
	 SCS Correlation Energy    =      -2.3245998790754125 [Eh]
	 SCS Total Energy          =    -501.7720906377787742 [Eh]
	-----------------------------------------------------------

  Dipole Moment: [D]
     X:    -0.4737      Y:    -0.0014      Z:     0.0308     Total:     0.4747

*** Psi4 exiting successfully. Buy a developer a beer!
