                               Psi4 1.4a3.dev225

  ==> Input File <==

--------------------------------------------------------------------------
#psi4
#
memory 32 gb

molecule  {
0 1
  C       -0.2663850     0.0008990    -0.0013960
  C        1.2106340     0.0001110     0.0000760
  C       -3.1008180     0.0056250    -0.0137190
  C       -0.9855960    -1.1139970    -0.4586890
  C       -0.9601772     1.0790169     0.4319747
  C       -2.3796020    -1.1098520    -0.4588000
  C       -2.3797760     1.1173260     0.4409920
  C        1.9242530    -1.1209430     0.4529070
  C        1.9275400     1.1199170    -0.4505910
  C       -4.6068780    -0.0078780     0.0198210
  C        3.3192690    -1.1228030     0.4522780
  C        3.3225700     1.1193260    -0.4456390
  C        4.0230520    -0.0023100     0.0044540
  H       -0.4460470    -1.9780880    -0.8418930
  H       -0.4465600     1.9841010     0.8290070
  H       -2.9173870    -1.9815130    -0.8295580
  H       -2.9177760     1.9946350     0.7979050
  H        1.3786050    -1.9834820     0.8303220
  H        1.3846280     1.9832890    -0.8299950
  H       -5.0126890     0.9989950    -0.1140710
  H       -5.0122110    -0.6453700    -0.7711930
  H       -4.9781370    -0.3905110     0.9770230
  H        3.8582660    -1.9961250     0.8126670
  H        3.8641780     1.9916920    -0.8044220
  H        5.1104020    -0.0032360     0.0061230
units angstrom
no_reorient  #important for SAPT in psi4, default
symmetry c1  #important for SAPT in psi4, default
}

set PROPERTIES_ORIGIN ["COM"]
properties('MP2/aug-cc-pvtz', properties = ['dipole'])
--------------------------------------------------------------------------

    Molecular point group: c1
  Charge       = 0
  Multiplicity = 1
  Basis Set: AUG-CC-PVTZ
    Blend: AUG-CC-PVTZ
  Basis Set: (AUG-CC-PVTZ AUX)
    Blend: AUG-CC-PVTZ-JKFIT

    Orbital Energies [Eh]
    ---------------------

    Doubly Occupied:

       1A    -11.244620     2A    -11.242552     3A    -11.237022
       4A    -11.236768     5A    -11.236479     6A    -11.235467
       7A    -11.234475     8A    -11.234372     9A    -11.234178
      10A    -11.233955    11A    -11.233499    12A    -11.232100
      13A    -11.225429    14A     -1.170661    15A     -1.141598
      16A     -1.068239    17A     -1.015714    18A     -1.006371
      19A     -1.004488    20A     -0.930781    21A     -0.842454
      22A     -0.831741    23A     -0.812248    24A     -0.778298
      25A     -0.712758    26A     -0.666137    27A     -0.647184
      28A     -0.638567    29A     -0.615448    30A     -0.612697
      31A     -0.586786    32A     -0.578378    33A     -0.575169
      34A     -0.572513    35A     -0.542599    36A     -0.511724
      37A     -0.509805    38A     -0.497713    39A     -0.484550
      40A     -0.481884    41A     -0.474833    42A     -0.360718
      43A     -0.336695    44A     -0.332991    45A     -0.299640

  @DF-RHF Final Energy:  -499.44718516971710

   => Energetics <=

    Nuclear Repulsion Energy =            688.0529814107043194
    One-Electron Energy =               -2039.5957356463934502
    Two-Electron Energy =                 852.0955690659721995
    Total Energy =                       -499.4471851697170450
  Basis Set: (AUG-CC-PVTZ AUX)
    Blend: AUG-CC-PVTZ-RI
    Molecular point group: c1

    Geometry (in Angstrom), charge = 0, multiplicity = 1:

       Center              X                  Y                   Z               Mass
    ------------   -----------------  -----------------  -----------------  -----------------
         C           -0.304425030846     0.003591296517     0.000112538457    12.000000000000
         C            1.172593969154     0.002803296517     0.001584538457    12.000000000000
         C           -3.138858030846     0.008317296517    -0.012210461543    12.000000000000
         C           -1.023636030846    -1.111304703483    -0.457180461543    12.000000000000
         C           -0.998217230846     1.081709196517     0.433483238457    12.000000000000
         C           -2.417642030846    -1.107159703483    -0.457291461543    12.000000000000
         C           -2.417816030846     1.120018296517     0.442500538457    12.000000000000
         C            1.886212969154    -1.118250703483     0.454415538457    12.000000000000
         C            1.889499969154     1.122609296517    -0.449082461543    12.000000000000
         C           -4.644918030846    -0.005185703483     0.021329538457    12.000000000000
         C            3.281228969154    -1.120110703483     0.453786538457    12.000000000000
         C            3.284529969154     1.122018296517    -0.444130461543    12.000000000000
         C            3.985011969154     0.000382296517     0.005962538457    12.000000000000
         H           -0.484087030846    -1.975395703483    -0.840384461543     1.007825032230
         H           -0.484600030846     1.986793296517     0.830515538457     1.007825032230
         H           -2.955427030846    -1.978820703483    -0.828049461543     1.007825032230
         H           -2.955816030846     1.997327296517     0.799413538457     1.007825032230
         H            1.340564969154    -1.980789703483     0.831830538457     1.007825032230
         H            1.346587969154     1.985981296517    -0.828486461543     1.007825032230
         H           -5.050729030846     1.001687296517    -0.112562461543     1.007825032230
         H           -5.050251030846    -0.642677703483    -0.769684461543     1.007825032230
         H           -5.016177030846    -0.387818703483     0.978531538457     1.007825032230
         H            3.820225969154    -1.993432703483     0.814175538457     1.007825032230
         H            3.826137969154     1.994384296517    -0.802913461543     1.007825032230
         H            5.072361969154    -0.000543703483     0.007631538457     1.007825032230

  Basis Set: AUG-CC-PVTZ
    Blend: AUG-CC-PVTZ
  Basis Set: (AUG-CC-PVTZ AUX)
    Blend: AUG-CC-PVTZ-JKFIT
	 Reference Energy          =    -499.4471851697171019 [Eh]
	 Singles Energy            =      -0.0000000000000000 [Eh]
	 Same-Spin Energy          =      -0.5653053514055241 [Eh]
	 Opposite-Spin Energy      =      -1.7796064794721693 [Eh]
	 Correlation Energy        =      -2.3449118308776935 [Eh]
	 Total Energy              =    -501.7920970005948220 [Eh]

	 ================> DF-SCS-MP2 Energies <==================
	-----------------------------------------------------------
	 SCS Same-Spin Scale       =       0.3333333333333333 [-]
	 SCS Opposite-Spin Scale   =       1.2000000000000000 [-]
	 SCS Same-Spin Energy      =      -0.1884351171351747 [Eh]
	 SCS Opposite-Spin Energy  =      -2.1355277753666031 [Eh]
	 SCS Correlation Energy    =      -2.3239628925017777 [Eh]
	 SCS Total Energy          =    -501.7711480622188560 [Eh]
	-----------------------------------------------------------

  Dipole Moment: [D]
     X:    -0.5039      Y:    -0.0135      Z:     0.0356     Total:     0.5053

*** Psi4 exiting successfully. Buy a developer a beer!
