                               Psi4 1.4a3.dev225

  ==> Input File <==

--------------------------------------------------------------------------
#psi4
#
memory 32 gb

molecule  {
0 1
  C       -0.2875253     0.0123552     0.0032660
  C        1.2106340     0.0001110     0.0000760
  C       -3.1008180     0.0056250    -0.0137190
  C       -0.9855960    -1.1139970    -0.4586890
  C       -0.9858100     1.1188490     0.4479860
  C       -2.3796020    -1.1098520    -0.4588000
  C       -2.3797760     1.1173260     0.4409920
  C        1.9242530    -1.1209430     0.4529070
  C        1.9275400     1.1199170    -0.4505910
  C       -4.6068780    -0.0078780     0.0198210
  C        3.3192690    -1.1228030     0.4522780
  C        3.3225700     1.1193260    -0.4456390
  C        4.0230520    -0.0023100     0.0044540
  H       -0.4460470    -1.9780880    -0.8418930
  H       -0.4465600     1.9841010     0.8290070
  H       -2.9173870    -1.9815130    -0.8295580
  H       -2.9177760     1.9946350     0.7979050
  H        1.3786050    -1.9834820     0.8303220
  H        1.3846280     1.9832890    -0.8299950
  H       -5.0126890     0.9989950    -0.1140710
  H       -5.0122110    -0.6453700    -0.7711930
  H       -4.9781370    -0.3905110     0.9770230
  H        3.8582660    -1.9961250     0.8126670
  H        3.8641780     1.9916920    -0.8044220
  H        5.1104020    -0.0032360     0.0061230
units angstrom
no_reorient  #important for SAPT in psi4, default
symmetry c1  #important for SAPT in psi4, default
}

set PROPERTIES_ORIGIN ["COM"]
properties('MP2/aug-cc-pvtz', properties = ['dipole'])
--------------------------------------------------------------------------

    Molecular point group: c1
  Charge       = 0
  Multiplicity = 1
  Basis Set: AUG-CC-PVTZ
    Blend: AUG-CC-PVTZ
  Basis Set: (AUG-CC-PVTZ AUX)
    Blend: AUG-CC-PVTZ-JKFIT

    Orbital Energies [Eh]
    ---------------------

    Doubly Occupied:

       1A    -11.245727     2A    -11.242309     3A    -11.240400
       4A    -11.236909     5A    -11.236629     6A    -11.235225
       7A    -11.234212     8A    -11.233983     9A    -11.233710
      10A    -11.233154    11A    -11.232206    12A    -11.231819
      13A    -11.225439    14A     -1.168225    15A     -1.141816
      16A     -1.064320    17A     -1.017208    18A     -1.009186
      19A     -1.004011    20A     -0.928767    21A     -0.841062
      22A     -0.830829    23A     -0.812068    24A     -0.780035
      25A     -0.711218    26A     -0.665735    27A     -0.646108
      28A     -0.641414    29A     -0.613904    30A     -0.613376
      31A     -0.588541    32A     -0.581038    33A     -0.576213
      34A     -0.569063    35A     -0.541474    36A     -0.512673
      37A     -0.508620    38A     -0.497841    39A     -0.483554
      40A     -0.481224    41A     -0.476588    42A     -0.358196
      43A     -0.337567    44A     -0.335800    45A     -0.297979

  @DF-RHF Final Energy:  -499.44995404383036

   => Energetics <=

    Nuclear Repulsion Energy =            687.3684687988597943
    One-Electron Energy =               -2038.2421040936953887
    Two-Electron Energy =                 851.4236812510052914
    Total Energy =                       -499.4499540438303029
  Basis Set: (AUG-CC-PVTZ AUX)
    Blend: AUG-CC-PVTZ-RI
    Molecular point group: c1

    Geometry (in Angstrom), charge = 0, multiplicity = 1:

       Center              X                  Y                   Z               Mass
    ------------   -----------------  -----------------  -----------------  -----------------
         C           -0.322226261440     0.011386092989     0.003298699064    12.000000000000
         C            1.175933038560    -0.000858107011     0.000108699064    12.000000000000
         C           -3.135518961440     0.004655892989    -0.013686300936    12.000000000000
         C           -1.020296961440    -1.114966107011    -0.458656300936    12.000000000000
         C           -1.020510961440     1.117879892989     0.448018699064    12.000000000000
         C           -2.414302961440    -1.110821107011    -0.458767300936    12.000000000000
         C           -2.414476961440     1.116356892989     0.441024699064    12.000000000000
         C            1.889552038560    -1.121912107011     0.452939699064    12.000000000000
         C            1.892839038560     1.118947892989    -0.450558300936    12.000000000000
         C           -4.641578961440    -0.008847107011     0.019853699064    12.000000000000
         C            3.284568038560    -1.123772107011     0.452310699064    12.000000000000
         C            3.287869038560     1.118356892989    -0.445606300936    12.000000000000
         C            3.988351038560    -0.003279107011     0.004486699064    12.000000000000
         H           -0.480747961440    -1.979057107011    -0.841860300936     1.007825032230
         H           -0.481260961440     1.983131892989     0.829039699064     1.007825032230
         H           -2.952087961440    -1.982482107011    -0.829525300936     1.007825032230
         H           -2.952476961440     1.993665892989     0.797937699064     1.007825032230
         H            1.343904038560    -1.984451107011     0.830354699064     1.007825032230
         H            1.349927038560     1.982319892989    -0.829962300936     1.007825032230
         H           -5.047389961440     0.998025892989    -0.114038300936     1.007825032230
         H           -5.046911961440    -0.646339107011    -0.771160300936     1.007825032230
         H           -5.012837961440    -0.391480107011     0.977055699064     1.007825032230
         H            3.823565038560    -1.997094107011     0.812699699064     1.007825032230
         H            3.829477038560     1.990722892989    -0.804389300936     1.007825032230
         H            5.075701038560    -0.004205107011     0.006155699064     1.007825032230

  Basis Set: AUG-CC-PVTZ
    Blend: AUG-CC-PVTZ
  Basis Set: (AUG-CC-PVTZ AUX)
    Blend: AUG-CC-PVTZ-JKFIT
	 Reference Energy          =    -499.4499540438303598 [Eh]
	 Singles Energy            =      -0.0000000000000000 [Eh]
	 Same-Spin Energy          =      -0.5651201710347087 [Eh]
	 Opposite-Spin Energy      =      -1.7792098469352988 [Eh]
	 Correlation Energy        =      -2.3443300179700075 [Eh]
	 Total Energy              =    -501.7942840618003402 [Eh]

	 ================> DF-SCS-MP2 Energies <==================
	-----------------------------------------------------------
	 SCS Same-Spin Scale       =       0.3333333333333333 [-]
	 SCS Opposite-Spin Scale   =       1.2000000000000000 [-]
	 SCS Same-Spin Energy      =      -0.1883733903449029 [Eh]
	 SCS Opposite-Spin Energy  =      -2.1350518163223584 [Eh]
	 SCS Correlation Energy    =      -2.3234252066672614 [Eh]
	 SCS Total Energy          =    -501.7733792504976122 [Eh]
	-----------------------------------------------------------

  Dipole Moment: [D]
     X:    -0.5126      Y:    -0.0158      Z:     0.0372     Total:     0.5142

*** Psi4 exiting successfully. Buy a developer a beer!
