                               Psi4 1.4a3.dev225

  ==> Input File <==

--------------------------------------------------------------------------
#psi4
#
memory 32 gb

molecule  {
0 1
  C       -0.2663850     0.0008990    -0.0013960
  C        1.2106340     0.0001110     0.0000760
  C       -3.1008180     0.0056250    -0.0137190
  C       -0.9855960    -1.1139970    -0.4586890
  C       -0.9858100     1.1188490     0.4479860
  C       -2.3796020    -1.1098520    -0.4588000
  C       -2.3797760     1.1173260     0.4409920
  C        1.9242530    -1.1209430     0.4529070
  C        1.9275400     1.1199170    -0.4505910
  C       -4.6068780    -0.0078780     0.0198210
  C        3.3192690    -1.1228030     0.4522780
  C        3.3225700     1.1193260    -0.4456390
  C        4.0230520    -0.0023100     0.0044540
  H       -0.4460470    -1.9780880    -0.8418930
  H       -0.4465600     1.9841010     0.8290070
  H       -2.9173870    -1.9815130    -0.8295580
  H       -2.9177760     1.9946350     0.7979050
  H        1.3786050    -1.9834820     0.8303220
  H        1.4844125     1.8246056    -0.7602625
  H       -5.0126890     0.9989950    -0.1140710
  H       -5.0122110    -0.6453700    -0.7711930
  H       -4.9781370    -0.3905110     0.9770230
  H        3.8582660    -1.9961250     0.8126670
  H        3.8641780     1.9916920    -0.8044220
  H        5.1104020    -0.0032360     0.0061230
units angstrom
no_reorient  #important for SAPT in psi4, default
symmetry c1  #important for SAPT in psi4, default
}

set PROPERTIES_ORIGIN ["COM"]
properties('MP2/aug-cc-pvtz', properties = ['dipole'])
--------------------------------------------------------------------------

    Molecular point group: c1
  Charge       = 0
  Multiplicity = 1
  Basis Set: AUG-CC-PVTZ
    Blend: AUG-CC-PVTZ
  Basis Set: (AUG-CC-PVTZ AUX)
    Blend: AUG-CC-PVTZ-JKFIT

    Orbital Energies [Eh]
    ---------------------

    Doubly Occupied:

       1A    -11.243531     2A    -11.242786     3A    -11.241301
       4A    -11.236554     5A    -11.235679     6A    -11.235648
       7A    -11.235334     8A    -11.233303     9A    -11.233046
      10A    -11.232372    11A    -11.232257    12A    -11.225644
      13A    -11.210555    14A     -1.168932    15A     -1.141902
      16A     -1.065242    17A     -1.023536    18A     -1.010996
      19A     -1.004354    20A     -0.930046    21A     -0.849616
      22A     -0.834645    23A     -0.817687    24A     -0.780483
      25A     -0.720682    26A     -0.678129    27A     -0.646092
      28A     -0.644276    29A     -0.620164    30A     -0.612900
      31A     -0.593264    32A     -0.581698    33A     -0.576856
      34A     -0.571244    35A     -0.541502    36A     -0.515491
      37A     -0.508888    38A     -0.500686    39A     -0.482063
      40A     -0.481380    41A     -0.479705    42A     -0.358630
      43A     -0.337439    44A     -0.335549    45A     -0.295826

  @DF-RHF Final Energy:  -499.41585525577966

   => Energetics <=

    Nuclear Repulsion Energy =            688.4353399998468603
    One-Electron Energy =               -2040.2065654728842219
    Two-Electron Energy =                 852.3553702172575868
    Total Energy =                       -499.4158552557796611
  Basis Set: (AUG-CC-PVTZ AUX)
    Blend: AUG-CC-PVTZ-RI
    Molecular point group: c1

    Geometry (in Angstrom), charge = 0, multiplicity = 1:

       Center              X                  Y                   Z               Mass
    ------------   -----------------  -----------------  -----------------  -----------------
         C           -0.303193408029     0.001699139237    -0.001448575649    12.000000000000
         C            1.173825591971     0.000911139237     0.000023424351    12.000000000000
         C           -3.137626408029     0.006425139237    -0.013771575649    12.000000000000
         C           -1.022404408029    -1.113196860763    -0.458741575649    12.000000000000
         C           -1.022618408029     1.119649139237     0.447933424351    12.000000000000
         C           -2.416410408029    -1.109051860763    -0.458852575649    12.000000000000
         C           -2.416584408029     1.118126139237     0.440939424351    12.000000000000
         C            1.887444591971    -1.120142860763     0.452854424351    12.000000000000
         C            1.890731591971     1.120717139237    -0.450643575649    12.000000000000
         C           -4.643686408029    -0.007077860763     0.019768424351    12.000000000000
         C            3.282460591971    -1.122002860763     0.452225424351    12.000000000000
         C            3.285761591971     1.120126139237    -0.445691575649    12.000000000000
         C            3.986243591971    -0.001509860763     0.004401424351    12.000000000000
         H           -0.482855408029    -1.977287860763    -0.841945575649     1.007825032230
         H           -0.483368408029     1.984901139237     0.828954424351     1.007825032230
         H           -2.954195408029    -1.980712860763    -0.829610575649     1.007825032230
         H           -2.954584408029     1.995435139237     0.797852424351     1.007825032230
         H            1.341796591971    -1.982681860763     0.830269424351     1.007825032230
         H            1.447604091971     1.825405739237    -0.760315075649     1.007825032230
         H           -5.049497408029     0.999795139237    -0.114123575649     1.007825032230
         H           -5.049019408029    -0.644569860763    -0.771245575649     1.007825032230
         H           -5.014945408029    -0.389710860763     0.976970424351     1.007825032230
         H            3.821457591971    -1.995324860763     0.812614424351     1.007825032230
         H            3.827369591971     1.992492139237    -0.804474575649     1.007825032230
         H            5.073593591971    -0.002435860763     0.006070424351     1.007825032230

  Basis Set: AUG-CC-PVTZ
    Blend: AUG-CC-PVTZ
  Basis Set: (AUG-CC-PVTZ AUX)
    Blend: AUG-CC-PVTZ-JKFIT
	 Reference Energy          =    -499.4158552557796611 [Eh]
	 Singles Energy            =      -0.0000000000000000 [Eh]
	 Same-Spin Energy          =      -0.5650144353278580 [Eh]
	 Opposite-Spin Energy      =      -1.7788885766831677 [Eh]
	 Correlation Energy        =      -2.3439030120110256 [Eh]
	 Total Energy              =    -501.7597582677906871 [Eh]

	 ================> DF-SCS-MP2 Energies <==================
	-----------------------------------------------------------
	 SCS Same-Spin Scale       =       0.3333333333333333 [-]
	 SCS Opposite-Spin Scale   =       1.2000000000000000 [-]
	 SCS Same-Spin Energy      =      -0.1883381451092860 [Eh]
	 SCS Opposite-Spin Energy  =      -2.1346662920198010 [Eh]
	 SCS Correlation Energy    =      -2.3230044371290868 [Eh]
	 SCS Total Energy          =    -501.7388596929087612 [Eh]
	-----------------------------------------------------------

  Dipole Moment: [D]
     X:    -0.5127      Y:     0.0084      Z:     0.0263     Total:     0.5135

*** Psi4 exiting successfully. Buy a developer a beer!
