                               Psi4 1.4a3.dev225

  ==> Input File <==

--------------------------------------------------------------------------
#psi4
#
memory 32 gb

molecule  {
0 1
  C       -0.2663850     0.0008990    -0.0013960
  C        1.2106340     0.0001110     0.0000760
  C       -3.1008180     0.0056250    -0.0137190
  C       -0.9855960    -1.1139970    -0.4586890
  C       -0.9858100     1.1188490     0.4479860
  C       -2.3796020    -1.1098520    -0.4588000
  C       -2.3797760     1.1173260     0.4409920
  C        1.9242530    -1.1209430     0.4529070
  C        1.9275400     1.1199170    -0.4505910
  C       -4.6068780    -0.0078780     0.0198210
  C        3.3192690    -1.1228030     0.4522780
  C        3.3225700     1.1193260    -0.4456390
  C        4.0230520    -0.0023100     0.0044540
  H       -0.4460470    -1.9780880    -0.8418930
  H       -0.4465600     1.9841010     0.8290070
  H       -2.9173870    -1.9815130    -0.8295580
  H       -2.9177760     1.9946350     0.7979050
  H        1.3786050    -1.9834820     0.8303220
  H        1.3846280     1.9832890    -0.8299950
  H       -5.0126890     0.9989950    -0.1140710
  H       -5.0122110    -0.6453700    -0.7711930
  H       -4.9781370    -0.3905110     0.9770230
  H        3.8582660    -1.9961250     0.8126670
  H        3.8741368     2.0077326    -0.8110191
  H        5.1104020    -0.0032360     0.0061230
units angstrom
no_reorient  #important for SAPT in psi4, default
symmetry c1  #important for SAPT in psi4, default
}

set PROPERTIES_ORIGIN ["COM"]
properties('MP2/aug-cc-pvtz', properties = ['dipole'])
--------------------------------------------------------------------------

    Molecular point group: c1
  Charge       = 0
  Multiplicity = 1
  Basis Set: AUG-CC-PVTZ
    Blend: AUG-CC-PVTZ
  Basis Set: (AUG-CC-PVTZ AUX)
    Blend: AUG-CC-PVTZ-JKFIT

    Orbital Energies [Eh]
    ---------------------

    Doubly Occupied:

       1A    -11.245075     2A    -11.242633     3A    -11.241267
       4A    -11.239245     5A    -11.237169     6A    -11.235358
       7A    -11.235226     8A    -11.234684     9A    -11.234545
      10A    -11.234290    11A    -11.232127    12A    -11.232052
      13A    -11.225529    14A     -1.168079    15A     -1.141323
      16A     -1.065249    17A     -1.016634    18A     -1.008512
      19A     -1.004153    20A     -0.928912    21A     -0.840419
      22A     -0.832824    23A     -0.811021    24A     -0.779200
      25A     -0.711116    26A     -0.666146    27A     -0.645997
      28A     -0.641448    29A     -0.613563    30A     -0.612724
      31A     -0.587058    32A     -0.579677    33A     -0.576324
      34A     -0.570978    35A     -0.541364    36A     -0.512667
      37A     -0.508725    38A     -0.497428    39A     -0.481993
      40A     -0.480714    41A     -0.478909    42A     -0.359153
      43A     -0.337568    44A     -0.335863    45A     -0.296172

  @DF-RHF Final Energy:  -499.44939005844526

   => Energetics <=

    Nuclear Repulsion Energy =            687.2329321832545475
    One-Electron Energy =               -2037.9624149106284676
    Two-Electron Energy =                 851.2800926689287735
    Total Energy =                       -499.4493900584452604
  Basis Set: (AUG-CC-PVTZ AUX)
    Blend: AUG-CC-PVTZ-RI
    Molecular point group: c1

    Geometry (in Angstrom), charge = 0, multiplicity = 1:

       Center              X                  Y                   Z               Mass
    ------------   -----------------  -----------------  -----------------  -----------------
         C           -0.302654848398     0.000651562731    -0.000990933335    12.000000000000
         C            1.174364151602    -0.000136437269     0.000481066665    12.000000000000
         C           -3.137087848398     0.005377562731    -0.013313933335    12.000000000000
         C           -1.021865848398    -1.114244437269    -0.458283933335    12.000000000000
         C           -1.022079848398     1.118601562731     0.448391066665    12.000000000000
         C           -2.415871848398    -1.110099437269    -0.458394933335    12.000000000000
         C           -2.416045848398     1.117078562731     0.441397066665    12.000000000000
         C            1.887983151602    -1.121190437269     0.453312066665    12.000000000000
         C            1.891270151602     1.119669562731    -0.450185933335    12.000000000000
         C           -4.643147848398    -0.008125437269     0.020226066665    12.000000000000
         C            3.282999151602    -1.123050437269     0.452683066665    12.000000000000
         C            3.286300151602     1.119078562731    -0.445233933335    12.000000000000
         C            3.986782151602    -0.002557437269     0.004859066665    12.000000000000
         H           -0.482316848398    -1.978335437269    -0.841487933335     1.007825032230
         H           -0.482829848398     1.983853562731     0.829412066665     1.007825032230
         H           -2.953656848398    -1.981760437269    -0.829152933335     1.007825032230
         H           -2.954045848398     1.994387562731     0.798310066665     1.007825032230
         H            1.342335151602    -1.983729437269     0.830727066665     1.007825032230
         H            1.348358151602     1.983041562731    -0.829589933335     1.007825032230
         H           -5.048958848398     0.998747562731    -0.113665933335     1.007825032230
         H           -5.048480848398    -0.645617437269    -0.770787933335     1.007825032230
         H           -5.014406848398    -0.390758437269     0.977428066665     1.007825032230
         H            3.821996151602    -1.996372437269     0.813072066665     1.007825032230
         H            3.837866951602     2.007485162731    -0.810614033335     1.007825032230
         H            5.074132151602    -0.003483437269     0.006528066665     1.007825032230

  Basis Set: AUG-CC-PVTZ
    Blend: AUG-CC-PVTZ
  Basis Set: (AUG-CC-PVTZ AUX)
    Blend: AUG-CC-PVTZ-JKFIT
	 Reference Energy          =    -499.4493900584452604 [Eh]
	 Singles Energy            =      -0.0000000000000000 [Eh]
	 Same-Spin Energy          =      -0.5654140335813485 [Eh]
	 Opposite-Spin Energy      =      -1.7797601748084533 [Eh]
	 Correlation Energy        =      -2.3451742083898015 [Eh]
	 Total Energy              =    -501.7945642668350388 [Eh]

	 ================> DF-SCS-MP2 Energies <==================
	-----------------------------------------------------------
	 SCS Same-Spin Scale       =       0.3333333333333333 [-]
	 SCS Opposite-Spin Scale   =       1.2000000000000000 [-]
	 SCS Same-Spin Energy      =      -0.1884713445271161 [Eh]
	 SCS Opposite-Spin Energy  =      -2.1357122097701438 [Eh]
	 SCS Correlation Energy    =      -2.3241835542972598 [Eh]
	 SCS Total Energy          =    -501.7735736127424957 [Eh]
	-----------------------------------------------------------

  Dipole Moment: [D]
     X:    -0.4915      Y:    -0.0204      Z:     0.0395     Total:     0.4935

*** Psi4 exiting successfully. Buy a developer a beer!
