                               Psi4 1.4a3.dev225

  ==> Input File <==

--------------------------------------------------------------------------
#psi4
#
memory 32 gb

molecule  {
0 1
  C       -0.2663850     0.0008990    -0.0013960
  C        1.2106340     0.0001110     0.0000760
  C       -3.1008180     0.0056250    -0.0137190
  C       -0.9855960    -1.1139970    -0.4586890
  C       -0.9858100     1.1188490     0.4479860
  C       -2.3764674    -1.1987250    -0.4982864
  C       -2.3797760     1.1173260     0.4409920
  C        1.9242530    -1.1209430     0.4529070
  C        1.9275400     1.1199170    -0.4505910
  C       -4.6068780    -0.0078780     0.0198210
  C        3.3192690    -1.1228030     0.4522780
  C        3.3225700     1.1193260    -0.4456390
  C        4.0230520    -0.0023100     0.0044540
  H       -0.4460470    -1.9780880    -0.8418930
  H       -0.4465600     1.9841010     0.8290070
  H       -2.9173870    -1.9815130    -0.8295580
  H       -2.9177760     1.9946350     0.7979050
  H        1.3786050    -1.9834820     0.8303220
  H        1.3846280     1.9832890    -0.8299950
  H       -5.0126890     0.9989950    -0.1140710
  H       -5.0122110    -0.6453700    -0.7711930
  H       -4.9781370    -0.3905110     0.9770230
  H        3.8582660    -1.9961250     0.8126670
  H        3.8641780     1.9916920    -0.8044220
  H        5.1104020    -0.0032360     0.0061230
units angstrom
no_reorient  #important for SAPT in psi4, default
symmetry c1  #important for SAPT in psi4, default
}

set PROPERTIES_ORIGIN ["COM"]
properties('MP2/aug-cc-pvtz', properties = ['dipole'])
--------------------------------------------------------------------------

    Molecular point group: c1
  Charge       = 0
  Multiplicity = 1
  Basis Set: AUG-CC-PVTZ
    Blend: AUG-CC-PVTZ
  Basis Set: (AUG-CC-PVTZ AUX)
    Blend: AUG-CC-PVTZ-JKFIT

    Orbital Energies [Eh]
    ---------------------

    Doubly Occupied:

       1A    -11.252261     2A    -11.245098     3A    -11.241152
       4A    -11.237283     5A    -11.237002     6A    -11.236799
       7A    -11.236554     8A    -11.234431     9A    -11.234109
      10A    -11.233923    11A    -11.233690    12A    -11.231342
      13A    -11.225353    14A     -1.165342    15A     -1.136597
      16A     -1.061434    17A     -1.018022    18A     -1.009889
      19A     -1.003253    20A     -0.927189    21A     -0.842782
      22A     -0.829310    23A     -0.812470    24A     -0.778810
      25A     -0.713971    26A     -0.668748    27A     -0.647694
      28A     -0.639459    29A     -0.621030    30A     -0.611852
      31A     -0.590159    32A     -0.582618    33A     -0.574942
      34A     -0.570294    35A     -0.544096    36A     -0.511733
      37A     -0.507873    38A     -0.495637    39A     -0.487258
      40A     -0.478042    41A     -0.469630    42A     -0.356213
      43A     -0.338695    44A     -0.336030    45A     -0.291808

  @DF-RHF Final Energy:  -499.43699663119810

   => Energetics <=

    Nuclear Repulsion Energy =            685.8282387383706009
    One-Electron Energy =               -2035.1267214454628629
    Two-Electron Energy =                 849.8614860758941632
    Total Energy =                       -499.4369966311980988
  Basis Set: (AUG-CC-PVTZ AUX)
    Blend: AUG-CC-PVTZ-RI
    Molecular point group: c1

    Geometry (in Angstrom), charge = 0, multiplicity = 1:

       Center              X                  Y                   Z               Mass
    ------------   -----------------  -----------------  -----------------  -----------------
         C           -0.302818914268     0.007092261148     0.001788394626    12.000000000000
         C            1.174200085732     0.006304261148     0.003260394626    12.000000000000
         C           -3.137251914268     0.011818261148    -0.010534605374    12.000000000000
         C           -1.022029914268    -1.107803738852    -0.455504605374    12.000000000000
         C           -1.022243914268     1.125042261148     0.451170394626    12.000000000000
         C           -2.412901314268    -1.192531738852    -0.495102005374    12.000000000000
         C           -2.416209914268     1.123519261148     0.444176394626    12.000000000000
         C            1.887819085732    -1.114749738852     0.456091394626    12.000000000000
         C            1.891106085732     1.126110261148    -0.447406605374    12.000000000000
         C           -4.643311914268    -0.001684738852     0.023005394626    12.000000000000
         C            3.282835085732    -1.116609738852     0.455462394626    12.000000000000
         C            3.286136085732     1.125519261148    -0.442454605374    12.000000000000
         C            3.986618085732     0.003883261148     0.007638394626    12.000000000000
         H           -0.482480914268    -1.971894738852    -0.838708605374     1.007825032230
         H           -0.482993914268     1.990294261148     0.832191394626     1.007825032230
         H           -2.953820914268    -1.975319738852    -0.826373605374     1.007825032230
         H           -2.954209914268     2.000828261148     0.801089394626     1.007825032230
         H            1.342171085732    -1.977288738852     0.833506394626     1.007825032230
         H            1.348194085732     1.989482261148    -0.826810605374     1.007825032230
         H           -5.049122914268     1.005188261148    -0.110886605374     1.007825032230
         H           -5.048644914268    -0.639176738852    -0.768008605374     1.007825032230
         H           -5.014570914268    -0.384317738852     0.980207394626     1.007825032230
         H            3.821832085732    -1.989931738852     0.815851394626     1.007825032230
         H            3.827744085732     1.997885261148    -0.801237605374     1.007825032230
         H            5.073968085732     0.002957261148     0.009307394626     1.007825032230

  Basis Set: AUG-CC-PVTZ
    Blend: AUG-CC-PVTZ
  Basis Set: (AUG-CC-PVTZ AUX)
    Blend: AUG-CC-PVTZ-JKFIT
	 Reference Energy          =    -499.4369966311980988 [Eh]
	 Singles Energy            =      -0.0000000000000000 [Eh]
	 Same-Spin Energy          =      -0.5653789697677836 [Eh]
	 Opposite-Spin Energy      =      -1.7805794317667534 [Eh]
	 Correlation Energy        =      -2.3459584015345367 [Eh]
	 Total Energy              =    -501.7829550327326160 [Eh]

	 ================> DF-SCS-MP2 Energies <==================
	-----------------------------------------------------------
	 SCS Same-Spin Scale       =       0.3333333333333333 [-]
	 SCS Opposite-Spin Scale   =       1.2000000000000000 [-]
	 SCS Same-Spin Energy      =      -0.1884596565892612 [Eh]
	 SCS Opposite-Spin Energy  =      -2.1366953181201040 [Eh]
	 SCS Correlation Energy    =      -2.3251549747093652 [Eh]
	 SCS Total Energy          =    -501.7621516059074906 [Eh]
	-----------------------------------------------------------

  Dipole Moment: [D]
     X:    -0.5141      Y:    -0.0353      Z:     0.0342     Total:     0.5165

*** Psi4 exiting successfully. Buy a developer a beer!
