                               Psi4 1.4a3.dev225

  ==> Input File <==

--------------------------------------------------------------------------
#psi4
#
memory 32 gb

molecule  {
0 1
  C       -0.2663850     0.0008990    -0.0013960
  C        1.2106340     0.0001110     0.0000760
  C       -3.1008180     0.0056250    -0.0137190
  C       -0.9855960    -1.1139970    -0.4586890
  C       -0.9858100     1.1188490     0.4479860
  C       -2.3996019    -1.1097925    -0.4588016
  C       -2.3797760     1.1173260     0.4409920
  C        1.9242530    -1.1209430     0.4529070
  C        1.9275400     1.1199170    -0.4505910
  C       -4.6068780    -0.0078780     0.0198210
  C        3.3192690    -1.1228030     0.4522780
  C        3.3225700     1.1193260    -0.4456390
  C        4.0230520    -0.0023100     0.0044540
  H       -0.4460470    -1.9780880    -0.8418930
  H       -0.4465600     1.9841010     0.8290070
  H       -2.9173870    -1.9815130    -0.8295580
  H       -2.9177760     1.9946350     0.7979050
  H        1.3786050    -1.9834820     0.8303220
  H        1.3846280     1.9832890    -0.8299950
  H       -5.0126890     0.9989950    -0.1140710
  H       -5.0122110    -0.6453700    -0.7711930
  H       -4.9781370    -0.3905110     0.9770230
  H        3.8582660    -1.9961250     0.8126670
  H        3.8641780     1.9916920    -0.8044220
  H        5.1104020    -0.0032360     0.0061230
units angstrom
no_reorient  #important for SAPT in psi4, default
symmetry c1  #important for SAPT in psi4, default
}

set PROPERTIES_ORIGIN ["COM"]
properties('MP2/aug-cc-pvtz', properties = ['dipole'])
--------------------------------------------------------------------------

    Molecular point group: c1
  Charge       = 0
  Multiplicity = 1
  Basis Set: AUG-CC-PVTZ
    Blend: AUG-CC-PVTZ
  Basis Set: (AUG-CC-PVTZ AUX)
    Blend: AUG-CC-PVTZ-JKFIT

    Orbital Energies [Eh]
    ---------------------

    Doubly Occupied:

       1A    -11.245011     2A    -11.241593     3A    -11.241319
       4A    -11.237257     5A    -11.237198     6A    -11.236948
       7A    -11.235628     8A    -11.234560     9A    -11.234380
      10A    -11.234153    11A    -11.232372    12A    -11.232161
      13A    -11.224876    14A     -1.167666    15A     -1.141177
      16A     -1.066036    17A     -1.016171    18A     -1.007827
      19A     -1.003377    20A     -0.928812    21A     -0.841800
      22A     -0.832596    23A     -0.812287    24A     -0.779030
      25A     -0.711948    26A     -0.666104    27A     -0.645356
      28A     -0.642508    29A     -0.615026    30A     -0.613294
      31A     -0.587667    32A     -0.580023    33A     -0.576156
      34A     -0.571442    35A     -0.540815    36A     -0.511765
      37A     -0.508297    38A     -0.499049    39A     -0.482568
      40A     -0.479900    41A     -0.479229    42A     -0.359747
      43A     -0.337005    44A     -0.334161    45A     -0.297051

  @DF-RHF Final Energy:  -499.44948469739148

   => Energetics <=

    Nuclear Repulsion Energy =            687.1489032881461299
    One-Electron Energy =               -2037.7900855406480787
    Two-Electron Energy =                 851.1916975551105224
    Total Energy =                       -499.4494846973914264
  Basis Set: (AUG-CC-PVTZ AUX)
    Blend: AUG-CC-PVTZ-RI
    Molecular point group: c1

    Geometry (in Angstrom), charge = 0, multiplicity = 1:

       Center              X                  Y                   Z               Mass
    ------------   -----------------  -----------------  -----------------  -----------------
         C           -0.301167373080     0.000743488245    -0.001030372735    12.000000000000
         C            1.175851626920    -0.000044511755     0.000441627265    12.000000000000
         C           -3.135600373080     0.005469488245    -0.013353372735    12.000000000000
         C           -1.020378373080    -1.114152511755    -0.458323372735    12.000000000000
         C           -1.020592373080     1.118693488245     0.448351627265    12.000000000000
         C           -2.434384273080    -1.109948011755    -0.458435972735    12.000000000000
         C           -2.414558373080     1.117170488245     0.441357627265    12.000000000000
         C            1.889470626920    -1.121098511755     0.453272627265    12.000000000000
         C            1.892757626920     1.119761488245    -0.450225372735    12.000000000000
         C           -4.641660373080    -0.008033511755     0.020186627265    12.000000000000
         C            3.284486626920    -1.122958511755     0.452643627265    12.000000000000
         C            3.287787626920     1.119170488245    -0.445273372735    12.000000000000
         C            3.988269626920    -0.002465511755     0.004819627265    12.000000000000
         H           -0.480829373080    -1.978243511755    -0.841527372735     1.007825032230
         H           -0.481342373080     1.983945488245     0.829372627265     1.007825032230
         H           -2.952169373080    -1.981668511755    -0.829192372735     1.007825032230
         H           -2.952558373080     1.994479488245     0.798270627265     1.007825032230
         H            1.343822626920    -1.983637511755     0.830687627265     1.007825032230
         H            1.349845626920     1.983133488245    -0.829629372735     1.007825032230
         H           -5.047471373080     0.998839488245    -0.113705372735     1.007825032230
         H           -5.046993373080    -0.645525511755    -0.770827372735     1.007825032230
         H           -5.012919373080    -0.390666511755     0.977388627265     1.007825032230
         H            3.823483626920    -1.996280511755     0.813032627265     1.007825032230
         H            3.829395626920     1.991536488245    -0.804056372735     1.007825032230
         H            5.075619626920    -0.003391511755     0.006488627265     1.007825032230

  Basis Set: AUG-CC-PVTZ
    Blend: AUG-CC-PVTZ
  Basis Set: (AUG-CC-PVTZ AUX)
    Blend: AUG-CC-PVTZ-JKFIT
	 Reference Energy          =    -499.4494846973914832 [Eh]
	 Singles Energy            =      -0.0000000000000000 [Eh]
	 Same-Spin Energy          =      -0.5653513156114103 [Eh]
	 Opposite-Spin Energy      =      -1.7796909425193483 [Eh]
	 Correlation Energy        =      -2.3450422581307588 [Eh]
	 Total Energy              =    -501.7945269555222580 [Eh]

	 ================> DF-SCS-MP2 Energies <==================
	-----------------------------------------------------------
	 SCS Same-Spin Scale       =       0.3333333333333333 [-]
	 SCS Opposite-Spin Scale   =       1.2000000000000000 [-]
	 SCS Same-Spin Energy      =      -0.1884504385371367 [Eh]
	 SCS Opposite-Spin Energy  =      -2.1356291310232178 [Eh]
	 SCS Correlation Energy    =      -2.3240795695603547 [Eh]
	 SCS Total Energy          =    -501.7735642669518370 [Eh]
	-----------------------------------------------------------

  Dipole Moment: [D]
     X:    -0.4706      Y:    -0.0178      Z:     0.0343     Total:     0.4722

*** Psi4 exiting successfully. Buy a developer a beer!
