                               Psi4 1.4a3.dev225

  ==> Input File <==

--------------------------------------------------------------------------
#psi4
#
memory 32 gb

molecule  {
0 1
  C       -0.2663850     0.0008990    -0.0013960
  C        1.2106340     0.0001110     0.0000760
  C       -3.1008180     0.0056250    -0.0137190
  C       -0.9855960    -1.1139970    -0.4586890
  C       -0.9858100     1.1188490     0.4479860
  C       -2.3796020    -1.1098520    -0.4588000
  C       -2.3797760     1.1173260     0.4409920
  C        1.9140871    -1.1049730     0.4464562
  C        1.9275400     1.1199170    -0.4505910
  C       -4.6068780    -0.0078780     0.0198210
  C        3.3192690    -1.1228030     0.4522780
  C        3.3225700     1.1193260    -0.4456390
  C        4.0230520    -0.0023100     0.0044540
  H       -0.4460470    -1.9780880    -0.8418930
  H       -0.4465600     1.9841010     0.8290070
  H       -2.9173870    -1.9815130    -0.8295580
  H       -2.9177760     1.9946350     0.7979050
  H        1.3786050    -1.9834820     0.8303220
  H        1.3846280     1.9832890    -0.8299950
  H       -5.0126890     0.9989950    -0.1140710
  H       -5.0122110    -0.6453700    -0.7711930
  H       -4.9781370    -0.3905110     0.9770230
  H        3.8582660    -1.9961250     0.8126670
  H        3.8641780     1.9916920    -0.8044220
  H        5.1104020    -0.0032360     0.0061230
units angstrom
no_reorient  #important for SAPT in psi4, default
symmetry c1  #important for SAPT in psi4, default
}

set PROPERTIES_ORIGIN ["COM"]
properties('MP2/aug-cc-pvtz', properties = ['dipole'])
--------------------------------------------------------------------------

    Molecular point group: c1
  Charge       = 0
  Multiplicity = 1
  Basis Set: AUG-CC-PVTZ
    Blend: AUG-CC-PVTZ
  Basis Set: (AUG-CC-PVTZ AUX)
    Blend: AUG-CC-PVTZ-JKFIT

    Orbital Energies [Eh]
    ---------------------

    Doubly Occupied:

       1A    -11.242802     2A    -11.242471     3A    -11.240988
       4A    -11.237971     5A    -11.236900     6A    -11.235186
       7A    -11.235042     8A    -11.234640     9A    -11.234347
      10A    -11.234048    11A    -11.231991    12A    -11.231904
      13A    -11.225421    14A     -1.168891    15A     -1.141667
      16A     -1.065519    17A     -1.016134    18A     -1.007962
      19A     -1.005446    20A     -0.928949    21A     -0.841334
      22A     -0.832122    23A     -0.811841    24A     -0.779617
      25A     -0.712031    26A     -0.665138    27A     -0.646071
      28A     -0.641896    29A     -0.615142    30A     -0.613061
      31A     -0.586581    32A     -0.579517    33A     -0.576216
      34A     -0.571410    35A     -0.541330    36A     -0.512048
      37A     -0.508921    38A     -0.498399    39A     -0.481873
      40A     -0.480929    41A     -0.478734    42A     -0.360073
      43A     -0.336924    44A     -0.334873    45A     -0.297185

  @DF-RHF Final Energy:  -499.44964894064674

   => Energetics <=

    Nuclear Repulsion Energy =            687.6329001515146047
    One-Electron Energy =               -2038.7620074941992243
    Two-Electron Energy =                 851.6794584020378807
    Total Energy =                       -499.4496489406467390
  Basis Set: (AUG-CC-PVTZ AUX)
    Blend: AUG-CC-PVTZ-RI
    Molecular point group: c1

    Geometry (in Angstrom), charge = 0, multiplicity = 1:

       Center              X                  Y                   Z               Mass
    ------------   -----------------  -----------------  -----------------  -----------------
         C           -0.301869409261    -0.000392341191    -0.000569972923    12.000000000000
         C            1.175149590739    -0.001180341191     0.000902027077    12.000000000000
         C           -3.136302409261     0.004333658809    -0.012892972923    12.000000000000
         C           -1.021080409261    -1.115288341191    -0.457862972923    12.000000000000
         C           -1.021294409261     1.117557658809     0.448812027077    12.000000000000
         C           -2.415086409261    -1.111143341191    -0.457973972923    12.000000000000
         C           -2.415260409261     1.116034658809     0.441818027077    12.000000000000
         C            1.878602690739    -1.106264341191     0.447282227077    12.000000000000
         C            1.892055590739     1.118625658809    -0.449764972923    12.000000000000
         C           -4.642362409261    -0.009169341191     0.020647027077    12.000000000000
         C            3.283784590739    -1.124094341191     0.453104027077    12.000000000000
         C            3.287085590739     1.118034658809    -0.444812972923    12.000000000000
         C            3.987567590739    -0.003601341191     0.005280027077    12.000000000000
         H           -0.481531409261    -1.979379341191    -0.841066972923     1.007825032230
         H           -0.482044409261     1.982809658809     0.829833027077     1.007825032230
         H           -2.952871409261    -1.982804341191    -0.828731972923     1.007825032230
         H           -2.953260409261     1.993343658809     0.798731027077     1.007825032230
         H            1.343120590739    -1.984773341191     0.831148027077     1.007825032230
         H            1.349143590739     1.981997658809    -0.829168972923     1.007825032230
         H           -5.048173409261     0.997703658809    -0.113244972923     1.007825032230
         H           -5.047695409261    -0.646661341191    -0.770366972923     1.007825032230
         H           -5.013621409261    -0.391802341191     0.977849027077     1.007825032230
         H            3.822781590739    -1.997416341191     0.813493027077     1.007825032230
         H            3.828693590739     1.990400658809    -0.803595972923     1.007825032230
         H            5.074917590739    -0.004527341191     0.006949027077     1.007825032230

  Basis Set: AUG-CC-PVTZ
    Blend: AUG-CC-PVTZ
  Basis Set: (AUG-CC-PVTZ AUX)
    Blend: AUG-CC-PVTZ-JKFIT
	 Reference Energy          =    -499.4496489406467390 [Eh]
	 Singles Energy            =      -0.0000000000000000 [Eh]
	 Same-Spin Energy          =      -0.5653720842808369 [Eh]
	 Opposite-Spin Energy      =      -1.7796083424373008 [Eh]
	 Correlation Energy        =      -2.3449804267181378 [Eh]
	 Total Energy              =    -501.7946293673649052 [Eh]

	 ================> DF-SCS-MP2 Energies <==================
	-----------------------------------------------------------
	 SCS Same-Spin Scale       =       0.3333333333333333 [-]
	 SCS Opposite-Spin Scale   =       1.2000000000000000 [-]
	 SCS Same-Spin Energy      =      -0.1884573614269456 [Eh]
	 SCS Opposite-Spin Energy  =      -2.1355300109247608 [Eh]
	 SCS Correlation Energy    =      -2.3239873723517066 [Eh]
	 SCS Total Energy          =    -501.7736363129984625 [Eh]
	-----------------------------------------------------------

  Dipole Moment: [D]
     X:    -0.4732      Y:    -0.0152      Z:     0.0366     Total:     0.4748

*** Psi4 exiting successfully. Buy a developer a beer!
