                               Psi4 1.4a3.dev225

  ==> Input File <==

--------------------------------------------------------------------------
#psi4
#
memory 32 gb

molecule  {
0 1
  C       -0.2663850     0.0008990    -0.0013960
  C        1.2106340     0.0001110     0.0000760
  C       -3.1008180     0.0056250    -0.0137190
  C       -0.9855960    -1.1139970    -0.4586890
  C       -0.9858100     1.1188490     0.4479860
  C       -2.3796020    -1.1098520    -0.4588000
  C       -2.3797760     1.1173260     0.4409920
  C        1.9242530    -1.1209430     0.4529070
  C        1.9349273     0.9851523    -0.3948582
  C       -4.6068780    -0.0078780     0.0198210
  C        3.3192690    -1.1228030     0.4522780
  C        3.3225700     1.1193260    -0.4456390
  C        4.0230520    -0.0023100     0.0044540
  H       -0.4460470    -1.9780880    -0.8418930
  H       -0.4465600     1.9841010     0.8290070
  H       -2.9173870    -1.9815130    -0.8295580
  H       -2.9177760     1.9946350     0.7979050
  H        1.3786050    -1.9834820     0.8303220
  H        1.3846280     1.9832890    -0.8299950
  H       -5.0126890     0.9989950    -0.1140710
  H       -5.0122110    -0.6453700    -0.7711930
  H       -4.9781370    -0.3905110     0.9770230
  H        3.8582660    -1.9961250     0.8126670
  H        3.8641780     1.9916920    -0.8044220
  H        5.1104020    -0.0032360     0.0061230
units angstrom
no_reorient  #important for SAPT in psi4, default
symmetry c1  #important for SAPT in psi4, default
}

set PROPERTIES_ORIGIN ["COM"]
properties('MP2/aug-cc-pvtz', properties = ['dipole'])
--------------------------------------------------------------------------

    Molecular point group: c1
  Charge       = 0
  Multiplicity = 1
  Basis Set: AUG-CC-PVTZ
    Blend: AUG-CC-PVTZ
  Basis Set: (AUG-CC-PVTZ AUX)
    Blend: AUG-CC-PVTZ-JKFIT

    Orbital Energies [Eh]
    ---------------------

    Doubly Occupied:

       1A    -11.242717     2A    -11.242154     3A    -11.237333
       4A    -11.236455     5A    -11.235830     6A    -11.235577
       7A    -11.235140     8A    -11.234021     9A    -11.232591
      10A    -11.232064    11A    -11.231798    12A    -11.229729
      13A    -11.225482    14A     -1.178772    15A     -1.146905
      16A     -1.068220    17A     -1.016442    18A     -1.012962
      19A     -1.006699    20A     -0.930846    21A     -0.845168
      22A     -0.830353    23A     -0.812000    24A     -0.781061
      25A     -0.714097    26A     -0.664130    27A     -0.647552
      28A     -0.639689    29A     -0.623879    30A     -0.610404
      31A     -0.583274    32A     -0.577565    33A     -0.574492
      34A     -0.568908    35A     -0.542334    36A     -0.517038
      37A     -0.515139    38A     -0.493894    39A     -0.485321
      40A     -0.483483    41A     -0.456725    42A     -0.366058
      43A     -0.336639    44A     -0.334709    45A     -0.302144

  @DF-RHF Final Energy:  -499.42327342340417

   => Energetics <=

    Nuclear Repulsion Energy =            689.8091881506894651
    One-Electron Energy =               -2043.0293373081021855
    Two-Electron Energy =                 853.7968757340086086
    Total Energy =                       -499.4232734234042255
  Basis Set: (AUG-CC-PVTZ AUX)
    Blend: AUG-CC-PVTZ-RI
    Molecular point group: c1

    Geometry (in Angstrom), charge = 0, multiplicity = 1:

       Center              X                  Y                   Z               Mass
    ------------   -----------------  -----------------  -----------------  -----------------
         C           -0.303122508865     0.010368408580    -0.005009177429    12.000000000000
         C            1.173896491135     0.009580408580    -0.003537177429    12.000000000000
         C           -3.137555508865     0.015094408580    -0.017332177429    12.000000000000
         C           -1.022333508865    -1.104527591420    -0.462302177429    12.000000000000
         C           -1.022547508865     1.128318408580     0.444372822571    12.000000000000
         C           -2.416339508865    -1.100382591420    -0.462413177429    12.000000000000
         C           -2.416513508865     1.126795408580     0.437378822571    12.000000000000
         C            1.887515491135    -1.111473591420     0.449293822571    12.000000000000
         C            1.898189791135     0.994621708580    -0.398471377429    12.000000000000
         C           -4.643615508865     0.001591408580     0.016207822571    12.000000000000
         C            3.282531491135    -1.113333591420     0.448664822571    12.000000000000
         C            3.285832491135     1.128795408580    -0.449252177429    12.000000000000
         C            3.986314491135     0.007159408580     0.000840822571    12.000000000000
         H           -0.482784508865    -1.968618591420    -0.845506177429     1.007825032230
         H           -0.483297508865     1.993570408580     0.825393822571     1.007825032230
         H           -2.954124508865    -1.972043591420    -0.833171177429     1.007825032230
         H           -2.954513508865     2.004104408580     0.794291822571     1.007825032230
         H            1.341867491135    -1.974012591420     0.826708822571     1.007825032230
         H            1.347890491135     1.992758408580    -0.833608177429     1.007825032230
         H           -5.049426508865     1.008464408580    -0.117684177429     1.007825032230
         H           -5.048948508865    -0.635900591420    -0.774806177429     1.007825032230
         H           -5.014874508865    -0.381041591420     0.973409822571     1.007825032230
         H            3.821528491135    -1.986655591420     0.809053822571     1.007825032230
         H            3.827440491135     2.001161408580    -0.808035177429     1.007825032230
         H            5.073664491135     0.006233408580     0.002509822571     1.007825032230

  Basis Set: AUG-CC-PVTZ
    Blend: AUG-CC-PVTZ
  Basis Set: (AUG-CC-PVTZ AUX)
    Blend: AUG-CC-PVTZ-JKFIT
	 Reference Energy          =    -499.4232734234041686 [Eh]
	 Singles Energy            =      -0.0000000000000000 [Eh]
	 Same-Spin Energy          =      -0.5657187094722407 [Eh]
	 Opposite-Spin Energy      =      -1.7805709525694025 [Eh]
	 Correlation Energy        =      -2.3462896620416434 [Eh]
	 Total Energy              =    -501.7695630854458386 [Eh]

	 ================> DF-SCS-MP2 Energies <==================
	-----------------------------------------------------------
	 SCS Same-Spin Scale       =       0.3333333333333333 [-]
	 SCS Opposite-Spin Scale   =       1.2000000000000000 [-]
	 SCS Same-Spin Energy      =      -0.1885729031574135 [Eh]
	 SCS Opposite-Spin Energy  =      -2.1366851430832829 [Eh]
	 SCS Correlation Energy    =      -2.3252580462406964 [Eh]
	 SCS Total Energy          =    -501.7485314696448881 [Eh]
	-----------------------------------------------------------

  Dipole Moment: [D]
     X:    -0.4320      Y:    -0.0608      Z:     0.0679     Total:     0.4415

*** Psi4 exiting successfully. Buy a developer a beer!
