                               Psi4 1.4a3.dev225

  ==> Input File <==

--------------------------------------------------------------------------
#psi4
#
memory 32 gb

molecule  {
0 1
  C       -0.2663850     0.0008990    -0.0013960
  C        1.2106340     0.0001110     0.0000760
  C       -3.1008180     0.0056250    -0.0137190
  C       -0.9855960    -1.1139970    -0.4586890
  C       -0.9858100     1.1188490     0.4479860
  C       -2.3796020    -1.1098520    -0.4588000
  C       -2.3797760     1.1173260     0.4409920
  C        1.9750824    -1.2007931     0.4851611
  C        1.9275400     1.1199170    -0.4505910
  C       -4.6068780    -0.0078780     0.0198210
  C        3.3192690    -1.1228030     0.4522780
  C        3.3225700     1.1193260    -0.4456390
  C        4.0230520    -0.0023100     0.0044540
  H       -0.4460470    -1.9780880    -0.8418930
  H       -0.4465600     1.9841010     0.8290070
  H       -2.9173870    -1.9815130    -0.8295580
  H       -2.9177760     1.9946350     0.7979050
  H        1.3786050    -1.9834820     0.8303220
  H        1.3846280     1.9832890    -0.8299950
  H       -5.0126890     0.9989950    -0.1140710
  H       -5.0122110    -0.6453700    -0.7711930
  H       -4.9781370    -0.3905110     0.9770230
  H        3.8582660    -1.9961250     0.8126670
  H        3.8641780     1.9916920    -0.8044220
  H        5.1104020    -0.0032360     0.0061230
units angstrom
no_reorient  #important for SAPT in psi4, default
symmetry c1  #important for SAPT in psi4, default
}

set PROPERTIES_ORIGIN ["COM"]
properties('MP2/aug-cc-pvtz', properties = ['dipole'])
--------------------------------------------------------------------------

    Molecular point group: c1
  Charge       = 0
  Multiplicity = 1
  Basis Set: AUG-CC-PVTZ
    Blend: AUG-CC-PVTZ
  Basis Set: (AUG-CC-PVTZ AUX)
    Blend: AUG-CC-PVTZ-JKFIT

    Orbital Energies [Eh]
    ---------------------

    Doubly Occupied:

       1A    -11.253955     2A    -11.243117     3A    -11.242001
       4A    -11.237960     5A    -11.235925     6A    -11.235695
       7A    -11.235498     8A    -11.234270     9A    -11.233274
      10A    -11.232553    11A    -11.232462    12A    -11.231607
      13A    -11.225853    14A     -1.165021    15A     -1.139819
      16A     -1.064509    17A     -1.022384    18A     -1.011284
      19A     -0.997801    20A     -0.928607    21A     -0.840522
      22A     -0.834903    23A     -0.809920    24A     -0.778202
      25A     -0.710893    26A     -0.672565    27A     -0.646694
      28A     -0.642230    29A     -0.617627    30A     -0.606967
      31A     -0.592458    32A     -0.581698    33A     -0.576527
      34A     -0.567916    35A     -0.541500    36A     -0.519010
      37A     -0.506786    38A     -0.495617    39A     -0.483840
      40A     -0.482123    41A     -0.468830    42A     -0.357111
      43A     -0.342634    44A     -0.337008    45A     -0.290884

  @DF-RHF Final Energy:  -499.43848705370135

   => Energetics <=

    Nuclear Repulsion Energy =            685.9266575230840317
    One-Electron Energy =               -2035.3141722220700558
    Two-Electron Energy =                 849.9490276452846729
    Total Energy =                       -499.4384870537013512
  Basis Set: (AUG-CC-PVTZ AUX)
    Blend: AUG-CC-PVTZ-RI
    Molecular point group: c1

    Geometry (in Angstrom), charge = 0, multiplicity = 1:

       Center              X                  Y                   Z               Mass
    ------------   -----------------  -----------------  -----------------  -----------------
         C           -0.306223782611     0.006448128317    -0.003333064261    12.000000000000
         C            1.170795217389     0.005660128317    -0.001861064261    12.000000000000
         C           -3.140656782611     0.011174128317    -0.015656064261    12.000000000000
         C           -1.025434782611    -1.108447871683    -0.460626064261    12.000000000000
         C           -1.025648782611     1.124398128317     0.446048935739    12.000000000000
         C           -2.419440782611    -1.104302871683    -0.460737064261    12.000000000000
         C           -2.419614782611     1.122875128317     0.439054935739    12.000000000000
         C            1.935243617389    -1.195243971683     0.483224035739    12.000000000000
         C            1.887701217389     1.125466128317    -0.452528064261    12.000000000000
         C           -4.646716782611    -0.002328871683     0.017883935739    12.000000000000
         C            3.279430217389    -1.117253871683     0.450340935739    12.000000000000
         C            3.282731217389     1.124875128317    -0.447576064261    12.000000000000
         C            3.983213217389     0.003239128317     0.002516935739    12.000000000000
         H           -0.485885782611    -1.972538871683    -0.843830064261     1.007825032230
         H           -0.486398782611     1.989650128317     0.827069935739     1.007825032230
         H           -2.957225782611    -1.975963871683    -0.831495064261     1.007825032230
         H           -2.957614782611     2.000184128317     0.795967935739     1.007825032230
         H            1.338766217389    -1.977932871683     0.828384935739     1.007825032230
         H            1.344789217389     1.988838128317    -0.831932064261     1.007825032230
         H           -5.052527782611     1.004544128317    -0.116008064261     1.007825032230
         H           -5.052049782611    -0.639820871683    -0.773130064261     1.007825032230
         H           -5.017975782611    -0.384961871683     0.975085935739     1.007825032230
         H            3.818427217389    -1.990575871683     0.810729935739     1.007825032230
         H            3.824339217389     1.997241128317    -0.806359064261     1.007825032230
         H            5.070563217389     0.002313128317     0.004185935739     1.007825032230

  Basis Set: AUG-CC-PVTZ
    Blend: AUG-CC-PVTZ
  Basis Set: (AUG-CC-PVTZ AUX)
    Blend: AUG-CC-PVTZ-JKFIT
	 Reference Energy          =    -499.4384870537013512 [Eh]
	 Singles Energy            =      -0.0000000000000000 [Eh]
	 Same-Spin Energy          =      -0.5652488068146372 [Eh]
	 Opposite-Spin Energy      =      -1.7802387975045770 [Eh]
	 Correlation Energy        =      -2.3454876043192141 [Eh]
	 Total Energy              =    -501.7839746580205542 [Eh]

	 ================> DF-SCS-MP2 Energies <==================
	-----------------------------------------------------------
	 SCS Same-Spin Scale       =       0.3333333333333333 [-]
	 SCS Opposite-Spin Scale   =       1.2000000000000000 [-]
	 SCS Same-Spin Energy      =      -0.1884162689382124 [Eh]
	 SCS Opposite-Spin Energy  =      -2.1362865570054925 [Eh]
	 SCS Correlation Energy    =      -2.3247028259437048 [Eh]
	 SCS Total Energy          =    -501.7631898796450400 [Eh]
	-----------------------------------------------------------

  Dipole Moment: [D]
     X:    -0.5270      Y:    -0.0034      Z:     0.0365     Total:     0.5283

*** Psi4 exiting successfully. Buy a developer a beer!
