                               Psi4 1.4a3.dev225

  ==> Input File <==

--------------------------------------------------------------------------
#psi4
#
memory 32 gb

molecule  {
0 1
  C       -0.2663850     0.0008990    -0.0013960
  C        1.2106340     0.0001110     0.0000760
  C       -3.1008180     0.0056250    -0.0137190
  C       -0.9855960    -1.1139970    -0.4586890
  C       -0.9858100     1.1188490     0.4479860
  C       -2.3796020    -1.1098520    -0.4588000
  C       -2.3797760     1.1173260     0.4409920
  C        1.9242530    -1.1209430     0.4529070
  C        1.9275400     1.1199170    -0.4505910
  C       -4.6068780    -0.0078780     0.0198210
  C        3.3192690    -1.1228030     0.4522780
  C        3.3225700     1.1193260    -0.4456390
  C        3.9729065     0.0779847    -0.0277669
  H       -0.4460470    -1.9780880    -0.8418930
  H       -0.4465600     1.9841010     0.8290070
  H       -2.9173870    -1.9815130    -0.8295580
  H       -2.9177760     1.9946350     0.7979050
  H        1.3786050    -1.9834820     0.8303220
  H        1.3846280     1.9832890    -0.8299950
  H       -5.0126890     0.9989950    -0.1140710
  H       -5.0122110    -0.6453700    -0.7711930
  H       -4.9781370    -0.3905110     0.9770230
  H        3.8582660    -1.9961250     0.8126670
  H        3.8641780     1.9916920    -0.8044220
  H        5.1104020    -0.0032360     0.0061230
units angstrom
no_reorient  #important for SAPT in psi4, default
symmetry c1  #important for SAPT in psi4, default
}

set PROPERTIES_ORIGIN ["COM"]
properties('MP2/aug-cc-pvtz', properties = ['dipole'])
--------------------------------------------------------------------------

    Molecular point group: c1
  Charge       = 0
  Multiplicity = 1
  Basis Set: AUG-CC-PVTZ
    Blend: AUG-CC-PVTZ
  Basis Set: (AUG-CC-PVTZ AUX)
    Blend: AUG-CC-PVTZ-JKFIT

    Orbital Energies [Eh]
    ---------------------

    Doubly Occupied:

       1A    -11.244032     2A    -11.242305     3A    -11.241625
       4A    -11.241007     5A    -11.235065     6A    -11.234827
       7A    -11.234745     8A    -11.234543     9A    -11.232759
      10A    -11.231910    11A    -11.231791    12A    -11.225336
      13A    -11.223932    14A     -1.170147    15A     -1.144991
      16A     -1.068132    17A     -1.020941    18A     -1.011251
      19A     -1.000550    20A     -0.928425    21A     -0.843837
      22A     -0.829788    23A     -0.811862    24A     -0.778397
      25A     -0.712553    26A     -0.659945    27A     -0.646961
      28A     -0.641899    29A     -0.617471    30A     -0.614842
      31A     -0.590745    32A     -0.581560    33A     -0.575895
      34A     -0.564443    35A     -0.541413    36A     -0.513721
      37A     -0.509582    38A     -0.496030    39A     -0.483718
      40A     -0.481646    41A     -0.470502    42A     -0.364700
      43A     -0.337412    44A     -0.335735    45A     -0.296069

  @DF-RHF Final Energy:  -499.43656078206823

   => Energetics <=

    Nuclear Repulsion Energy =            688.4162396894146241
    One-Electron Energy =               -2040.3075205018044471
    Two-Electron Energy =                 852.4547200303215959
    Total Energy =                       -499.4365607820682271
  Basis Set: (AUG-CC-PVTZ AUX)
    Blend: AUG-CC-PVTZ-RI
    Molecular point group: c1

    Geometry (in Angstrom), charge = 0, multiplicity = 1:

       Center              X                  Y                   Z               Mass
    ------------   -----------------  -----------------  -----------------  -----------------
         C           -0.299015318786    -0.004984395978     0.001269720244    12.000000000000
         C            1.178003681214    -0.005772395978     0.002741720244    12.000000000000
         C           -3.133448318786    -0.000258395978    -0.011053279756    12.000000000000
         C           -1.018226318786    -1.119880395978    -0.456023279756    12.000000000000
         C           -1.018440318786     1.112965604022     0.450651720244    12.000000000000
         C           -2.412232318786    -1.115735395978    -0.456134279756    12.000000000000
         C           -2.412406318786     1.111442604022     0.443657720244    12.000000000000
         C            1.891622681214    -1.126826395978     0.455572720244    12.000000000000
         C            1.894909681214     1.114033604022    -0.447925279756    12.000000000000
         C           -4.639508318786    -0.013761395978     0.022486720244    12.000000000000
         C            3.286638681214    -1.128686395978     0.454943720244    12.000000000000
         C            3.289939681214     1.113442604022    -0.442973279756    12.000000000000
         C            3.940276181214     0.072101304022    -0.025101179756    12.000000000000
         H           -0.478677318786    -1.983971395978    -0.839227279756     1.007825032230
         H           -0.479190318786     1.978217604022     0.831672720244     1.007825032230
         H           -2.950017318786    -1.987396395978    -0.826892279756     1.007825032230
         H           -2.950406318786     1.988751604022     0.800570720244     1.007825032230
         H            1.345974681214    -1.989365395978     0.832987720244     1.007825032230
         H            1.351997681214     1.977405604022    -0.827329279756     1.007825032230
         H           -5.045319318786     0.993111604022    -0.111405279756     1.007825032230
         H           -5.044841318786    -0.651253395978    -0.768527279756     1.007825032230
         H           -5.010767318786    -0.396394395978     0.979688720244     1.007825032230
         H            3.825635681214    -2.002008395978     0.815332720244     1.007825032230
         H            3.831547681214     1.985808604022    -0.801756279756     1.007825032230
         H            5.077771681214    -0.009119395978     0.008788720244     1.007825032230

  Basis Set: AUG-CC-PVTZ
    Blend: AUG-CC-PVTZ
  Basis Set: (AUG-CC-PVTZ AUX)
    Blend: AUG-CC-PVTZ-JKFIT
	 Reference Energy          =    -499.4365607820682271 [Eh]
	 Singles Energy            =      -0.0000000000000000 [Eh]
	 Same-Spin Energy          =      -0.5652664093119870 [Eh]
	 Opposite-Spin Energy      =      -1.7799236319632636 [Eh]
	 Correlation Energy        =      -2.3451900412752504 [Eh]
	 Total Energy              =    -501.7817508233434864 [Eh]

	 ================> DF-SCS-MP2 Energies <==================
	-----------------------------------------------------------
	 SCS Same-Spin Scale       =       0.3333333333333333 [-]
	 SCS Opposite-Spin Scale   =       1.2000000000000000 [-]
	 SCS Same-Spin Energy      =      -0.1884221364373290 [Eh]
	 SCS Opposite-Spin Energy  =      -2.1359083583559162 [Eh]
	 SCS Correlation Energy    =      -2.3243304947932453 [Eh]
	 SCS Total Energy          =    -501.7608912768614573 [Eh]
	-----------------------------------------------------------

  Dipole Moment: [D]
     X:    -0.4955      Y:    -0.0316      Z:     0.0425     Total:     0.4983

*** Psi4 exiting successfully. Buy a developer a beer!
