                               Psi4 1.4a3.dev225

  ==> Input File <==

--------------------------------------------------------------------------
#psi4
#
memory 32 gb

molecule  {
0 1
  C       -0.2663850     0.0008990    -0.0013960
  C        1.2106340     0.0001110     0.0000760
  C       -3.1008180     0.0056250    -0.0137190
  C       -0.9855960    -1.1139970    -0.4586890
  C       -0.9858100     1.1188490     0.4479860
  C       -2.3796020    -1.1098520    -0.4588000
  C       -2.3797760     1.1173260     0.4409920
  C        1.9242530    -1.1209430     0.4529070
  C        1.9275400     1.1199170    -0.4505910
  C       -4.6068780    -0.0078780     0.0198210
  C        3.3192690    -1.1228030     0.4522780
  C        3.3225700     1.1193260    -0.4456390
  C        4.0230520    -0.0023100     0.0044540
  H       -0.4460470    -1.9780880    -0.8418930
  H       -0.4465600     1.9841010     0.8290070
  H       -2.9173870    -1.9815130    -0.8295580
  H       -2.9177760     1.9946350     0.7979050
  H        1.3786050    -1.9834820     0.8303220
  H        1.3946064     1.9674207    -0.8230217
  H       -5.0126890     0.9989950    -0.1140710
  H       -5.0122110    -0.6453700    -0.7711930
  H       -4.9781370    -0.3905110     0.9770230
  H        3.8582660    -1.9961250     0.8126670
  H        3.8641780     1.9916920    -0.8044220
  H        5.1104020    -0.0032360     0.0061230
units angstrom
no_reorient  #important for SAPT in psi4, default
symmetry c1  #important for SAPT in psi4, default
}

set PROPERTIES_ORIGIN ["COM"]
properties('MP2/aug-cc-pvtz', properties = ['dipole'])
--------------------------------------------------------------------------

    Molecular point group: c1
  Charge       = 0
  Multiplicity = 1
  Basis Set: AUG-CC-PVTZ
    Blend: AUG-CC-PVTZ
  Basis Set: (AUG-CC-PVTZ AUX)
    Blend: AUG-CC-PVTZ-JKFIT

    Orbital Energies [Eh]
    ---------------------

    Doubly Occupied:

       1A    -11.244739     2A    -11.242606     3A    -11.241207
       4A    -11.237024     5A    -11.236723     6A    -11.235335
       7A    -11.235194     8A    -11.234318     9A    -11.234043
      10A    -11.232119    11A    -11.232038    12A    -11.232033
      13A    -11.225514    14A     -1.168062    15A     -1.141317
      16A     -1.065240    17A     -1.017141    18A     -1.008897
      19A     -1.004213    20A     -0.928931    21A     -0.841164
      22A     -0.833062    23A     -0.812062    24A     -0.779593
      25A     -0.712440    26A     -0.667122    27A     -0.645944
      28A     -0.642306    29A     -0.614379    30A     -0.613366
      31A     -0.588404    32A     -0.580391    33A     -0.576411
      34A     -0.571049    35A     -0.541354    36A     -0.512909
      37A     -0.508692    38A     -0.498367    39A     -0.481897
      40A     -0.480775    41A     -0.479383    42A     -0.359007
      43A     -0.337460    44A     -0.335759    45A     -0.296053

  @DF-RHF Final Energy:  -499.45019967849004

   => Energetics <=

    Nuclear Repulsion Energy =            687.4332709151696008
    One-Electron Energy =               -2038.3548578219420051
    Two-Electron Energy =                 851.4713872282824241
    Total Energy =                       -499.4501996784900939
  Basis Set: (AUG-CC-PVTZ AUX)
    Blend: AUG-CC-PVTZ-RI
    Molecular point group: c1

    Geometry (in Angstrom), charge = 0, multiplicity = 1:

       Center              X                  Y                   Z               Mass
    ------------   -----------------  -----------------  -----------------  -----------------
         C           -0.302654965912     0.000842875968    -0.001072296126    12.000000000000
         C            1.174364034088     0.000054875968     0.000399703874    12.000000000000
         C           -3.137087965912     0.005568875968    -0.013395296126    12.000000000000
         C           -1.021865965912    -1.114053124032    -0.458365296126    12.000000000000
         C           -1.022079965912     1.118792875968     0.448309703874    12.000000000000
         C           -2.415871965912    -1.109908124032    -0.458476296126    12.000000000000
         C           -2.416045965912     1.117269875968     0.441315703874    12.000000000000
         C            1.887983034088    -1.120999124032     0.453230703874    12.000000000000
         C            1.891270034088     1.119860875968    -0.450267296126    12.000000000000
         C           -4.643147965912    -0.007934124032     0.020144703874    12.000000000000
         C            3.282999034088    -1.122859124032     0.452601703874    12.000000000000
         C            3.286300034088     1.119269875968    -0.445315296126    12.000000000000
         C            3.986782034088    -0.002366124032     0.004777703874    12.000000000000
         H           -0.482316965912    -1.978144124032    -0.841569296126     1.007825032230
         H           -0.482829965912     1.984044875968     0.829330703874     1.007825032230
         H           -2.953656965912    -1.981569124032    -0.829234296126     1.007825032230
         H           -2.954045965912     1.994578875968     0.798228703874     1.007825032230
         H            1.342335034088    -1.983538124032     0.830645703874     1.007825032230
         H            1.358336434088     1.967364575968    -0.822697996126     1.007825032230
         H           -5.048958965912     0.998938875968    -0.113747296126     1.007825032230
         H           -5.048480965912    -0.645426124032    -0.770869296126     1.007825032230
         H           -5.014406965912    -0.390567124032     0.977346703874     1.007825032230
         H            3.821996034088    -1.996181124032     0.812990703874     1.007825032230
         H            3.827908034088     1.991635875968    -0.804098296126     1.007825032230
         H            5.074132034088    -0.003292124032     0.006446703874     1.007825032230

  Basis Set: AUG-CC-PVTZ
    Blend: AUG-CC-PVTZ
  Basis Set: (AUG-CC-PVTZ AUX)
    Blend: AUG-CC-PVTZ-JKFIT
	 Reference Energy          =    -499.4501996784900371 [Eh]
	 Singles Energy            =      -0.0000000000000000 [Eh]
	 Same-Spin Energy          =      -0.5653218090614898 [Eh]
	 Opposite-Spin Energy      =      -1.7794485687080643 [Eh]
	 Correlation Energy        =      -2.3447703777695539 [Eh]
	 Total Energy              =    -501.7949700562596149 [Eh]

	 ================> DF-SCS-MP2 Energies <==================
	-----------------------------------------------------------
	 SCS Same-Spin Scale       =       0.3333333333333333 [-]
	 SCS Opposite-Spin Scale   =       1.2000000000000000 [-]
	 SCS Same-Spin Energy      =      -0.1884406030204966 [Eh]
	 SCS Opposite-Spin Energy  =      -2.1353382824496769 [Eh]
	 SCS Correlation Energy    =      -2.3237788854701735 [Eh]
	 SCS Total Energy          =    -501.7739785639602133 [Eh]
	-----------------------------------------------------------

  Dipole Moment: [D]
     X:    -0.4886      Y:    -0.0096      Z:     0.0348     Total:     0.4899

*** Psi4 exiting successfully. Buy a developer a beer!
