                               Psi4 1.4a3.dev225

  ==> Input File <==

--------------------------------------------------------------------------
#psi4
#
memory 32 gb

molecule  {
0 1
  C       -0.2663850     0.0008990    -0.0013960
  C        1.2106340     0.0001110     0.0000760
  C       -3.1008180     0.0056250    -0.0137190
  C       -0.9855960    -1.1139970    -0.4586890
  C       -0.9858100     1.1188490     0.4479860
  C       -2.3796020    -1.1098520    -0.4588000
  C       -2.3797760     1.1173260     0.4409920
  C        1.9242530    -1.1209430     0.4529070
  C        1.9275400     1.1199170    -0.4505910
  C       -4.6068780    -0.0078780     0.0198210
  C        3.3192690    -1.1228030     0.4522780
  C        3.3225700     1.1193260    -0.4456390
  C        4.0230520    -0.0023100     0.0044540
  H       -0.4460470    -1.9780880    -0.8418930
  H       -0.4465600     1.9841010     0.8290070
  H       -2.9173870    -1.9815130    -0.8295580
  H       -2.9177760     1.9946350     0.7979050
  H        1.3786050    -1.9834820     0.8303220
  H        1.3846280     1.9832890    -0.8299950
  H       -4.9384871     0.8148898    -0.0895891
  H       -5.0122110    -0.6453700    -0.7711930
  H       -4.9781370    -0.3905110     0.9770230
  H        3.8582660    -1.9961250     0.8126670
  H        3.8641780     1.9916920    -0.8044220
  H        5.1104020    -0.0032360     0.0061230
units angstrom
no_reorient  #important for SAPT in psi4, default
symmetry c1  #important for SAPT in psi4, default
}

set PROPERTIES_ORIGIN ["COM"]
properties('MP2/aug-cc-pvtz', properties = ['dipole'])
--------------------------------------------------------------------------

    Molecular point group: c1
  Charge       = 0
  Multiplicity = 1
  Basis Set: AUG-CC-PVTZ
    Blend: AUG-CC-PVTZ
  Basis Set: (AUG-CC-PVTZ AUX)
    Blend: AUG-CC-PVTZ-JKFIT

    Orbital Energies [Eh]
    ---------------------

    Doubly Occupied:

       1A    -11.244680     2A    -11.241325     3A    -11.240735
       4A    -11.236946     5A    -11.236698     6A    -11.235053
       7A    -11.234639     8A    -11.234281     9A    -11.234087
      10A    -11.233877    11A    -11.231911    12A    -11.230936
      13A    -11.200837    14A     -1.167820    15A     -1.141439
      16A     -1.068692    17A     -1.016527    18A     -1.010992
      19A     -1.008275    20A     -0.942704    21A     -0.840693
      22A     -0.836178    23A     -0.811342    24A     -0.780793
      25A     -0.711957    26A     -0.667744    27A     -0.651462
      28A     -0.642646    29A     -0.616100    30A     -0.613421
      31A     -0.590417    32A     -0.587280    33A     -0.579634
      34A     -0.571753    35A     -0.553688    36A     -0.512404
      37A     -0.509443    38A     -0.498167    39A     -0.482535
      40A     -0.480227    41A     -0.478731    42A     -0.358848
      43A     -0.337189    44A     -0.335465    45A     -0.295847

  @DF-RHF Final Energy:  -499.41615906212405

   => Energetics <=

    Nuclear Repulsion Energy =            688.3254753809635531
    One-Electron Energy =               -2040.0104304061069342
    Two-Electron Energy =                 852.2687959630193291
    Total Energy =                       -499.4161590621240521
  Basis Set: (AUG-CC-PVTZ AUX)
    Blend: AUG-CC-PVTZ-RI
    Molecular point group: c1

    Geometry (in Angstrom), charge = 0, multiplicity = 1:

       Center              X                  Y                   Z               Mass
    ------------   -----------------  -----------------  -----------------  -----------------
         C           -0.303040024803     0.001851558369    -0.001177270817    12.000000000000
         C            1.173978975197     0.001063558369     0.000294729183    12.000000000000
         C           -3.137473024803     0.006577558369    -0.013500270817    12.000000000000
         C           -1.022251024803    -1.113044441631    -0.458470270817    12.000000000000
         C           -1.022465024803     1.119801558369     0.448204729183    12.000000000000
         C           -2.416257024803    -1.108899441631    -0.458581270817    12.000000000000
         C           -2.416431024803     1.118278558369     0.441210729183    12.000000000000
         C            1.887597975197    -1.119990441631     0.453125729183    12.000000000000
         C            1.890884975197     1.120869558369    -0.450372270817    12.000000000000
         C           -4.643533024803    -0.006925441631     0.020039729183    12.000000000000
         C            3.282613975197    -1.121850441631     0.452496729183    12.000000000000
         C            3.285914975197     1.120278558369    -0.445420270817    12.000000000000
         C            3.986396975197    -0.001357441631     0.004672729183    12.000000000000
         H           -0.482702024803    -1.977135441631    -0.841674270817     1.007825032230
         H           -0.483215024803     1.985053558369     0.829225729183     1.007825032230
         H           -2.954042024803    -1.980560441631    -0.829339270817     1.007825032230
         H           -2.954431024803     1.995587558369     0.798123729183     1.007825032230
         H            1.341949975197    -1.982529441631     0.830540729183     1.007825032230
         H            1.347972975197     1.984241558369    -0.829776270817     1.007825032230
         H           -4.975142124803     0.815842358369    -0.089370370817     1.007825032230
         H           -5.048866024803    -0.644417441631    -0.770974270817     1.007825032230
         H           -5.014792024803    -0.389558441631     0.977241729183     1.007825032230
         H            3.821610975197    -1.995172441631     0.812885729183     1.007825032230
         H            3.827522975197     1.992644558369    -0.804203270817     1.007825032230
         H            5.073746975197    -0.002283441631     0.006341729183     1.007825032230

  Basis Set: AUG-CC-PVTZ
    Blend: AUG-CC-PVTZ
  Basis Set: (AUG-CC-PVTZ AUX)
    Blend: AUG-CC-PVTZ-JKFIT
	 Reference Energy          =    -499.4161590621240521 [Eh]
	 Singles Energy            =      -0.0000000000000000 [Eh]
	 Same-Spin Energy          =      -0.5654493117734328 [Eh]
	 Opposite-Spin Energy      =      -1.7789565983605908 [Eh]
	 Correlation Energy        =      -2.3444059101340238 [Eh]
	 Total Energy              =    -501.7605649722580665 [Eh]

	 ================> DF-SCS-MP2 Energies <==================
	-----------------------------------------------------------
	 SCS Same-Spin Scale       =       0.3333333333333333 [-]
	 SCS Opposite-Spin Scale   =       1.2000000000000000 [-]
	 SCS Same-Spin Energy      =      -0.1884831039244776 [Eh]
	 SCS Opposite-Spin Energy  =      -2.1347479180327089 [Eh]
	 SCS Correlation Energy    =      -2.3232310219571866 [Eh]
	 SCS Total Energy          =    -501.7393900840812648 [Eh]
	-----------------------------------------------------------

  Dipole Moment: [D]
     X:    -0.5578      Y:     0.0377      Z:     0.0330     Total:     0.5600

*** Psi4 exiting successfully. Buy a developer a beer!
