                               Psi4 1.4a3.dev225

  ==> Input File <==

--------------------------------------------------------------------------
#psi4
#
memory 32 gb

molecule  {
0 1
  C       -0.2663850     0.0008990    -0.0013960
  C        1.2106340     0.0001110     0.0000760
  C       -3.1008180     0.0056250    -0.0137190
  C       -0.9855960    -1.1139970    -0.4586890
  C       -0.9858100     1.1188490     0.4479860
  C       -2.3796020    -1.1098520    -0.4588000
  C       -2.3797760     1.1173260     0.4409920
  C        1.9242530    -1.1209430     0.4529070
  C        1.9275400     1.1199170    -0.4505910
  C       -4.6068780    -0.0078780     0.0198210
  C        3.3192690    -1.1228030     0.4522780
  C        3.3225700     1.1193260    -0.4456390
  C        4.0230520    -0.0023100     0.0044540
  H       -0.4460470    -1.9780880    -0.8418930
  H       -0.4465600     1.9841010     0.8290070
  H       -2.9173870    -1.9815130    -0.8295580
  H       -2.9177760     1.9946350     0.7979050
  H        1.3886336    -1.9676292     0.8233854
  H        1.3846280     1.9832890    -0.8299950
  H       -5.0126890     0.9989950    -0.1140710
  H       -5.0122110    -0.6453700    -0.7711930
  H       -4.9781370    -0.3905110     0.9770230
  H        3.8582660    -1.9961250     0.8126670
  H        3.8641780     1.9916920    -0.8044220
  H        5.1104020    -0.0032360     0.0061230
units angstrom
no_reorient  #important for SAPT in psi4, default
symmetry c1  #important for SAPT in psi4, default
}

set PROPERTIES_ORIGIN ["COM"]
properties('MP2/aug-cc-pvtz', properties = ['dipole'])
--------------------------------------------------------------------------

    Molecular point group: c1
  Charge       = 0
  Multiplicity = 1
  Basis Set: AUG-CC-PVTZ
    Blend: AUG-CC-PVTZ
  Basis Set: (AUG-CC-PVTZ AUX)
    Blend: AUG-CC-PVTZ-JKFIT

    Orbital Energies [Eh]
    ---------------------

    Doubly Occupied:

       1A    -11.244739     2A    -11.242606     3A    -11.241207
       4A    -11.237023     5A    -11.236724     6A    -11.235330
       7A    -11.235198     8A    -11.234320     9A    -11.234045
      10A    -11.232115    11A    -11.232042    12A    -11.232027
      13A    -11.225514    14A     -1.168062    15A     -1.141317
      16A     -1.065240    17A     -1.017142    18A     -1.008897
      19A     -1.004212    20A     -0.928931    21A     -0.841160
      22A     -0.833065    23A     -0.812062    24A     -0.779593
      25A     -0.712439    26A     -0.667123    27A     -0.645944
      28A     -0.642305    29A     -0.614365    30A     -0.613380
      31A     -0.588410    32A     -0.580432    33A     -0.576312
      34A     -0.571102    35A     -0.541354    36A     -0.512858
      37A     -0.508740    38A     -0.498374    39A     -0.481914
      40A     -0.480727    41A     -0.479405    42A     -0.359007
      43A     -0.337460    44A     -0.335759    45A     -0.296053

  @DF-RHF Final Energy:  -499.45019974583977

   => Energetics <=

    Nuclear Repulsion Energy =            687.4332721331938956
    One-Electron Energy =               -2038.3548659893806416
    Two-Electron Energy =                 851.4713941103469779
    Total Energy =                       -499.4501997458397682
  Basis Set: (AUG-CC-PVTZ AUX)
    Blend: AUG-CC-PVTZ-RI
    Molecular point group: c1

    Geometry (in Angstrom), charge = 0, multiplicity = 1:

       Center              X                  Y                   Z               Mass
    ------------   -----------------  -----------------  -----------------  -----------------
         C           -0.302655266891     0.000652688706    -0.000988897826    12.000000000000
         C            1.174363733109    -0.000135311294     0.000483102174    12.000000000000
         C           -3.137088266891     0.005378688706    -0.013311897826    12.000000000000
         C           -1.021866266891    -1.114243311294    -0.458281897826    12.000000000000
         C           -1.022080266891     1.118602688706     0.448393102174    12.000000000000
         C           -2.415872266891    -1.110098311294    -0.458392897826    12.000000000000
         C           -2.416046266891     1.117079688706     0.441399102174    12.000000000000
         C            1.887982733109    -1.121189311294     0.453314102174    12.000000000000
         C            1.891269733109     1.119670688706    -0.450183897826    12.000000000000
         C           -4.643148266891    -0.008124311294     0.020228102174    12.000000000000
         C            3.282998733109    -1.123049311294     0.452685102174    12.000000000000
         C            3.286299733109     1.119079688706    -0.445231897826    12.000000000000
         C            3.986781733109    -0.002556311294     0.004861102174    12.000000000000
         H           -0.482317266891    -1.978334311294    -0.841485897826     1.007825032230
         H           -0.482830266891     1.983854688706     0.829414102174     1.007825032230
         H           -2.953657266891    -1.981759311294    -0.829150897826     1.007825032230
         H           -2.954046266891     1.994388688706     0.798312102174     1.007825032230
         H            1.352363333109    -1.967875511294     0.823792502174     1.007825032230
         H            1.348357733109     1.983042688706    -0.829587897826     1.007825032230
         H           -5.048959266891     0.998748688706    -0.113663897826     1.007825032230
         H           -5.048481266891    -0.645616311294    -0.770785897826     1.007825032230
         H           -5.014407266891    -0.390757311294     0.977430102174     1.007825032230
         H            3.821995733109    -1.996371311294     0.813074102174     1.007825032230
         H            3.827907733109     1.991445688706    -0.804014897826     1.007825032230
         H            5.074131733109    -0.003482311294     0.006530102174     1.007825032230

  Basis Set: AUG-CC-PVTZ
    Blend: AUG-CC-PVTZ
  Basis Set: (AUG-CC-PVTZ AUX)
    Blend: AUG-CC-PVTZ-JKFIT
	 Reference Energy          =    -499.4501997458397682 [Eh]
	 Singles Energy            =      -0.0000000000000000 [Eh]
	 Same-Spin Energy          =      -0.5653218575935466 [Eh]
	 Opposite-Spin Energy      =      -1.7794487002179156 [Eh]
	 Correlation Energy        =      -2.3447705578114624 [Eh]
	 Total Energy              =    -501.7949703036512119 [Eh]

	 ================> DF-SCS-MP2 Energies <==================
	-----------------------------------------------------------
	 SCS Same-Spin Scale       =       0.3333333333333333 [-]
	 SCS Opposite-Spin Scale   =       1.2000000000000000 [-]
	 SCS Same-Spin Energy      =      -0.1884406191978489 [Eh]
	 SCS Opposite-Spin Energy  =      -2.1353384402614988 [Eh]
	 SCS Correlation Energy    =      -2.3237790594593477 [Eh]
	 SCS Total Energy          =    -501.7739788052991230 [Eh]
	-----------------------------------------------------------

  Dipole Moment: [D]
     X:    -0.4886      Y:    -0.0180      Z:     0.0388     Total:     0.4905

*** Psi4 exiting successfully. Buy a developer a beer!
