                               Psi4 1.4a3.dev225

  ==> Input File <==

--------------------------------------------------------------------------
#psi4
#
memory 32 gb

molecule  {
0 1
  C       -0.2663850     0.0008990    -0.0013960
  C        1.2106340     0.0001110     0.0000760
  C       -3.1008180     0.0056250    -0.0137190
  C       -0.9855960    -1.1139970    -0.4586890
  C       -0.9858100     1.1188490     0.4479860
  C       -2.3796020    -1.1098520    -0.4588000
  C       -2.3797760     1.1173260     0.4409920
  C        1.9242530    -1.1209430     0.4529070
  C        1.9275400     1.1199170    -0.4505910
  C       -4.6068780    -0.0078780     0.0198210
  C        3.3192690    -1.1228030     0.4522780
  C        3.3725697     1.1193048    -0.4454615
  C        4.0230520    -0.0023100     0.0044540
  H       -0.4460470    -1.9780880    -0.8418930
  H       -0.4465600     1.9841010     0.8290070
  H       -2.9173870    -1.9815130    -0.8295580
  H       -2.9177760     1.9946350     0.7979050
  H        1.3786050    -1.9834820     0.8303220
  H        1.3846280     1.9832890    -0.8299950
  H       -5.0126890     0.9989950    -0.1140710
  H       -5.0122110    -0.6453700    -0.7711930
  H       -4.9781370    -0.3905110     0.9770230
  H        3.8582660    -1.9961250     0.8126670
  H        3.8641780     1.9916920    -0.8044220
  H        5.1104020    -0.0032360     0.0061230
units angstrom
no_reorient  #important for SAPT in psi4, default
symmetry c1  #important for SAPT in psi4, default
}

set PROPERTIES_ORIGIN ["COM"]
properties('MP2/aug-cc-pvtz', properties = ['dipole'])
--------------------------------------------------------------------------

    Molecular point group: c1
  Charge       = 0
  Multiplicity = 1
  Basis Set: AUG-CC-PVTZ
    Blend: AUG-CC-PVTZ
  Basis Set: (AUG-CC-PVTZ AUX)
    Blend: AUG-CC-PVTZ-JKFIT

    Orbital Energies [Eh]
    ---------------------

    Doubly Occupied:

       1A    -11.244733     2A    -11.242497     3A    -11.241178
       4A    -11.239458     5A    -11.237392     6A    -11.237232
       7A    -11.235237     8A    -11.235137     9A    -11.235055
      10A    -11.232385    11A    -11.232025    12A    -11.231940
      13A    -11.225442    14A     -1.167073    15A     -1.140197
      16A     -1.066298    17A     -1.015005    18A     -1.008013
      19A     -1.003687    20A     -0.928656    21A     -0.842750
      22A     -0.830415    23A     -0.813574    24A     -0.778991
      25A     -0.712121    26A     -0.665711    27A     -0.645439
      28A     -0.643780    29A     -0.617919    30A     -0.611966
      31A     -0.586646    32A     -0.580386    33A     -0.575821
      34A     -0.570668    35A     -0.541323    36A     -0.508842
      37A     -0.508472    38A     -0.502353    39A     -0.481535
      40A     -0.480829    41A     -0.477371    42A     -0.361432
      43A     -0.336667    44A     -0.331398    45A     -0.297482

  @DF-RHF Final Energy:  -499.44689293863462

   => Energetics <=

    Nuclear Repulsion Energy =            686.7060962601996152
    One-Electron Energy =               -2036.9009135637397776
    Two-Electron Energy =                 850.7479243649056571
    Total Energy =                       -499.4468929386346190
  Basis Set: (AUG-CC-PVTZ AUX)
    Blend: AUG-CC-PVTZ-RI
    Molecular point group: c1

    Geometry (in Angstrom), charge = 0, multiplicity = 1:

       Center              X                  Y                   Z               Mass
    ------------   -----------------  -----------------  -----------------  -----------------
         C           -0.306164551431     0.000749249311    -0.001043158445    12.000000000000
         C            1.170854448569    -0.000038750689     0.000428841555    12.000000000000
         C           -3.140597551431     0.005475249311    -0.013366158445    12.000000000000
         C           -1.025375551431    -1.114146750689    -0.458336158445    12.000000000000
         C           -1.025589551431     1.118699249311     0.448338841555    12.000000000000
         C           -2.419381551431    -1.110001750689    -0.458447158445    12.000000000000
         C           -2.419555551431     1.117176249311     0.441344841555    12.000000000000
         C            1.884473448569    -1.121092750689     0.453259841555    12.000000000000
         C            1.887760448569     1.119767249311    -0.450238158445    12.000000000000
         C           -4.646657551431    -0.008027750689     0.020173841555    12.000000000000
         C            3.279489448569    -1.122952750689     0.452630841555    12.000000000000
         C            3.332790148569     1.119155049311    -0.445108658445    12.000000000000
         C            3.983272448569    -0.002459750689     0.004806841555    12.000000000000
         H           -0.485826551431    -1.978237750689    -0.841540158445     1.007825032230
         H           -0.486339551431     1.983951249311     0.829359841555     1.007825032230
         H           -2.957166551431    -1.981662750689    -0.829205158445     1.007825032230
         H           -2.957555551431     1.994485249311     0.798257841555     1.007825032230
         H            1.338825448569    -1.983631750689     0.830674841555     1.007825032230
         H            1.344848448569     1.983139249311    -0.829642158445     1.007825032230
         H           -5.052468551431     0.998845249311    -0.113718158445     1.007825032230
         H           -5.051990551431    -0.645519750689    -0.770840158445     1.007825032230
         H           -5.017916551431    -0.390660750689     0.977375841555     1.007825032230
         H            3.818486448569    -1.996274750689     0.813019841555     1.007825032230
         H            3.824398448569     1.991542249311    -0.804069158445     1.007825032230
         H            5.070622448569    -0.003385750689     0.006475841555     1.007825032230

  Basis Set: AUG-CC-PVTZ
    Blend: AUG-CC-PVTZ
  Basis Set: (AUG-CC-PVTZ AUX)
    Blend: AUG-CC-PVTZ-JKFIT
	 Reference Energy          =    -499.4468929386346190 [Eh]
	 Singles Energy            =      -0.0000000000000000 [Eh]
	 Same-Spin Energy          =      -0.5653051248558066 [Eh]
	 Opposite-Spin Energy      =      -1.7798802146864205 [Eh]
	 Correlation Energy        =      -2.3451853395422271 [Eh]
	 Total Energy              =    -501.7920782781768594 [Eh]

	 ================> DF-SCS-MP2 Energies <==================
	-----------------------------------------------------------
	 SCS Same-Spin Scale       =       0.3333333333333333 [-]
	 SCS Opposite-Spin Scale   =       1.2000000000000000 [-]
	 SCS Same-Spin Energy      =      -0.1884350416186022 [Eh]
	 SCS Opposite-Spin Energy  =      -2.1358562576237046 [Eh]
	 SCS Correlation Energy    =      -2.3242912992423066 [Eh]
	 SCS Total Energy          =    -501.7711842378769234 [Eh]
	-----------------------------------------------------------

  Dipole Moment: [D]
     X:    -0.4896      Y:    -0.0015      Z:     0.0310     Total:     0.4906

*** Psi4 exiting successfully. Buy a developer a beer!
