                               Psi4 1.4a3.dev225

  ==> Input File <==

--------------------------------------------------------------------------
#psi4
#
memory 32 gb

molecule  {
0 1
  C       -0.2663850     0.0008990    -0.0013960
  C        1.2106340     0.0001110     0.0000760
  C       -3.1008180     0.0056250    -0.0137190
  C       -0.9855960    -1.1139970    -0.4586890
  C       -0.9858100     1.1188490     0.4479860
  C       -2.3796020    -1.1098520    -0.4588000
  C       -2.3797760     1.1173260     0.4409920
  C        1.9242530    -1.1209430     0.4529070
  C        1.9275400     1.1199170    -0.4505910
  C       -4.6068780    -0.0078780     0.0198210
  C        3.3192690    -1.1228030     0.4522780
  C        3.3225700     1.1193260    -0.4456390
  C        4.0230520    -0.0023100     0.0044540
  H       -0.4460470    -1.9780880    -0.8418930
  H       -0.4465600     1.9841010     0.8290070
  H       -2.9173870    -1.9815130    -0.8295580
  H       -2.9177760     1.9946350     0.7979050
  H        1.2783191    -2.1420100     0.8996879
  H        1.3846280     1.9832890    -0.8299950
  H       -5.0126890     0.9989950    -0.1140710
  H       -5.0122110    -0.6453700    -0.7711930
  H       -4.9781370    -0.3905110     0.9770230
  H        3.8582660    -1.9961250     0.8126670
  H        3.8641780     1.9916920    -0.8044220
  H        5.1104020    -0.0032360     0.0061230
units angstrom
no_reorient  #important for SAPT in psi4, default
symmetry c1  #important for SAPT in psi4, default
}

set PROPERTIES_ORIGIN ["COM"]
properties('MP2/aug-cc-pvtz', properties = ['dipole'])
--------------------------------------------------------------------------

    Molecular point group: c1
  Charge       = 0
  Multiplicity = 1
  Basis Set: AUG-CC-PVTZ
    Blend: AUG-CC-PVTZ
  Basis Set: (AUG-CC-PVTZ AUX)
    Blend: AUG-CC-PVTZ-JKFIT

    Orbital Energies [Eh]
    ---------------------

    Doubly Occupied:

       1A    -11.255965     2A    -11.247426     3A    -11.242435
       4A    -11.241194     5A    -11.239199     6A    -11.238244
       7A    -11.236258     8A    -11.235887     9A    -11.235249
      10A    -11.234810    11A    -11.231809    12A    -11.231640
      13A    -11.225352    14A     -1.168145    15A     -1.141736
      16A     -1.065611    17A     -1.015400    18A     -1.008003
      19A     -1.003556    20A     -0.928517    21A     -0.839205
      22A     -0.831777    23A     -0.807570    24A     -0.778994
      25A     -0.708206    26A     -0.659819    27A     -0.646185
      28A     -0.639730    29A     -0.614648    30A     -0.609758
      31A     -0.583627    32A     -0.576381    33A     -0.575751
      34A     -0.565085    35A     -0.541172    36A     -0.512274
      37A     -0.508219    38A     -0.491542    39A     -0.482223
      40A     -0.481341    41A     -0.472376    42A     -0.359856
      43A     -0.338481    44A     -0.335904    45A     -0.296691

  @DF-RHF Final Energy:  -499.42758742705087

   => Energetics <=

    Nuclear Repulsion Energy =            686.4652915749760496
    One-Electron Energy =               -2036.4192563047683961
    Two-Electron Energy =                 850.5263773027415937
    Total Energy =                       -499.4275874270508666
  Basis Set: (AUG-CC-PVTZ AUX)
    Blend: AUG-CC-PVTZ-RI
    Molecular point group: c1

    Geometry (in Angstrom), charge = 0, multiplicity = 1:

       Center              X                  Y                   Z               Mass
    ------------   -----------------  -----------------  -----------------  -----------------
         C           -0.301993864459     0.001698207520    -0.001446377659    12.000000000000
         C            1.175025135541     0.000910207520     0.000025622341    12.000000000000
         C           -3.136426864459     0.006424207520    -0.013769377659    12.000000000000
         C           -1.021204864459    -1.113197792480    -0.458739377659    12.000000000000
         C           -1.021418864459     1.119648207520     0.447935622341    12.000000000000
         C           -2.415210864459    -1.109052792480    -0.458850377659    12.000000000000
         C           -2.415384864459     1.118125207520     0.440941622341    12.000000000000
         C            1.888644135541    -1.120143792480     0.452856622341    12.000000000000
         C            1.891931135541     1.120716207520    -0.450641377659    12.000000000000
         C           -4.642486864459    -0.007078792480     0.019770622341    12.000000000000
         C            3.283660135541    -1.122003792480     0.452227622341    12.000000000000
         C            3.286961135541     1.120125207520    -0.445689377659    12.000000000000
         C            3.987443135541    -0.001510792480     0.004403622341    12.000000000000
         H           -0.481655864459    -1.977288792480    -0.841943377659     1.007825032230
         H           -0.482168864459     1.984900207520     0.828956622341     1.007825032230
         H           -2.952995864459    -1.980713792480    -0.829608377659     1.007825032230
         H           -2.953384864459     1.995434207520     0.797854622341     1.007825032230
         H            1.242710235541    -2.141210792480     0.899637522341     1.007825032230
         H            1.349019135541     1.984088207520    -0.830045377659     1.007825032230
         H           -5.048297864459     0.999794207520    -0.114121377659     1.007825032230
         H           -5.047819864459    -0.644570792480    -0.771243377659     1.007825032230
         H           -5.013745864459    -0.389711792480     0.976972622341     1.007825032230
         H            3.822657135541    -1.995325792480     0.812616622341     1.007825032230
         H            3.828569135541     1.992491207520    -0.804472377659     1.007825032230
         H            5.074793135541    -0.002436792480     0.006072622341     1.007825032230

  Basis Set: AUG-CC-PVTZ
    Blend: AUG-CC-PVTZ
  Basis Set: (AUG-CC-PVTZ AUX)
    Blend: AUG-CC-PVTZ-JKFIT
	 Reference Energy          =    -499.4275874270508666 [Eh]
	 Singles Energy            =      -0.0000000000000000 [Eh]
	 Same-Spin Energy          =      -0.5660629156565227 [Eh]
	 Opposite-Spin Energy      =      -1.7820038204657478 [Eh]
	 Correlation Energy        =      -2.3480667361222705 [Eh]
	 Total Energy              =    -501.7756541631731579 [Eh]

	 ================> DF-SCS-MP2 Energies <==================
	-----------------------------------------------------------
	 SCS Same-Spin Scale       =       0.3333333333333333 [-]
	 SCS Opposite-Spin Scale   =       1.2000000000000000 [-]
	 SCS Same-Spin Energy      =      -0.1886876385521742 [Eh]
	 SCS Opposite-Spin Energy  =      -2.1384045845588973 [Eh]
	 SCS Correlation Energy    =      -2.3270922231110713 [Eh]
	 SCS Total Energy          =    -501.7546796501619610 [Eh]
	-----------------------------------------------------------

  Dipole Moment: [D]
     X:    -0.4322      Y:     0.0524      Z:     0.0050     Total:     0.4354

*** Psi4 exiting successfully. Buy a developer a beer!
