                               Psi4 1.4a3.dev225

  ==> Input File <==

--------------------------------------------------------------------------
#psi4
#
memory 32 gb

molecule  {
0 1
  C       -0.3962357     0.0627548     0.0284292
  C        1.2106340     0.0001110     0.0000760
  C       -3.1008180     0.0056250    -0.0137190
  C       -0.9855960    -1.1139970    -0.4586890
  C       -0.9858100     1.1188490     0.4479860
  C       -2.3796020    -1.1098520    -0.4588000
  C       -2.3797760     1.1173260     0.4409920
  C        1.9242530    -1.1209430     0.4529070
  C        1.9275400     1.1199170    -0.4505910
  C       -4.6068780    -0.0078780     0.0198210
  C        3.3192690    -1.1228030     0.4522780
  C        3.3225700     1.1193260    -0.4456390
  C        4.0230520    -0.0023100     0.0044540
  H       -0.4460470    -1.9780880    -0.8418930
  H       -0.4465600     1.9841010     0.8290070
  H       -2.9173870    -1.9815130    -0.8295580
  H       -2.9177760     1.9946350     0.7979050
  H        1.3786050    -1.9834820     0.8303220
  H        1.3846280     1.9832890    -0.8299950
  H       -5.0126890     0.9989950    -0.1140710
  H       -5.0122110    -0.6453700    -0.7711930
  H       -4.9781370    -0.3905110     0.9770230
  H        3.8582660    -1.9961250     0.8126670
  H        3.8641780     1.9916920    -0.8044220
  H        5.1104020    -0.0032360     0.0061230
units angstrom
no_reorient  #important for SAPT in psi4, default
symmetry c1  #important for SAPT in psi4, default
}

set PROPERTIES_ORIGIN ["COM"]
properties('MP2/aug-cc-pvtz', properties = ['dipole'])
--------------------------------------------------------------------------

    Molecular point group: c1
  Charge       = 0
  Multiplicity = 1
  Basis Set: AUG-CC-PVTZ
    Blend: AUG-CC-PVTZ
  Basis Set: (AUG-CC-PVTZ AUX)
    Blend: AUG-CC-PVTZ-JKFIT

    Orbital Energies [Eh]
    ---------------------

    Doubly Occupied:

       1A    -11.247876     2A    -11.241117     3A    -11.236938
       4A    -11.235767     5A    -11.235618     6A    -11.234900
       7A    -11.233461     8A    -11.232852     9A    -11.232808
      10A    -11.232032    11A    -11.231217    12A    -11.225323
      13A    -11.220422    14A     -1.174285    15A     -1.142618
      16A     -1.063045    17A     -1.021834    18A     -1.009595
      19A     -1.001945    20A     -0.928401    21A     -0.843649
      22A     -0.821379    23A     -0.814004    24A     -0.781936
      25A     -0.708606    26A     -0.665453    27A     -0.648370
      28A     -0.638251    29A     -0.615247    30A     -0.612474
      31A     -0.596766    32A     -0.581883    33A     -0.576505
      34A     -0.558742    35A     -0.541974    36A     -0.512710
      37A     -0.511021    38A     -0.499422    39A     -0.490720
      40A     -0.485950    41A     -0.450333    42A     -0.356506
      43A     -0.338947    44A     -0.334519    45A     -0.305519

  @DF-RHF Final Energy:  -499.42577534880462

   => Energetics <=

    Nuclear Repulsion Energy =            687.6854697216152772
    One-Electron Energy =               -2038.8766057894777077
    Two-Electron Energy =                 851.7653607190576395
    Total Energy =                       -499.4257753488046774
  Basis Set: (AUG-CC-PVTZ AUX)
    Blend: AUG-CC-PVTZ-RI
    Molecular point group: c1

    Geometry (in Angstrom), charge = 0, multiplicity = 1:

       Center              X                  Y                   Z               Mass
    ------------   -----------------  -----------------  -----------------  -----------------
         C           -0.423175970559     0.058187732571     0.026665531680    12.000000000000
         C            1.183693729441    -0.004456067429    -0.001687668320    12.000000000000
         C           -3.127758270559     0.001057932571    -0.015482668320    12.000000000000
         C           -1.012536270559    -1.118564067429    -0.460452668320    12.000000000000
         C           -1.012750270559     1.114281932571     0.446222331680    12.000000000000
         C           -2.406542270559    -1.114419067429    -0.460563668320    12.000000000000
         C           -2.406716270559     1.112758932571     0.439228331680    12.000000000000
         C            1.897312729441    -1.125510067429     0.451143331680    12.000000000000
         C            1.900599729441     1.115349932571    -0.452354668320    12.000000000000
         C           -4.633818270559    -0.012445067429     0.018057331680    12.000000000000
         C            3.292328729441    -1.127370067429     0.450514331680    12.000000000000
         C            3.295629729441     1.114758932571    -0.447402668320    12.000000000000
         C            3.996111729441    -0.006877067429     0.002690331680    12.000000000000
         H           -0.472987270559    -1.982655067429    -0.843656668320     1.007825032230
         H           -0.473500270559     1.979533932571     0.827243331680     1.007825032230
         H           -2.944327270559    -1.986080067429    -0.831321668320     1.007825032230
         H           -2.944716270559     1.990067932571     0.796141331680     1.007825032230
         H            1.351664729441    -1.988049067429     0.828558331680     1.007825032230
         H            1.357687729441     1.978721932571    -0.831758668320     1.007825032230
         H           -5.039629270559     0.994427932571    -0.115834668320     1.007825032230
         H           -5.039151270559    -0.649937067429    -0.772956668320     1.007825032230
         H           -5.005077270559    -0.395078067429     0.975259331680     1.007825032230
         H            3.831325729441    -2.000692067429     0.810903331680     1.007825032230
         H            3.837237729441     1.987124932571    -0.806185668320     1.007825032230
         H            5.083461729441    -0.007803067429     0.004359331680     1.007825032230

  Basis Set: AUG-CC-PVTZ
    Blend: AUG-CC-PVTZ
  Basis Set: (AUG-CC-PVTZ AUX)
    Blend: AUG-CC-PVTZ-JKFIT
	 Reference Energy          =    -499.4257753488046205 [Eh]
	 Singles Energy            =      -0.0000000000000000 [Eh]
	 Same-Spin Energy          =      -0.5645119569321173 [Eh]
	 Opposite-Spin Energy      =      -1.7788415755836668 [Eh]
	 Correlation Energy        =      -2.3433535325157839 [Eh]
	 Total Energy              =    -501.7691288813203982 [Eh]

	 ================> DF-SCS-MP2 Energies <==================
	-----------------------------------------------------------
	 SCS Same-Spin Scale       =       0.3333333333333333 [-]
	 SCS Opposite-Spin Scale   =       1.2000000000000000 [-]
	 SCS Same-Spin Energy      =      -0.1881706523107058 [Eh]
	 SCS Opposite-Spin Energy  =      -2.1346098907004003 [Eh]
	 SCS Correlation Energy    =      -2.3227805430111061 [Eh]
	 SCS Total Energy          =    -501.7485558918157267 [Eh]
	-----------------------------------------------------------

  Dipole Moment: [D]
     X:    -0.6666      Y:    -0.0231      Z:     0.0395     Total:     0.6681

*** Psi4 exiting successfully. Buy a developer a beer!
