                               Psi4 1.4a3.dev225

  ==> Input File <==

--------------------------------------------------------------------------
#psi4
#
memory 32 gb

molecule  {
0 1
  C       -0.2663850     0.0008990    -0.0013960
  C        1.2106340     0.0001110     0.0000760
  C       -3.1008180     0.0056250    -0.0137190
  C       -0.9855960    -1.1139970    -0.4586890
  C       -0.9858100     1.1188490     0.4479860
  C       -2.3796020    -1.1098520    -0.4588000
  C       -2.3797760     1.1173260     0.4409920
  C        1.8734236    -1.0410929     0.4206529
  C        1.9275400     1.1199170    -0.4505910
  C       -4.6068780    -0.0078780     0.0198210
  C        3.3192690    -1.1228030     0.4522780
  C        3.3225700     1.1193260    -0.4456390
  C        4.0230520    -0.0023100     0.0044540
  H       -0.4460470    -1.9780880    -0.8418930
  H       -0.4465600     1.9841010     0.8290070
  H       -2.9173870    -1.9815130    -0.8295580
  H       -2.9177760     1.9946350     0.7979050
  H        1.3786050    -1.9834820     0.8303220
  H        1.3846280     1.9832890    -0.8299950
  H       -5.0126890     0.9989950    -0.1140710
  H       -5.0122110    -0.6453700    -0.7711930
  H       -4.9781370    -0.3905110     0.9770230
  H        3.8582660    -1.9961250     0.8126670
  H        3.8641780     1.9916920    -0.8044220
  H        5.1104020    -0.0032360     0.0061230
units angstrom
no_reorient  #important for SAPT in psi4, default
symmetry c1  #important for SAPT in psi4, default
}

set PROPERTIES_ORIGIN ["COM"]
properties('MP2/aug-cc-pvtz', properties = ['dipole'])
--------------------------------------------------------------------------

    Molecular point group: c1
  Charge       = 0
  Multiplicity = 1
  Basis Set: AUG-CC-PVTZ
    Blend: AUG-CC-PVTZ
  Basis Set: (AUG-CC-PVTZ AUX)
    Blend: AUG-CC-PVTZ-JKFIT

    Orbital Energies [Eh]
    ---------------------

    Doubly Occupied:

       1A    -11.242005     2A    -11.241860     3A    -11.240441
       4A    -11.236741     5A    -11.235533     6A    -11.234746
       7A    -11.234713     8A    -11.234490     9A    -11.233484
      10A    -11.231614    11A    -11.231563    12A    -11.231474
      13A    -11.225109    14A     -1.173700    15A     -1.143183
      16A     -1.067074    17A     -1.015695    18A     -1.011162
      19A     -1.002801    20A     -0.929458    21A     -0.844607
      22A     -0.828787    23A     -0.812976    24A     -0.779233
      25A     -0.712889    26A     -0.662364    27A     -0.646935
      28A     -0.641166    29A     -0.620589    30A     -0.611966
      31A     -0.583572    32A     -0.577331    33A     -0.574484
      34A     -0.572294    35A     -0.541483    36A     -0.513360
      37A     -0.510325    38A     -0.498554    39A     -0.483029
      40A     -0.481616    41A     -0.469593    42A     -0.365809
      43A     -0.336104    44A     -0.329816    45A     -0.301472

  @DF-RHF Final Energy:  -499.43700661543568

   => Energetics <=

    Nuclear Repulsion Energy =            688.8872810657464925
    One-Electron Energy =               -2041.2541785586811329
    Two-Electron Energy =                 852.9298908774990196
    Total Energy =                       -499.4370066154356209
  Basis Set: (AUG-CC-PVTZ AUX)
    Blend: AUG-CC-PVTZ-RI
    Molecular point group: c1

    Geometry (in Angstrom), charge = 0, multiplicity = 1:

       Center              X                  Y                   Z               Mass
    ------------   -----------------  -----------------  -----------------  -----------------
         C           -0.298966496075    -0.004952656575     0.001272090348    12.000000000000
         C            1.178052503925    -0.005740656575     0.002744090348    12.000000000000
         C           -3.133399496075    -0.000226656575    -0.011050909652    12.000000000000
         C           -1.018177496075    -1.119848656575    -0.456020909652    12.000000000000
         C           -1.018391496075     1.112997343425     0.450654090348    12.000000000000
         C           -2.412183496075    -1.115703656575    -0.456131909652    12.000000000000
         C           -2.412357496075     1.111474343425     0.443660090348    12.000000000000
         C            1.840842103925    -1.046944556575     0.423320990348    12.000000000000
         C            1.894958503925     1.114065343425    -0.447922909652    12.000000000000
         C           -4.639459496075    -0.013729656575     0.022489090348    12.000000000000
         C            3.286687503925    -1.128654656575     0.454946090348    12.000000000000
         C            3.289988503925     1.113474343425    -0.442970909652    12.000000000000
         C            3.990470503925    -0.008161656575     0.007122090348    12.000000000000
         H           -0.478628496075    -1.983939656575    -0.839224909652     1.007825032230
         H           -0.479141496075     1.978249343425     0.831675090348     1.007825032230
         H           -2.949968496075    -1.987364656575    -0.826889909652     1.007825032230
         H           -2.950357496075     1.988783343425     0.800573090348     1.007825032230
         H            1.346023503925    -1.989333656575     0.832990090348     1.007825032230
         H            1.352046503925     1.977437343425    -0.827326909652     1.007825032230
         H           -5.045270496075     0.993143343425    -0.111402909652     1.007825032230
         H           -5.044792496075    -0.651221656575    -0.768524909652     1.007825032230
         H           -5.010718496075    -0.396362656575     0.979691090348     1.007825032230
         H            3.825684503925    -2.001976656575     0.815335090348     1.007825032230
         H            3.831596503925     1.985840343425    -0.801753909652     1.007825032230
         H            5.077820503925    -0.009087656575     0.008791090348     1.007825032230

  Basis Set: AUG-CC-PVTZ
    Blend: AUG-CC-PVTZ
  Basis Set: (AUG-CC-PVTZ AUX)
    Blend: AUG-CC-PVTZ-JKFIT
	 Reference Energy          =    -499.4370066154356778 [Eh]
	 Singles Energy            =      -0.0000000000000000 [Eh]
	 Same-Spin Energy          =      -0.5652188911928915 [Eh]
	 Opposite-Spin Energy      =      -1.7800374170373718 [Eh]
	 Correlation Energy        =      -2.3452563082302635 [Eh]
	 Total Energy              =    -501.7822629236659395 [Eh]

	 ================> DF-SCS-MP2 Energies <==================
	-----------------------------------------------------------
	 SCS Same-Spin Scale       =       0.3333333333333333 [-]
	 SCS Opposite-Spin Scale   =       1.2000000000000000 [-]
	 SCS Same-Spin Energy      =      -0.1884062970642972 [Eh]
	 SCS Opposite-Spin Energy  =      -2.1360449004448463 [Eh]
	 SCS Correlation Energy    =      -2.3244511975091435 [Eh]
	 SCS Total Energy          =    -501.7614578129447978 [Eh]
	-----------------------------------------------------------

  Dipole Moment: [D]
     X:    -0.4186      Y:    -0.0159      Z:     0.0340     Total:     0.4203

*** Psi4 exiting successfully. Buy a developer a beer!
