                               Psi4 1.4a3.dev225

  ==> Input File <==

--------------------------------------------------------------------------
#psi4
#
memory 32 gb

molecule  {
0 1
  C       -0.2663850     0.0008990    -0.0013960
  C        1.2106340     0.0001110     0.0000760
  C       -3.1008180     0.0056250    -0.0137190
  C       -0.9855960    -1.1139970    -0.4586890
  C       -0.9858100     1.1188490     0.4479860
  C       -2.3796020    -1.1098520    -0.4588000
  C       -2.3797760     1.1173260     0.4409920
  C        1.9242530    -1.1209430     0.4529070
  C        1.9284749     1.1649102    -0.4691867
  C       -4.6068780    -0.0078780     0.0198210
  C        3.3192690    -1.1228030     0.4522780
  C        3.3225700     1.1193260    -0.4456390
  C        4.0230520    -0.0023100     0.0044540
  H       -0.4460470    -1.9780880    -0.8418930
  H       -0.4465600     1.9841010     0.8290070
  H       -2.9173870    -1.9815130    -0.8295580
  H       -2.9177760     1.9946350     0.7979050
  H        1.3786050    -1.9834820     0.8303220
  H        1.3846280     1.9832890    -0.8299950
  H       -5.0126890     0.9989950    -0.1140710
  H       -5.0122110    -0.6453700    -0.7711930
  H       -4.9781370    -0.3905110     0.9770230
  H        3.8582660    -1.9961250     0.8126670
  H        3.8641780     1.9916920    -0.8044220
  H        5.1104020    -0.0032360     0.0061230
units angstrom
no_reorient  #important for SAPT in psi4, default
symmetry c1  #important for SAPT in psi4, default
}

set PROPERTIES_ORIGIN ["COM"]
properties('MP2/aug-cc-pvtz', properties = ['dipole'])
--------------------------------------------------------------------------

    Molecular point group: c1
  Charge       = 0
  Multiplicity = 1
  Basis Set: AUG-CC-PVTZ
    Blend: AUG-CC-PVTZ
  Basis Set: (AUG-CC-PVTZ AUX)
    Blend: AUG-CC-PVTZ-JKFIT

    Orbital Energies [Eh]
    ---------------------

    Doubly Occupied:

       1A    -11.249603     2A    -11.242614     3A    -11.241086
       4A    -11.237997     5A    -11.237630     6A    -11.235437
       7A    -11.235356     8A    -11.235127     9A    -11.234369
      10A    -11.234058    11A    -11.232185    12A    -11.232054
      13A    -11.225538    14A     -1.165992    15A     -1.139300
      16A     -1.064639    17A     -1.017595    18A     -1.009257
      19A     -1.001612    20A     -0.928497    21A     -0.841220
      22A     -0.833252    23A     -0.811926    24A     -0.778319
      25A     -0.711499    26A     -0.669888    27A     -0.645561
      28A     -0.642735    29A     -0.616003    30A     -0.609592
      31A     -0.590492    32A     -0.580867    33A     -0.576530
      34A     -0.569963    35A     -0.541240    36A     -0.515203
      37A     -0.507122    38A     -0.498097    39A     -0.482220
      40A     -0.481375    41A     -0.475819    42A     -0.357631
      43A     -0.337947    44A     -0.336086    45A     -0.294103

  @DF-RHF Final Energy:  -499.44648047319112

   => Energetics <=

    Nuclear Repulsion Energy =            686.5346409280290345
    One-Electron Energy =               -2036.5529695276793518
    Two-Electron Energy =                 850.5718481264593720
    Total Energy =                       -499.4464804731910590
  Basis Set: (AUG-CC-PVTZ AUX)
    Blend: AUG-CC-PVTZ-RI
    Molecular point group: c1

    Geometry (in Angstrom), charge = 0, multiplicity = 1:

       Center              X                  Y                   Z               Mass
    ------------   -----------------  -----------------  -----------------  -----------------
         C           -0.302661880610    -0.002464268841     0.000297035336    12.000000000000
         C            1.174357119390    -0.003252268841     0.001769035336    12.000000000000
         C           -3.137094880610     0.002261731159    -0.012025964664    12.000000000000
         C           -1.021872880610    -1.117360268841    -0.456995964664    12.000000000000
         C           -1.022086880610     1.115485731159     0.449679035336    12.000000000000
         C           -2.415878880610    -1.113215268841    -0.457106964664    12.000000000000
         C           -2.416052880610     1.113962731159     0.442685035336    12.000000000000
         C            1.887976119390    -1.124306268841     0.454600035336    12.000000000000
         C            1.892198019390     1.161546931159    -0.467493664664    12.000000000000
         C           -4.643154880610    -0.011241268841     0.021514035336    12.000000000000
         C            3.282992119390    -1.126166268841     0.453971035336    12.000000000000
         C            3.286293119390     1.115962731159    -0.443945964664    12.000000000000
         C            3.986775119390    -0.005673268841     0.006147035336    12.000000000000
         H           -0.482323880610    -1.981451268841    -0.840199964664     1.007825032230
         H           -0.482836880610     1.980737731159     0.830700035336     1.007825032230
         H           -2.953663880610    -1.984876268841    -0.827864964664     1.007825032230
         H           -2.954052880610     1.991271731159     0.799598035336     1.007825032230
         H            1.342328119390    -1.986845268841     0.832015035336     1.007825032230
         H            1.348351119390     1.979925731159    -0.828301964664     1.007825032230
         H           -5.048965880610     0.995631731159    -0.112377964664     1.007825032230
         H           -5.048487880610    -0.648733268841    -0.769499964664     1.007825032230
         H           -5.014413880610    -0.393874268841     0.978716035336     1.007825032230
         H            3.821989119390    -1.999488268841     0.814360035336     1.007825032230
         H            3.827901119390     1.988328731159    -0.802728964664     1.007825032230
         H            5.074125119390    -0.006599268841     0.007816035336     1.007825032230

  Basis Set: AUG-CC-PVTZ
    Blend: AUG-CC-PVTZ
  Basis Set: (AUG-CC-PVTZ AUX)
    Blend: AUG-CC-PVTZ-JKFIT
	 Reference Energy          =    -499.4464804731911158 [Eh]
	 Singles Energy            =      -0.0000000000000000 [Eh]
	 Same-Spin Energy          =      -0.5653932425575745 [Eh]
	 Opposite-Spin Energy      =      -1.7799474749363646 [Eh]
	 Correlation Energy        =      -2.3453407174939391 [Eh]
	 Total Energy              =    -501.7918211906850274 [Eh]

	 ================> DF-SCS-MP2 Energies <==================
	-----------------------------------------------------------
	 SCS Same-Spin Scale       =       0.3333333333333333 [-]
	 SCS Opposite-Spin Scale   =       1.2000000000000000 [-]
	 SCS Same-Spin Energy      =      -0.1884644141858582 [Eh]
	 SCS Opposite-Spin Energy  =      -2.1359369699236375 [Eh]
	 SCS Correlation Energy    =      -2.3244013841094957 [Eh]
	 SCS Total Energy          =    -501.7708818573005942 [Eh]
	-----------------------------------------------------------

  Dipole Moment: [D]
     X:    -0.4906      Y:    -0.0174      Z:     0.0350     Total:     0.4921

*** Psi4 exiting successfully. Buy a developer a beer!
