                               Psi4 1.4a3.dev225

  ==> Input File <==

--------------------------------------------------------------------------
#psi4
#
memory 32 gb

molecule  {
0 1
  C       -0.2663850     0.0008990    -0.0013960
  C        1.2106340     0.0001110     0.0000760
  C       -3.1008180     0.0056250    -0.0137190
  C       -0.9855960    -1.1139970    -0.4586890
  C       -0.9858100     1.1188490     0.4479860
  C       -2.3796020    -1.1098520    -0.4588000
  C       -2.3797760     1.1173260     0.4409920
  C        1.9242530    -1.1209430     0.4529070
  C        1.9275400     1.1199170    -0.4505910
  C       -4.6068780    -0.0078780     0.0198210
  C        3.2368105    -1.0745326     0.4328513
  C        3.3225700     1.1193260    -0.4456390
  C        4.0230520    -0.0023100     0.0044540
  H       -0.4460470    -1.9780880    -0.8418930
  H       -0.4465600     1.9841010     0.8290070
  H       -2.9173870    -1.9815130    -0.8295580
  H       -2.9177760     1.9946350     0.7979050
  H        1.3786050    -1.9834820     0.8303220
  H        1.3846280     1.9832890    -0.8299950
  H       -5.0126890     0.9989950    -0.1140710
  H       -5.0122110    -0.6453700    -0.7711930
  H       -4.9781370    -0.3905110     0.9770230
  H        3.8582660    -1.9961250     0.8126670
  H        3.8641780     1.9916920    -0.8044220
  H        5.1104020    -0.0032360     0.0061230
units angstrom
no_reorient  #important for SAPT in psi4, default
symmetry c1  #important for SAPT in psi4, default
}

set PROPERTIES_ORIGIN ["COM"]
properties('MP2/aug-cc-pvtz', properties = ['dipole'])
--------------------------------------------------------------------------

    Molecular point group: c1
  Charge       = 0
  Multiplicity = 1
  Basis Set: AUG-CC-PVTZ
    Blend: AUG-CC-PVTZ
  Basis Set: (AUG-CC-PVTZ AUX)
    Blend: AUG-CC-PVTZ-JKFIT

    Orbital Energies [Eh]
    ---------------------

    Doubly Occupied:

       1A    -11.245495     2A    -11.242987     3A    -11.241218
       4A    -11.236935     5A    -11.235809     6A    -11.235479
       7A    -11.234891     8A    -11.233503     9A    -11.232457
      10A    -11.232315    11A    -11.232312    12A    -11.225765
      13A    -11.224576    14A     -1.172537    15A     -1.146175
      16A     -1.065655    17A     -1.023951    18A     -1.011369
      19A     -1.002987    20A     -0.930065    21A     -0.838458
      22A     -0.837596    23A     -0.807511    24A     -0.779613
      25A     -0.711667    26A     -0.668125    27A     -0.648825
      28A     -0.639020    29A     -0.618726    30A     -0.607129
      31A     -0.586530    32A     -0.579846    33A     -0.576145
      34A     -0.569848    35A     -0.541730    36A     -0.519845
      37A     -0.513266    38A     -0.491560    39A     -0.484167
      40A     -0.483095    41A     -0.466805    42A     -0.357841
      43A     -0.346336    44A     -0.336886    45A     -0.295051

  @DF-RHF Final Energy:  -499.43784285139793

   => Energetics <=

    Nuclear Repulsion Energy =            689.2236817917005283
    One-Electron Energy =               -2041.8988508356881084
    Two-Electron Energy =                 853.2373261925896486
    Total Energy =                       -499.4378428513979316
  Basis Set: (AUG-CC-PVTZ AUX)
    Blend: AUG-CC-PVTZ-RI
    Molecular point group: c1

    Geometry (in Angstrom), charge = 0, multiplicity = 1:

       Center              X                  Y                   Z               Mass
    ------------   -----------------  -----------------  -----------------  -----------------
         C           -0.296708536690    -0.002698223790     0.000356359321    12.000000000000
         C            1.180310463310    -0.003486223790     0.001828359321    12.000000000000
         C           -3.131141536690     0.002027776210    -0.011966640679    12.000000000000
         C           -1.015919536690    -1.117594223790    -0.456936640679    12.000000000000
         C           -1.016133536690     1.115251776210     0.449738359321    12.000000000000
         C           -2.409925536690    -1.113449223790    -0.457047640679    12.000000000000
         C           -2.410099536690     1.113728776210     0.442744359321    12.000000000000
         C            1.893929463310    -1.124540223790     0.454659359321    12.000000000000
         C            1.897216463310     1.116319776210    -0.448838640679    12.000000000000
         C           -4.637201536690    -0.011475223790     0.021573359321    12.000000000000
         C            3.206486963310    -1.078129823790     0.434603659321    12.000000000000
         C            3.292246463310     1.115728776210    -0.443886640679    12.000000000000
         C            3.992728463310    -0.005907223790     0.006206359321    12.000000000000
         H           -0.476370536690    -1.981685223790    -0.840140640679     1.007825032230
         H           -0.476883536690     1.980503776210     0.830759359321     1.007825032230
         H           -2.947710536690    -1.985110223790    -0.827805640679     1.007825032230
         H           -2.948099536690     1.991037776210     0.799657359321     1.007825032230
         H            1.348281463310    -1.987079223790     0.832074359321     1.007825032230
         H            1.354304463310     1.979691776210    -0.828242640679     1.007825032230
         H           -5.043012536690     0.995397776210    -0.112318640679     1.007825032230
         H           -5.042534536690    -0.648967223790    -0.769440640679     1.007825032230
         H           -5.008460536690    -0.394108223790     0.978775359321     1.007825032230
         H            3.827942463310    -1.999722223790     0.814419359321     1.007825032230
         H            3.833854463310     1.988094776210    -0.802669640679     1.007825032230
         H            5.080078463310    -0.006833223790     0.007875359321     1.007825032230

  Basis Set: AUG-CC-PVTZ
    Blend: AUG-CC-PVTZ
  Basis Set: (AUG-CC-PVTZ AUX)
    Blend: AUG-CC-PVTZ-JKFIT
	 Reference Energy          =    -499.4378428513979316 [Eh]
	 Singles Energy            =      -0.0000000000000000 [Eh]
	 Same-Spin Energy          =      -0.5656002725021358 [Eh]
	 Opposite-Spin Energy      =      -1.7797818275686375 [Eh]
	 Correlation Energy        =      -2.3453821000707733 [Eh]
	 Total Energy              =    -501.7832249514686964 [Eh]

	 ================> DF-SCS-MP2 Energies <==================
	-----------------------------------------------------------
	 SCS Same-Spin Scale       =       0.3333333333333333 [-]
	 SCS Opposite-Spin Scale   =       1.2000000000000000 [-]
	 SCS Same-Spin Energy      =      -0.1885334241673786 [Eh]
	 SCS Opposite-Spin Energy  =      -2.1357381930823647 [Eh]
	 SCS Correlation Energy    =      -2.3242716172497433 [Eh]
	 SCS Total Energy          =    -501.7621144686476669 [Eh]
	-----------------------------------------------------------

  Dipole Moment: [D]
     X:    -0.5084      Y:     0.0478      Z:     0.0113     Total:     0.5108

*** Psi4 exiting successfully. Buy a developer a beer!
