                               Psi4 1.4a3.dev225

  ==> Input File <==

--------------------------------------------------------------------------
#psi4
#
memory 32 gb

molecule  {
0 1
  C       -0.3962046    -0.0609354    -0.0313916
  C        1.2106340     0.0001110     0.0000760
  C       -3.1008180     0.0056250    -0.0137190
  C       -0.9855960    -1.1139970    -0.4586890
  C       -0.9858100     1.1188490     0.4479860
  C       -2.3796020    -1.1098520    -0.4588000
  C       -2.3797760     1.1173260     0.4409920
  C        1.9242530    -1.1209430     0.4529070
  C        1.9275400     1.1199170    -0.4505910
  C       -4.6068780    -0.0078780     0.0198210
  C        3.3192690    -1.1228030     0.4522780
  C        3.3225700     1.1193260    -0.4456390
  C        4.0230520    -0.0023100     0.0044540
  H       -0.4460470    -1.9780880    -0.8418930
  H       -0.4465600     1.9841010     0.8290070
  H       -2.9173870    -1.9815130    -0.8295580
  H       -2.9177760     1.9946350     0.7979050
  H        1.3786050    -1.9834820     0.8303220
  H        1.3846280     1.9832890    -0.8299950
  H       -5.0126890     0.9989950    -0.1140710
  H       -5.0122110    -0.6453700    -0.7711930
  H       -4.9781370    -0.3905110     0.9770230
  H        3.8582660    -1.9961250     0.8126670
  H        3.8641780     1.9916920    -0.8044220
  H        5.1104020    -0.0032360     0.0061230
units angstrom
no_reorient  #important for SAPT in psi4, default
symmetry c1  #important for SAPT in psi4, default
}

set PROPERTIES_ORIGIN ["COM"]
properties('MP2/aug-cc-pvtz', properties = ['dipole'])
--------------------------------------------------------------------------

    Molecular point group: c1
  Charge       = 0
  Multiplicity = 1
  Basis Set: AUG-CC-PVTZ
    Blend: AUG-CC-PVTZ
  Basis Set: (AUG-CC-PVTZ AUX)
    Blend: AUG-CC-PVTZ-JKFIT

    Orbital Energies [Eh]
    ---------------------

    Doubly Occupied:

       1A    -11.247875     2A    -11.241121     3A    -11.236940
       4A    -11.235776     5A    -11.235617     6A    -11.234900
       7A    -11.233497     8A    -11.232815     9A    -11.232814
      10A    -11.232029    11A    -11.231207    12A    -11.225331
      13A    -11.220400    14A     -1.174289    15A     -1.142617
      16A     -1.063053    17A     -1.021834    18A     -1.009595
      19A     -1.001950    20A     -0.928402    21A     -0.843652
      22A     -0.821384    23A     -0.814003    24A     -0.781935
      25A     -0.708606    26A     -0.665454    27A     -0.648370
      28A     -0.638262    29A     -0.615358    30A     -0.612368
      31A     -0.596746    32A     -0.581833    33A     -0.576605
      34A     -0.558699    35A     -0.542011    36A     -0.512815
      37A     -0.510872    38A     -0.499431    39A     -0.490761
      40A     -0.485928    41A     -0.450328    42A     -0.356543
      43A     -0.338932    44A     -0.334518    45A     -0.305520

  @DF-RHF Final Energy:  -499.42578559709710

   => Energetics <=

    Nuclear Repulsion Energy =            687.6867513293266256
    One-Electron Energy =               -2038.8790819244065915
    Two-Electron Energy =                 851.7665449979828054
    Total Energy =                       -499.4257855970971605
  Basis Set: (AUG-CC-PVTZ AUX)
    Blend: AUG-CC-PVTZ-RI
    Molecular point group: c1

    Geometry (in Angstrom), charge = 0, multiplicity = 1:

       Center              X                  Y                   Z               Mass
    ------------   -----------------  -----------------  -----------------  -----------------
         C           -0.423147090746    -0.056672388547    -0.028884740964    12.000000000000
         C            1.183691509254     0.004374011453     0.002582859036    12.000000000000
         C           -3.127760490746     0.009888011453    -0.011212140964    12.000000000000
         C           -1.012538490746    -1.109733988547    -0.456182140964    12.000000000000
         C           -1.012752490746     1.123112011453     0.450492859036    12.000000000000
         C           -2.406544490746    -1.105588988547    -0.456293140964    12.000000000000
         C           -2.406718490746     1.121589011453     0.443498859036    12.000000000000
         C            1.897310509254    -1.116679988547     0.455413859036    12.000000000000
         C            1.900597509254     1.124180011453    -0.448084140964    12.000000000000
         C           -4.633820490746    -0.003614988547     0.022327859036    12.000000000000
         C            3.292326509254    -1.118539988547     0.454784859036    12.000000000000
         C            3.295627509254     1.123589011453    -0.443132140964    12.000000000000
         C            3.996109509254     0.001953011453     0.006960859036    12.000000000000
         H           -0.472989490746    -1.973824988547    -0.839386140964     1.007825032230
         H           -0.473502490746     1.988364011453     0.831513859036     1.007825032230
         H           -2.944329490746    -1.977249988547    -0.827051140964     1.007825032230
         H           -2.944718490746     1.998898011453     0.800411859036     1.007825032230
         H            1.351662509254    -1.979218988547     0.832828859036     1.007825032230
         H            1.357685509254     1.987552011453    -0.827488140964     1.007825032230
         H           -5.039631490746     1.003258011453    -0.111564140964     1.007825032230
         H           -5.039153490746    -0.641106988547    -0.768686140964     1.007825032230
         H           -5.005079490746    -0.386247988547     0.979529859036     1.007825032230
         H            3.831323509254    -1.991861988547     0.815173859036     1.007825032230
         H            3.837235509254     1.995955011453    -0.801915140964     1.007825032230
         H            5.083459509254     0.001027011453     0.008629859036     1.007825032230

  Basis Set: AUG-CC-PVTZ
    Blend: AUG-CC-PVTZ
  Basis Set: (AUG-CC-PVTZ AUX)
    Blend: AUG-CC-PVTZ-JKFIT
	 Reference Energy          =    -499.4257855970971036 [Eh]
	 Singles Energy            =      -0.0000000000000000 [Eh]
	 Same-Spin Energy          =      -0.5645085392527958 [Eh]
	 Opposite-Spin Energy      =      -1.7788433337818821 [Eh]
	 Correlation Energy        =      -2.3433518730346776 [Eh]
	 Total Energy              =    -501.7691374701317955 [Eh]

	 ================> DF-SCS-MP2 Energies <==================
	-----------------------------------------------------------
	 SCS Same-Spin Scale       =       0.3333333333333333 [-]
	 SCS Opposite-Spin Scale   =       1.2000000000000000 [-]
	 SCS Same-Spin Energy      =      -0.1881695130842652 [Eh]
	 SCS Opposite-Spin Energy  =      -2.1346120005382585 [Eh]
	 SCS Correlation Energy    =      -2.3227815136225236 [Eh]
	 SCS Total Energy          =    -501.7485671107196481 [Eh]
	-----------------------------------------------------------

  Dipole Moment: [D]
     X:    -0.6670      Y:    -0.0037      Z:     0.0327     Total:     0.6678

*** Psi4 exiting successfully. Buy a developer a beer!
