                               Psi4 1.4a3.dev225

  ==> Input File <==

--------------------------------------------------------------------------
#psi4
#
memory 32 gb

molecule  {
0 1
  C       -0.3521959     0.0446519     0.0164021
  C        1.2106340     0.0001110     0.0000760
  C       -3.1008180     0.0056250    -0.0137190
  C       -0.9855960    -1.1139970    -0.4586890
  C       -0.9858100     1.1188490     0.4479860
  C       -2.3796020    -1.1098520    -0.4588000
  C       -2.3797760     1.1173260     0.4409920
  C        1.9242530    -1.1209430     0.4529070
  C        1.9275400     1.1199170    -0.4505910
  C       -4.6068780    -0.0078780     0.0198210
  C        3.3192690    -1.1228030     0.4522780
  C        3.3225700     1.1193260    -0.4456390
  C        4.0230520    -0.0023100     0.0044540
  H       -0.4460470    -1.9780880    -0.8418930
  H       -0.4465600     1.9841010     0.8290070
  H       -2.9173870    -1.9815130    -0.8295580
  H       -2.9177760     1.9946350     0.7979050
  H        1.3786050    -1.9834820     0.8303220
  H        1.3846280     1.9832890    -0.8299950
  H       -5.0126890     0.9989950    -0.1140710
  H       -5.0122110    -0.6453700    -0.7711930
  H       -4.9781370    -0.3905110     0.9770230
  H        3.8582660    -1.9961250     0.8126670
  H        3.8641780     1.9916920    -0.8044220
  H        5.1104020    -0.0032360     0.0061230
units angstrom
no_reorient  #important for SAPT in psi4, default
symmetry c1  #important for SAPT in psi4, default
}

set PROPERTIES_ORIGIN ["COM"]
properties('MP2/aug-cc-pvtz', properties = ['dipole'])
--------------------------------------------------------------------------

    Molecular point group: c1
  Charge       = 0
  Multiplicity = 1
  Basis Set: AUG-CC-PVTZ
    Blend: AUG-CC-PVTZ
  Basis Set: (AUG-CC-PVTZ AUX)
    Blend: AUG-CC-PVTZ-JKFIT

    Orbital Energies [Eh]
    ---------------------

    Doubly Occupied:

       1A    -11.247439     2A    -11.241534     3A    -11.238066
       4A    -11.236202     5A    -11.235633     6A    -11.235492
       7A    -11.233466     8A    -11.232870     9A    -11.232869
      10A    -11.232502    11A    -11.232238    12A    -11.225337
      13A    -11.225320    14A     -1.170813    15A     -1.142675
      16A     -1.062822    17A     -1.019598    18A     -1.009864
      19A     -1.002940    20A     -0.928527    21A     -0.842413
      22A     -0.824982    23A     -0.813469    24A     -0.781292
      25A     -0.709542    26A     -0.665225    27A     -0.647225
      28A     -0.639450    29A     -0.614637    30A     -0.612877
      31A     -0.593130    32A     -0.582075    33A     -0.576294
      34A     -0.562786    35A     -0.541803    36A     -0.512668
      37A     -0.509426    38A     -0.498316    39A     -0.488474
      40A     -0.484777    41A     -0.462019    42A     -0.356486
      43A     -0.338424    44A     -0.335194    45A     -0.302928

  @DF-RHF Final Energy:  -499.44027778525299

   => Energetics <=

    Nuclear Repulsion Energy =            687.5284936614315257
    One-Electron Energy =               -2038.5733104498365265
    Two-Electron Energy =                 851.6045390031521265
    Total Energy =                       -499.4402777852529880
  Basis Set: (AUG-CC-PVTZ AUX)
    Blend: AUG-CC-PVTZ-RI
    Molecular point group: c1

    Geometry (in Angstrom), charge = 0, multiplicity = 1:

       Center              X                  Y                   Z               Mass
    ------------   -----------------  -----------------  -----------------  -----------------
         C           -0.382280113312     0.041377174527     0.015497030354    12.000000000000
         C            1.180549786688    -0.003163725473    -0.000829069646    12.000000000000
         C           -3.130902213312     0.002350274527    -0.014624069646    12.000000000000
         C           -1.015680213312    -1.117271725473    -0.459594069646    12.000000000000
         C           -1.015894213312     1.115574274527     0.447080930354    12.000000000000
         C           -2.409686213312    -1.113126725473    -0.459705069646    12.000000000000
         C           -2.409860213312     1.114051274527     0.440086930354    12.000000000000
         C            1.894168786688    -1.124217725473     0.452001930354    12.000000000000
         C            1.897455786688     1.116642274527    -0.451496069646    12.000000000000
         C           -4.636962213312    -0.011152725473     0.018915930354    12.000000000000
         C            3.289184786688    -1.126077725473     0.451372930354    12.000000000000
         C            3.292485786688     1.116051274527    -0.446544069646    12.000000000000
         C            3.992967786688    -0.005584725473     0.003548930354    12.000000000000
         H           -0.476131213312    -1.981362725473    -0.842798069646     1.007825032230
         H           -0.476644213312     1.980826274527     0.828101930354     1.007825032230
         H           -2.947471213312    -1.984787725473    -0.830463069646     1.007825032230
         H           -2.947860213312     1.991360274527     0.796999930354     1.007825032230
         H            1.348520786688    -1.986756725473     0.829416930354     1.007825032230
         H            1.354543786688     1.980014274527    -0.830900069646     1.007825032230
         H           -5.042773213312     0.995720274527    -0.114976069646     1.007825032230
         H           -5.042295213312    -0.648644725473    -0.772098069646     1.007825032230
         H           -5.008221213312    -0.393785725473     0.976117930354     1.007825032230
         H            3.828181786688    -1.999399725473     0.811761930354     1.007825032230
         H            3.834093786688     1.988417274527    -0.805327069646     1.007825032230
         H            5.080317786688    -0.006510725473     0.005217930354     1.007825032230

  Basis Set: AUG-CC-PVTZ
    Blend: AUG-CC-PVTZ
  Basis Set: (AUG-CC-PVTZ AUX)
    Blend: AUG-CC-PVTZ-JKFIT
	 Reference Energy          =    -499.4402777852529880 [Eh]
	 Singles Energy            =      -0.0000000000000000 [Eh]
	 Same-Spin Energy          =      -0.5646142146509898 [Eh]
	 Opposite-Spin Energy      =      -1.7786671194812382 [Eh]
	 Correlation Energy        =      -2.3432813341322278 [Eh]
	 Total Energy              =    -501.7835591193851883 [Eh]

	 ================> DF-SCS-MP2 Energies <==================
	-----------------------------------------------------------
	 SCS Same-Spin Scale       =       0.3333333333333333 [-]
	 SCS Opposite-Spin Scale   =       1.2000000000000000 [-]
	 SCS Same-Spin Energy      =      -0.1882047382169966 [Eh]
	 SCS Opposite-Spin Energy  =      -2.1344005433774860 [Eh]
	 SCS Correlation Energy    =      -2.3226052815944827 [Eh]
	 SCS Total Energy          =    -501.7628830668474507 [Eh]
	-----------------------------------------------------------

  Dipole Moment: [D]
     X:    -0.6005      Y:    -0.0210      Z:     0.0389     Total:     0.6021

*** Psi4 exiting successfully. Buy a developer a beer!
