                               Psi4 1.4a3.dev225

  ==> Input File <==

--------------------------------------------------------------------------
#psi4
#
memory 32 gb

molecule  {
0 1
  C       -0.2663850     0.0008990    -0.0013960
  C        1.2106340     0.0001110     0.0000760
  C       -3.1008180     0.0056250    -0.0137190
  C       -0.9855960    -1.1139970    -0.4586890
  C       -0.9858100     1.1188490     0.4479860
  C       -2.3296022    -1.1100007    -0.4587960
  C       -2.3797760     1.1173260     0.4409920
  C        1.9242530    -1.1209430     0.4529070
  C        1.9275400     1.1199170    -0.4505910
  C       -4.6068780    -0.0078780     0.0198210
  C        3.3192690    -1.1228030     0.4522780
  C        3.3225700     1.1193260    -0.4456390
  C        4.0230520    -0.0023100     0.0044540
  H       -0.4460470    -1.9780880    -0.8418930
  H       -0.4465600     1.9841010     0.8290070
  H       -2.9173870    -1.9815130    -0.8295580
  H       -2.9177760     1.9946350     0.7979050
  H        1.3786050    -1.9834820     0.8303220
  H        1.3846280     1.9832890    -0.8299950
  H       -5.0126890     0.9989950    -0.1140710
  H       -5.0122110    -0.6453700    -0.7711930
  H       -4.9781370    -0.3905110     0.9770230
  H        3.8582660    -1.9961250     0.8126670
  H        3.8641780     1.9916920    -0.8044220
  H        5.1104020    -0.0032360     0.0061230
units angstrom
no_reorient  #important for SAPT in psi4, default
symmetry c1  #important for SAPT in psi4, default
}

set PROPERTIES_ORIGIN ["COM"]
properties('MP2/aug-cc-pvtz', properties = ['dipole'])
--------------------------------------------------------------------------

    Molecular point group: c1
  Charge       = 0
  Multiplicity = 1
  Basis Set: AUG-CC-PVTZ
    Blend: AUG-CC-PVTZ
  Basis Set: (AUG-CC-PVTZ AUX)
    Blend: AUG-CC-PVTZ-JKFIT

    Orbital Energies [Eh]
    ---------------------

    Doubly Occupied:

       1A    -11.245078     2A    -11.244764     3A    -11.240960
       4A    -11.237062     5A    -11.236802     6A    -11.234406
       7A    -11.234358     8A    -11.234212     9A    -11.233980
      10A    -11.231959    11A    -11.231313    12A    -11.229080
      13A    -11.227042    14A     -1.169219    15A     -1.141872
      16A     -1.063415    17A     -1.020696    18A     -1.011382
      19A     -1.004027    20A     -0.928848    21A     -0.838551
      22A     -0.833377    23A     -0.809096    24A     -0.780956
      25A     -0.711605    26A     -0.666323    27A     -0.647725
      28A     -0.641275    29A     -0.614088    30A     -0.610529
      31A     -0.587760    32A     -0.580351    33A     -0.576675
      34A     -0.569280    35A     -0.542779    36A     -0.514995
      37A     -0.509526    38A     -0.495870    39A     -0.483530
      40A     -0.482995    41A     -0.473051    42A     -0.357505
      43A     -0.342849    44A     -0.336474    45A     -0.293562

  @DF-RHF Final Energy:  -499.44683078673296

   => Energetics <=

    Nuclear Repulsion Energy =            687.8317183823661480
    One-Electron Energy =               -2039.1546992010262329
    Two-Electron Energy =                 851.8761500319272955
    Total Energy =                       -499.4468307867329031
  Basis Set: (AUG-CC-PVTZ AUX)
    Blend: AUG-CC-PVTZ-RI
    Molecular point group: c1

    Geometry (in Angstrom), charge = 0, multiplicity = 1:

       Center              X                  Y                   Z               Mass
    ------------   -----------------  -----------------  -----------------  -----------------
         C           -0.306164558570     0.000758351366    -0.001030772511    12.000000000000
         C            1.170854441430    -0.000029648634     0.000441227489    12.000000000000
         C           -3.140597558570     0.005484351366    -0.013353772511    12.000000000000
         C           -1.025375558570    -1.114137648634    -0.458323772511    12.000000000000
         C           -1.025589558570     1.118708351366     0.448351227489    12.000000000000
         C           -2.369381758570    -1.110141348634    -0.458430772511    12.000000000000
         C           -2.419555558570     1.117185351366     0.441357227489    12.000000000000
         C            1.884473441430    -1.121083648634     0.453272227489    12.000000000000
         C            1.887760441430     1.119776351366    -0.450225772511    12.000000000000
         C           -4.646657558570    -0.008018648634     0.020186227489    12.000000000000
         C            3.279489441430    -1.122943648634     0.452643227489    12.000000000000
         C            3.282790441430     1.119185351366    -0.445273772511    12.000000000000
         C            3.983272441430    -0.002450648634     0.004819227489    12.000000000000
         H           -0.485826558570    -1.978228648634    -0.841527772511     1.007825032230
         H           -0.486339558570     1.983960351366     0.829372227489     1.007825032230
         H           -2.957166558570    -1.981653648634    -0.829192772511     1.007825032230
         H           -2.957555558570     1.994494351366     0.798270227489     1.007825032230
         H            1.338825441430    -1.983622648634     0.830687227489     1.007825032230
         H            1.344848441430     1.983148351366    -0.829629772511     1.007825032230
         H           -5.052468558570     0.998854351366    -0.113705772511     1.007825032230
         H           -5.051990558570    -0.645510648634    -0.770827772511     1.007825032230
         H           -5.017916558570    -0.390651648634     0.977388227489     1.007825032230
         H            3.818486441430    -1.996265648634     0.813032227489     1.007825032230
         H            3.824398441430     1.991551351366    -0.804056772511     1.007825032230
         H            5.070622441430    -0.003376648634     0.006488227489     1.007825032230

  Basis Set: AUG-CC-PVTZ
    Blend: AUG-CC-PVTZ
  Basis Set: (AUG-CC-PVTZ AUX)
    Blend: AUG-CC-PVTZ-JKFIT
	 Reference Energy          =    -499.4468307867329600 [Eh]
	 Singles Energy            =      -0.0000000000000000 [Eh]
	 Same-Spin Energy          =      -0.5653902457738481 [Eh]
	 Opposite-Spin Energy      =      -1.7795948278317131 [Eh]
	 Correlation Energy        =      -2.3449850736055611 [Eh]
	 Total Energy              =    -501.7918158603385450 [Eh]

	 ================> DF-SCS-MP2 Energies <==================
	-----------------------------------------------------------
	 SCS Same-Spin Scale       =       0.3333333333333333 [-]
	 SCS Opposite-Spin Scale   =       1.2000000000000000 [-]
	 SCS Same-Spin Energy      =      -0.1884634152579494 [Eh]
	 SCS Opposite-Spin Energy  =      -2.1355137933980557 [Eh]
	 SCS Correlation Energy    =      -2.3239772086560051 [Eh]
	 SCS Total Energy          =    -501.7708079953889637 [Eh]
	-----------------------------------------------------------

  Dipole Moment: [D]
     X:    -0.5174      Y:    -0.0015      Z:     0.0440     Total:     0.5192

*** Psi4 exiting successfully. Buy a developer a beer!
