                               Psi4 1.4a3.dev225

  ==> Input File <==

--------------------------------------------------------------------------
#psi4
#
memory 32 gb

molecule  {
0 1
  C       -0.2663850     0.0008990    -0.0013960
  C        1.2106340     0.0001110     0.0000760
  C       -3.1008180     0.0056250    -0.0137190
  C       -0.9855960    -1.1139970    -0.4586890
  C       -0.9960631     1.1347818     0.4543905
  C       -2.3796020    -1.1098520    -0.4588000
  C       -2.3797760     1.1173260     0.4409920
  C        1.9242530    -1.1209430     0.4529070
  C        1.9275400     1.1199170    -0.4505910
  C       -4.6068780    -0.0078780     0.0198210
  C        3.3192690    -1.1228030     0.4522780
  C        3.3225700     1.1193260    -0.4456390
  C        4.0230520    -0.0023100     0.0044540
  H       -0.4460470    -1.9780880    -0.8418930
  H       -0.4465600     1.9841010     0.8290070
  H       -2.9173870    -1.9815130    -0.8295580
  H       -2.9177760     1.9946350     0.7979050
  H        1.3786050    -1.9834820     0.8303220
  H        1.3846280     1.9832890    -0.8299950
  H       -5.0126890     0.9989950    -0.1140710
  H       -5.0122110    -0.6453700    -0.7711930
  H       -4.9781370    -0.3905110     0.9770230
  H        3.8582660    -1.9961250     0.8126670
  H        3.8641780     1.9916920    -0.8044220
  H        5.1104020    -0.0032360     0.0061230
units angstrom
no_reorient  #important for SAPT in psi4, default
symmetry c1  #important for SAPT in psi4, default
}

set PROPERTIES_ORIGIN ["COM"]
properties('MP2/aug-cc-pvtz', properties = ['dipole'])
--------------------------------------------------------------------------

    Molecular point group: c1
  Charge       = 0
  Multiplicity = 1
  Basis Set: AUG-CC-PVTZ
    Blend: AUG-CC-PVTZ
  Basis Set: (AUG-CC-PVTZ AUX)
    Blend: AUG-CC-PVTZ-JKFIT

    Orbital Energies [Eh]
    ---------------------

    Doubly Occupied:

       1A    -11.245094     2A    -11.243102     3A    -11.242608
       4A    -11.237210     5A    -11.236962     6A    -11.235542
       7A    -11.235009     8A    -11.234569     9A    -11.234392
      10A    -11.234164    11A    -11.232035    12A    -11.231311
      13A    -11.225526    14A     -1.167158    15A     -1.141222
      16A     -1.064196    17A     -1.017493    18A     -1.009578
      19A     -1.003980    20A     -0.928071    21A     -0.840207
      22A     -0.833381    23A     -0.811287    24A     -0.779720
      25A     -0.711464    26A     -0.666159    27A     -0.646000
      28A     -0.643312    29A     -0.614059    30A     -0.612833
      31A     -0.588207    32A     -0.581009    33A     -0.576384
      34A     -0.570062    35A     -0.540797    36A     -0.513273
      37A     -0.508310    38A     -0.498025    39A     -0.482479
      40A     -0.480860    41A     -0.477819    42A     -0.358646
      43A     -0.338415    44A     -0.336313    45A     -0.294701

  @DF-RHF Final Energy:  -499.44940874834896

   => Energetics <=

    Nuclear Repulsion Energy =            687.0587395857289721
    One-Electron Energy =               -2037.6104066387733837
    Two-Electron Energy =                 851.1022583046955106
    Total Energy =                       -499.4494087483489011
  Basis Set: (AUG-CC-PVTZ AUX)
    Blend: AUG-CC-PVTZ-RI
    Molecular point group: c1

    Geometry (in Angstrom), charge = 0, multiplicity = 1:

       Center              X                  Y                   Z               Mass
    ------------   -----------------  -----------------  -----------------  -----------------
         C           -0.301863184169    -0.000389685532    -0.001487695694    12.000000000000
         C            1.175155815831    -0.001177685532    -0.000015695694    12.000000000000
         C           -3.136296184169     0.004336314468    -0.013810695694    12.000000000000
         C           -1.021074184169    -1.115285685532    -0.458780695694    12.000000000000
         C           -1.031541284169     1.133493114468     0.454298804306    12.000000000000
         C           -2.415080184169    -1.111140685532    -0.458891695694    12.000000000000
         C           -2.415254184169     1.116037314468     0.440900304306    12.000000000000
         C            1.888774815831    -1.122231685532     0.452815304306    12.000000000000
         C            1.892061815831     1.118628314468    -0.450682695694    12.000000000000
         C           -4.642356184169    -0.009166685532     0.019729304306    12.000000000000
         C            3.283790815831    -1.124091685532     0.452186304306    12.000000000000
         C            3.287091815831     1.118037314468    -0.445730695694    12.000000000000
         C            3.987573815831    -0.003598685532     0.004362304306    12.000000000000
         H           -0.481525184169    -1.979376685532    -0.841984695694     1.007825032230
         H           -0.482038184169     1.982812314468     0.828915304306     1.007825032230
         H           -2.952865184169    -1.982801685532    -0.829649695694     1.007825032230
         H           -2.953254184169     1.993346314468     0.797813304306     1.007825032230
         H            1.343126815831    -1.984770685532     0.830230304306     1.007825032230
         H            1.349149815831     1.982000314468    -0.830086695694     1.007825032230
         H           -5.048167184169     0.997706314468    -0.114162695694     1.007825032230
         H           -5.047689184169    -0.646658685532    -0.771284695694     1.007825032230
         H           -5.013615184169    -0.391799685532     0.976931304306     1.007825032230
         H            3.822787815831    -1.997413685532     0.812575304306     1.007825032230
         H            3.828699815831     1.990403314468    -0.804513695694     1.007825032230
         H            5.074923815831    -0.004524685532     0.006031304306     1.007825032230

  Basis Set: AUG-CC-PVTZ
    Blend: AUG-CC-PVTZ
  Basis Set: (AUG-CC-PVTZ AUX)
    Blend: AUG-CC-PVTZ-JKFIT
	 Reference Energy          =    -499.4494087483489579 [Eh]
	 Singles Energy            =      -0.0000000000000000 [Eh]
	 Same-Spin Energy          =      -0.5653830149306955 [Eh]
	 Opposite-Spin Energy      =      -1.7796889088961356 [Eh]
	 Correlation Energy        =      -2.3450719238268309 [Eh]
	 Total Energy              =    -501.7944806721757800 [Eh]

	 ================> DF-SCS-MP2 Energies <==================
	-----------------------------------------------------------
	 SCS Same-Spin Scale       =       0.3333333333333333 [-]
	 SCS Opposite-Spin Scale   =       1.2000000000000000 [-]
	 SCS Same-Spin Energy      =      -0.1884610049768985 [Eh]
	 SCS Opposite-Spin Energy  =      -2.1356266906753625 [Eh]
	 SCS Correlation Energy    =      -2.3240876956522611 [Eh]
	 SCS Total Energy          =    -501.7734964440012391 [Eh]
	-----------------------------------------------------------

  Dipole Moment: [D]
     X:    -0.4783      Y:    -0.0145      Z:     0.0370     Total:     0.4800

*** Psi4 exiting successfully. Buy a developer a beer!
