                               Psi4 1.4a3.dev225

  ==> Input File <==

--------------------------------------------------------------------------
#psi4
#
memory 32 gb

molecule  {
0 1
  C       -0.2663850     0.0008990    -0.0013960
  C        1.2106340     0.0001110     0.0000760
  C       -3.1008180     0.0056250    -0.0137190
  C       -0.9855960    -1.1139970    -0.4586890
  C       -0.9858100     1.1188490     0.4479860
  C       -2.3796020    -1.1098520    -0.4588000
  C       -2.3797760     1.1173260     0.4409920
  C        1.9242530    -1.1209430     0.4529070
  C        1.9275400     1.1199170    -0.4505910
  C       -4.6068780    -0.0078780     0.0198210
  C        3.3192690    -1.1228030     0.4522780
  C        3.3225700     1.1193260    -0.4456390
  C        4.0230520    -0.0023100     0.0044540
  H       -0.4460470    -1.9780880    -0.8418930
  H       -0.4465600     1.9841010     0.8290070
  H       -2.9173870    -1.9815130    -0.8295580
  H       -2.9177760     1.9946350     0.7979050
  H        1.3786050    -1.9834820     0.8303220
  H        1.3846280     1.9832890    -0.8299950
  H       -5.0126890     0.9989950    -0.1140710
  H       -5.0122110    -0.6453700    -0.7711930
  H       -4.9781370    -0.3905110     0.9770230
  H        3.8582660    -1.9961250     0.8126670
  H        3.8542192     1.9756514    -0.7978249
  H        5.1104020    -0.0032360     0.0061230
units angstrom
no_reorient  #important for SAPT in psi4, default
symmetry c1  #important for SAPT in psi4, default
}

set PROPERTIES_ORIGIN ["COM"]
properties('MP2/aug-cc-pvtz', properties = ['dipole'])
--------------------------------------------------------------------------

    Molecular point group: c1
  Charge       = 0
  Multiplicity = 1
  Basis Set: AUG-CC-PVTZ
    Blend: AUG-CC-PVTZ
  Basis Set: (AUG-CC-PVTZ AUX)
    Blend: AUG-CC-PVTZ-JKFIT

    Orbital Energies [Eh]
    ---------------------

    Doubly Occupied:

       1A    -11.244810     2A    -11.242545     3A    -11.241138
       4A    -11.236914     5A    -11.235258     6A    -11.235190
       7A    -11.235124     8A    -11.234352     9A    -11.234172
      10A    -11.233476    11A    -11.232050    12A    -11.231972
      13A    -11.225471    14A     -1.167981    15A     -1.141313
      16A     -1.065280    17A     -1.017062    18A     -1.008899
      19A     -1.004175    20A     -0.928811    21A     -0.841191
      22A     -0.832961    23A     -0.811999    24A     -0.779839
      25A     -0.712605    26A     -0.666071    27A     -0.645919
      28A     -0.642709    29A     -0.614816    30A     -0.613362
      31A     -0.588382    32A     -0.580447    33A     -0.576271
      34A     -0.570928    35A     -0.541312    36A     -0.512723
      37A     -0.508596    38A     -0.498400    39A     -0.481852
      40A     -0.480807    41A     -0.479360    42A     -0.358984
      43A     -0.337425    44A     -0.335726    45A     -0.296023

  @DF-RHF Final Energy:  -499.45016501305469

   => Energetics <=

    Nuclear Repulsion Energy =            687.4406216995697605
    One-Electron Energy =               -2038.3721821446165450
    Two-Electron Energy =                 851.4813954319919276
    Total Energy =                       -499.4501650130547432
  Basis Set: (AUG-CC-PVTZ AUX)
    Blend: AUG-CC-PVTZ-RI
    Molecular point group: c1

    Geometry (in Angstrom), charge = 0, multiplicity = 1:

       Center              X                  Y                   Z               Mass
    ------------   -----------------  -----------------  -----------------  -----------------
         C           -0.302535430288     0.000843909011    -0.001070040578    12.000000000000
         C            1.174483569712     0.000055909011     0.000401959422    12.000000000000
         C           -3.136968430288     0.005569909011    -0.013393040578    12.000000000000
         C           -1.021746430288    -1.114052090989    -0.458363040578    12.000000000000
         C           -1.021960430288     1.118793909011     0.448311959422    12.000000000000
         C           -2.415752430288    -1.109907090989    -0.458474040578    12.000000000000
         C           -2.415926430288     1.117270909011     0.441317959422    12.000000000000
         C            1.888102569712    -1.120998090989     0.453232959422    12.000000000000
         C            1.891389569712     1.119861909011    -0.450265040578    12.000000000000
         C           -4.643028430288    -0.007933090989     0.020146959422    12.000000000000
         C            3.283118569712    -1.122858090989     0.452603959422    12.000000000000
         C            3.286419569712     1.119270909011    -0.445313040578    12.000000000000
         C            3.986901569712    -0.002365090989     0.004779959422    12.000000000000
         H           -0.482197430288    -1.978143090989    -0.841567040578     1.007825032230
         H           -0.482710430288     1.984045909011     0.829332959422     1.007825032230
         H           -2.953537430288    -1.981568090989    -0.829232040578     1.007825032230
         H           -2.953926430288     1.994579909011     0.798230959422     1.007825032230
         H            1.342454569712    -1.983537090989     0.830647959422     1.007825032230
         H            1.348477569712     1.983233909011    -0.829669040578     1.007825032230
         H           -5.048839430288     0.998939909011    -0.113745040578     1.007825032230
         H           -5.048361430288    -0.645425090989    -0.770867040578     1.007825032230
         H           -5.014287430288    -0.390566090989     0.977348959422     1.007825032230
         H            3.822115569712    -1.996180090989     0.812992959422     1.007825032230
         H            3.818068769712     1.975596309011    -0.797498940578     1.007825032230
         H            5.074251569712    -0.003291090989     0.006448959422     1.007825032230

  Basis Set: AUG-CC-PVTZ
    Blend: AUG-CC-PVTZ
  Basis Set: (AUG-CC-PVTZ AUX)
    Blend: AUG-CC-PVTZ-JKFIT
	 Reference Energy          =    -499.4501650130546864 [Eh]
	 Singles Energy            =      -0.0000000000000000 [Eh]
	 Same-Spin Energy          =      -0.5653429125783573 [Eh]
	 Opposite-Spin Energy      =      -1.7794705679982652 [Eh]
	 Correlation Energy        =      -2.3448134805766223 [Eh]
	 Total Energy              =    -501.7949784936313335 [Eh]

	 ================> DF-SCS-MP2 Energies <==================
	-----------------------------------------------------------
	 SCS Same-Spin Scale       =       0.3333333333333333 [-]
	 SCS Opposite-Spin Scale   =       1.2000000000000000 [-]
	 SCS Same-Spin Energy      =      -0.1884476375261191 [Eh]
	 SCS Opposite-Spin Energy  =      -2.1353646815979181 [Eh]
	 SCS Correlation Energy    =      -2.3238123191240372 [Eh]
	 SCS Total Energy          =    -501.7739773321787311 [Eh]
	-----------------------------------------------------------

  Dipole Moment: [D]
     X:    -0.4783      Y:    -0.0077      Z:     0.0343     Total:     0.4796

*** Psi4 exiting successfully. Buy a developer a beer!
