                               Psi4 1.4a3.dev225

  ==> Input File <==

--------------------------------------------------------------------------
#psi4
#
memory 32 gb

molecule  {
0 1
  C       -0.2663850     0.0008990    -0.0013960
  C        1.2106340     0.0001110     0.0000760
  C       -3.1008180     0.0056250    -0.0137190
  C       -0.9855960    -1.1139970    -0.4586890
  C       -0.9858100     1.1188490     0.4479860
  C       -2.3796020    -1.1098520    -0.4588000
  C       -2.3797760     1.1173260     0.4409920
  C        1.9242530    -1.1209430     0.4529070
  C        1.9275400     1.1199170    -0.4505910
  C       -4.6068780    -0.0078780     0.0198210
  C        3.2983169    -1.1112384     0.4476223
  C        3.3225700     1.1193260    -0.4456390
  C        4.0230520    -0.0023100     0.0044540
  H       -0.4460470    -1.9780880    -0.8418930
  H       -0.4465600     1.9841010     0.8290070
  H       -2.9173870    -1.9815130    -0.8295580
  H       -2.9177760     1.9946350     0.7979050
  H        1.3786050    -1.9834820     0.8303220
  H        1.3846280     1.9832890    -0.8299950
  H       -5.0126890     0.9989950    -0.1140710
  H       -5.0122110    -0.6453700    -0.7711930
  H       -4.9781370    -0.3905110     0.9770230
  H        3.8582660    -1.9961250     0.8126670
  H        3.8641780     1.9916920    -0.8044220
  H        5.1104020    -0.0032360     0.0061230
units angstrom
no_reorient  #important for SAPT in psi4, default
symmetry c1  #important for SAPT in psi4, default
}

set PROPERTIES_ORIGIN ["COM"]
properties('MP2/aug-cc-pvtz', properties = ['dipole'])
--------------------------------------------------------------------------

    Molecular point group: c1
  Charge       = 0
  Multiplicity = 1
  Basis Set: AUG-CC-PVTZ
    Blend: AUG-CC-PVTZ
  Basis Set: (AUG-CC-PVTZ AUX)
    Blend: AUG-CC-PVTZ-JKFIT

    Orbital Energies [Eh]
    ---------------------

    Doubly Occupied:

       1A    -11.245021     2A    -11.242666     3A    -11.241181
       4A    -11.236969     5A    -11.236358     6A    -11.235390
       7A    -11.235243     8A    -11.234075     9A    -11.233722
      10A    -11.232147    11A    -11.232078    12A    -11.231909
      13A    -11.225551    14A     -1.168883    15A     -1.142500
      16A     -1.065328    17A     -1.018089    18A     -1.009541
      19A     -1.003941    20A     -0.929145    21A     -0.839998
      22A     -0.834030    23A     -0.810487    24A     -0.779496
      25A     -0.711648    26A     -0.666571    27A     -0.646547
      28A     -0.640998    29A     -0.614584    30A     -0.611620
      31A     -0.587442    32A     -0.579856    33A     -0.576196
      34A     -0.571346    35A     -0.541402    36A     -0.514467
      37A     -0.509612    38A     -0.495739    39A     -0.482502
      40A     -0.481489    41A     -0.477554    42A     -0.358701
      43A     -0.339236    44A     -0.336390    45A     -0.295808

  @DF-RHF Final Energy:  -499.44940907928083

   => Energetics <=

    Nuclear Repulsion Energy =            687.7951751866794439
    One-Electron Energy =               -2039.0822652975371057
    Two-Electron Energy =                 851.8376810315768353
    Total Energy =                       -499.4494090792808265
  Basis Set: (AUG-CC-PVTZ AUX)
    Blend: AUG-CC-PVTZ-RI
    Molecular point group: c1

    Geometry (in Angstrom), charge = 0, multiplicity = 1:

       Center              X                  Y                   Z               Mass
    ------------   -----------------  -----------------  -----------------  -----------------
         C           -0.301099396788    -0.000077845543    -0.000698122725    12.000000000000
         C            1.175919603212    -0.000865845543     0.000773877275    12.000000000000
         C           -3.135532396788     0.004648154457    -0.013021122725    12.000000000000
         C           -1.020310396788    -1.114973845543    -0.457991122725    12.000000000000
         C           -1.020524396788     1.117872154457     0.448683877275    12.000000000000
         C           -2.414316396788    -1.110828845543    -0.458102122725    12.000000000000
         C           -2.414490396788     1.116349154457     0.441689877275    12.000000000000
         C            1.889538603212    -1.121919845543     0.453604877275    12.000000000000
         C            1.892825603212     1.118940154457    -0.449893122725    12.000000000000
         C           -4.641592396788    -0.008854845543     0.020518877275    12.000000000000
         C            3.263602503212    -1.112215245543     0.448320177275    12.000000000000
         C            3.287855603212     1.118349154457    -0.444941122725    12.000000000000
         C            3.988337603212    -0.003286845543     0.005151877275    12.000000000000
         H           -0.480761396788    -1.979064845543    -0.841195122725     1.007825032230
         H           -0.481274396788     1.983124154457     0.829704877275     1.007825032230
         H           -2.952101396788    -1.982489845543    -0.828860122725     1.007825032230
         H           -2.952490396788     1.993658154457     0.798602877275     1.007825032230
         H            1.343890603212    -1.984458845543     0.831019877275     1.007825032230
         H            1.349913603212     1.982312154457    -0.829297122725     1.007825032230
         H           -5.047403396788     0.998018154457    -0.113373122725     1.007825032230
         H           -5.046925396788    -0.646346845543    -0.770495122725     1.007825032230
         H           -5.012851396788    -0.391487845543     0.977720877275     1.007825032230
         H            3.823551603212    -1.997101845543     0.813364877275     1.007825032230
         H            3.829463603212     1.990715154457    -0.803724122725     1.007825032230
         H            5.075687603212    -0.004212845543     0.006820877275     1.007825032230

  Basis Set: AUG-CC-PVTZ
    Blend: AUG-CC-PVTZ
  Basis Set: (AUG-CC-PVTZ AUX)
    Blend: AUG-CC-PVTZ-JKFIT
	 Reference Energy          =    -499.4494090792808265 [Eh]
	 Singles Energy            =      -0.0000000000000000 [Eh]
	 Same-Spin Energy          =      -0.5654082610435957 [Eh]
	 Opposite-Spin Energy      =      -1.7795237114898765 [Eh]
	 Correlation Energy        =      -2.3449319725334723 [Eh]
	 Total Energy              =    -501.7943410518142855 [Eh]

	 ================> DF-SCS-MP2 Energies <==================
	-----------------------------------------------------------
	 SCS Same-Spin Scale       =       0.3333333333333333 [-]
	 SCS Opposite-Spin Scale   =       1.2000000000000000 [-]
	 SCS Same-Spin Energy      =      -0.1884694203478652 [Eh]
	 SCS Opposite-Spin Energy  =      -2.1354284537878518 [Eh]
	 SCS Correlation Energy    =      -2.3238978741357172 [Eh]
	 SCS Total Energy          =    -501.7733069534165224 [Eh]
	-----------------------------------------------------------

  Dipole Moment: [D]
     X:    -0.4868      Y:    -0.0026      Z:     0.0322     Total:     0.4879

*** Psi4 exiting successfully. Buy a developer a beer!
