                               Psi4 1.4a3.dev225

  ==> Input File <==

--------------------------------------------------------------------------
#psi4
#
memory 32 gb

molecule  {
0 1
  C       -0.2663850     0.0008990    -0.0013960
  C        1.2106340     0.0001110     0.0000760
  C       -3.1008180     0.0056250    -0.0137190
  C       -0.9855960    -1.1139970    -0.4586890
  C       -1.0370756     1.1985132     0.4800086
  C       -2.3796020    -1.1098520    -0.4588000
  C       -2.3797760     1.1173260     0.4409920
  C        1.9242530    -1.1209430     0.4529070
  C        1.9275400     1.1199170    -0.4505910
  C       -4.6068780    -0.0078780     0.0198210
  C        3.3192690    -1.1228030     0.4522780
  C        3.3225700     1.1193260    -0.4456390
  C        4.0230520    -0.0023100     0.0044540
  H       -0.4460470    -1.9780880    -0.8418930
  H       -0.4465600     1.9841010     0.8290070
  H       -2.9173870    -1.9815130    -0.8295580
  H       -2.9177760     1.9946350     0.7979050
  H        1.3786050    -1.9834820     0.8303220
  H        1.3846280     1.9832890    -0.8299950
  H       -5.0126890     0.9989950    -0.1140710
  H       -5.0122110    -0.6453700    -0.7711930
  H       -4.9781370    -0.3905110     0.9770230
  H        3.8582660    -1.9961250     0.8126670
  H        3.8641780     1.9916920    -0.8044220
  H        5.1104020    -0.0032360     0.0061230
units angstrom
no_reorient  #important for SAPT in psi4, default
symmetry c1  #important for SAPT in psi4, default
}

set PROPERTIES_ORIGIN ["COM"]
properties('MP2/aug-cc-pvtz', properties = ['dipole'])
--------------------------------------------------------------------------

    Molecular point group: c1
  Charge       = 0
  Multiplicity = 1
  Basis Set: AUG-CC-PVTZ
    Blend: AUG-CC-PVTZ
  Basis Set: (AUG-CC-PVTZ AUX)
    Blend: AUG-CC-PVTZ-JKFIT

    Orbital Energies [Eh]
    ---------------------

    Doubly Occupied:

       1A    -11.249807     2A    -11.245410     3A    -11.242710
       4A    -11.237409     5A    -11.237141     6A    -11.236422
       7A    -11.234801     8A    -11.234595     9A    -11.234337
      10A    -11.234164    11A    -11.232203    12A    -11.228403
      13A    -11.225622    14A     -1.164481    15A     -1.141013
      16A     -1.060633    17A     -1.021766    18A     -1.011934
      19A     -1.003265    20A     -0.925002    21A     -0.838852
      22A     -0.835200    23A     -0.811057    24A     -0.779328
      25A     -0.709936    26A     -0.667190    27A     -0.654034
      28A     -0.642677    29A     -0.615784    30A     -0.610124
      31A     -0.590228    32A     -0.583221    33A     -0.576371
      34A     -0.566139    35A     -0.538500    36A     -0.516419
      37A     -0.507357    38A     -0.498327    39A     -0.486441
      40A     -0.479604    41A     -0.467670    42A     -0.358589
      43A     -0.342983    44A     -0.336876    45A     -0.289483

  @DF-RHF Final Energy:  -499.43825329640600

   => Energetics <=

    Nuclear Repulsion Energy =            685.9996593441625237
    One-Electron Energy =               -2035.4688049673018213
    Two-Electron Energy =                 850.0308923267334649
    Total Energy =                       -499.4382532964059465
  Basis Set: (AUG-CC-PVTZ AUX)
    Blend: AUG-CC-PVTZ-RI
    Molecular point group: c1

    Geometry (in Angstrom), charge = 0, multiplicity = 1:

       Center              X                  Y                   Z               Mass
    ------------   -----------------  -----------------  -----------------  -----------------
         C           -0.298935356337    -0.004939385421    -0.003316537784    12.000000000000
         C            1.178083643663    -0.005727385421    -0.001844537784    12.000000000000
         C           -3.133368356337    -0.000213385421    -0.015639537784    12.000000000000
         C           -1.018146356337    -1.119835385421    -0.460609537784    12.000000000000
         C           -1.069625956337     1.192674814579     0.478088062216    12.000000000000
         C           -2.412152356337    -1.115690385421    -0.460720537784    12.000000000000
         C           -2.412326356337     1.111487614579     0.439071462216    12.000000000000
         C            1.891702643663    -1.126781385421     0.450986462216    12.000000000000
         C            1.894989643663     1.114078614579    -0.452511537784    12.000000000000
         C           -4.639428356337    -0.013716385421     0.017900462216    12.000000000000
         C            3.286718643663    -1.128641385421     0.450357462216    12.000000000000
         C            3.290019643663     1.113487614579    -0.447559537784    12.000000000000
         C            3.990501643663    -0.008148385421     0.002533462216    12.000000000000
         H           -0.478597356337    -1.983926385421    -0.843813537784     1.007825032230
         H           -0.479110356337     1.978262614579     0.827086462216     1.007825032230
         H           -2.949937356337    -1.987351385421    -0.831478537784     1.007825032230
         H           -2.950326356337     1.988796614579     0.795984462216     1.007825032230
         H            1.346054643663    -1.989320385421     0.828401462216     1.007825032230
         H            1.352077643663     1.977450614579    -0.831915537784     1.007825032230
         H           -5.045239356337     0.993156614579    -0.115991537784     1.007825032230
         H           -5.044761356337    -0.651208385421    -0.773113537784     1.007825032230
         H           -5.010687356337    -0.396349385421     0.975102462216     1.007825032230
         H            3.825715643663    -2.001963385421     0.810746462216     1.007825032230
         H            3.831627643663     1.985853614579    -0.806342537784     1.007825032230
         H            5.077851643663    -0.009074385421     0.004202462216     1.007825032230

  Basis Set: AUG-CC-PVTZ
    Blend: AUG-CC-PVTZ
  Basis Set: (AUG-CC-PVTZ AUX)
    Blend: AUG-CC-PVTZ-JKFIT
	 Reference Energy          =    -499.4382532964060033 [Eh]
	 Singles Energy            =      -0.0000000000000000 [Eh]
	 Same-Spin Energy          =      -0.5653194832164472 [Eh]
	 Opposite-Spin Energy      =      -1.7804695433917466 [Eh]
	 Correlation Energy        =      -2.3457890266081938 [Eh]
	 Total Energy              =    -501.7840423230142051 [Eh]

	 ================> DF-SCS-MP2 Energies <==================
	-----------------------------------------------------------
	 SCS Same-Spin Scale       =       0.3333333333333333 [-]
	 SCS Opposite-Spin Scale   =       1.2000000000000000 [-]
	 SCS Same-Spin Energy      =      -0.1884398277388157 [Eh]
	 SCS Opposite-Spin Energy  =      -2.1365634520700958 [Eh]
	 SCS Correlation Energy    =      -2.3250032798089113 [Eh]
	 SCS Total Energy          =    -501.7632565762149284 [Eh]
	-----------------------------------------------------------

  Dipole Moment: [D]
     X:    -0.4618      Y:    -0.0184      Z:     0.0377     Total:     0.4637

*** Psi4 exiting successfully. Buy a developer a beer!
