                               Psi4 1.4a3.dev225

  ==> Input File <==

--------------------------------------------------------------------------
#psi4
#
memory 32 gb

molecule  {
0 1
  C       -0.2663850     0.0008990    -0.0013960
  C        1.2106340     0.0001110     0.0000760
  C       -3.1008180     0.0056250    -0.0137190
  C       -0.9855960    -1.1139970    -0.4586890
  C       -0.9858100     1.1188490     0.4479860
  C       -2.3796020    -1.1098520    -0.4588000
  C       -2.3797760     1.1173260     0.4409920
  C        1.9242530    -1.1209430     0.4529070
  C        1.9275400     1.1199170    -0.4505910
  C       -4.6068780    -0.0078780     0.0198210
  C        3.3192690    -1.1228030     0.4522780
  C        3.3225700     1.1193260    -0.4456390
  C        4.0129757    -0.0183524     0.0108656
  H       -0.4460470    -1.9780880    -0.8418930
  H       -0.4465600     1.9841010     0.8290070
  H       -2.9173870    -1.9815130    -0.8295580
  H       -2.9177760     1.9946350     0.7979050
  H        1.3786050    -1.9834820     0.8303220
  H        1.3846280     1.9832890    -0.8299950
  H       -5.0126890     0.9989950    -0.1140710
  H       -5.0122110    -0.6453700    -0.7711930
  H       -4.9781370    -0.3905110     0.9770230
  H        3.8582660    -1.9961250     0.8126670
  H        3.8641780     1.9916920    -0.8044220
  H        5.1104020    -0.0032360     0.0061230
units angstrom
no_reorient  #important for SAPT in psi4, default
symmetry c1  #important for SAPT in psi4, default
}

set PROPERTIES_ORIGIN ["COM"]
properties('MP2/aug-cc-pvtz', properties = ['dipole'])
--------------------------------------------------------------------------

    Molecular point group: c1
  Charge       = 0
  Multiplicity = 1
  Basis Set: AUG-CC-PVTZ
    Blend: AUG-CC-PVTZ
  Basis Set: (AUG-CC-PVTZ AUX)
    Blend: AUG-CC-PVTZ-JKFIT

    Orbital Energies [Eh]
    ---------------------

    Doubly Occupied:

       1A    -11.244725     2A    -11.242519     3A    -11.241151
       4A    -11.237918     5A    -11.235307     6A    -11.235241
       7A    -11.235097     8A    -11.234440     9A    -11.234339
      10A    -11.233492    11A    -11.232047    12A    -11.231956
      13A    -11.225459    14A     -1.168314    15A     -1.141923
      16A     -1.065579    17A     -1.017184    18A     -1.009116
      19A     -1.003971    20A     -0.928723    21A     -0.841137
      22A     -0.832316    23A     -0.811825    24A     -0.779325
      25A     -0.711953    26A     -0.664702    27A     -0.646093
      28A     -0.642046    29A     -0.614051    30A     -0.613989
      31A     -0.588154    32A     -0.580367    33A     -0.576282
      34A     -0.569823    35A     -0.541342    36A     -0.511448
      37A     -0.509116    38A     -0.498572    39A     -0.482216
      40A     -0.480442    41A     -0.478938    42A     -0.359606
      43A     -0.337548    44A     -0.335832    45A     -0.296188

  @DF-RHF Final Energy:  -499.44960898757734

   => Energetics <=

    Nuclear Repulsion Energy =            687.5402270568006315
    One-Electron Energy =               -2038.5760486901849617
    Two-Electron Energy =                 851.5862126458069952
    Total Energy =                       -499.4496089875773350
  Basis Set: (AUG-CC-PVTZ AUX)
    Blend: AUG-CC-PVTZ-RI
    Molecular point group: c1

    Geometry (in Angstrom), charge = 0, multiplicity = 1:

       Center              X                  Y                   Z               Mass
    ------------   -----------------  -----------------  -----------------  -----------------
         C           -0.301875805686     0.001892981472    -0.001488202554    12.000000000000
         C            1.175143194314     0.001104981472    -0.000016202554    12.000000000000
         C           -3.136308805686     0.006618981472    -0.013811202554    12.000000000000
         C           -1.021086805686    -1.113003018528    -0.458781202554    12.000000000000
         C           -1.021300805686     1.119842981472     0.447893797446    12.000000000000
         C           -2.415092805686    -1.108858018528    -0.458892202554    12.000000000000
         C           -2.415266805686     1.118319981472     0.440899797446    12.000000000000
         C            1.888762194314    -1.119949018528     0.452814797446    12.000000000000
         C            1.892049194314     1.120910981472    -0.450683202554    12.000000000000
         C           -4.642368805686    -0.006884018528     0.019728797446    12.000000000000
         C            3.283778194314    -1.121809018528     0.452185797446    12.000000000000
         C            3.287079194314     1.120319981472    -0.445731202554    12.000000000000
         C            3.977484894314    -0.017358418528     0.010773397446    12.000000000000
         H           -0.481537805686    -1.977094018528    -0.841985202554     1.007825032230
         H           -0.482050805686     1.985094981472     0.828914797446     1.007825032230
         H           -2.952877805686    -1.980519018528    -0.829650202554     1.007825032230
         H           -2.953266805686     1.995628981472     0.797812797446     1.007825032230
         H            1.343114194314    -1.982488018528     0.830229797446     1.007825032230
         H            1.349137194314     1.984282981472    -0.830087202554     1.007825032230
         H           -5.048179805686     0.999988981472    -0.114163202554     1.007825032230
         H           -5.047701805686    -0.644376018528    -0.771285202554     1.007825032230
         H           -5.013627805686    -0.389517018528     0.976930797446     1.007825032230
         H            3.822775194314    -1.995131018528     0.812574797446     1.007825032230
         H            3.828687194314     1.992685981472    -0.804514202554     1.007825032230
         H            5.074911194314    -0.002242018528     0.006030797446     1.007825032230

  Basis Set: AUG-CC-PVTZ
    Blend: AUG-CC-PVTZ
  Basis Set: (AUG-CC-PVTZ AUX)
    Blend: AUG-CC-PVTZ-JKFIT
	 Reference Energy          =    -499.4496089875773350 [Eh]
	 Singles Energy            =      -0.0000000000000000 [Eh]
	 Same-Spin Energy          =      -0.5653831153700758 [Eh]
	 Opposite-Spin Energy      =      -1.7795880953776173 [Eh]
	 Correlation Energy        =      -2.3449712107476932 [Eh]
	 Total Energy              =    -501.7945801983250362 [Eh]

	 ================> DF-SCS-MP2 Energies <==================
	-----------------------------------------------------------
	 SCS Same-Spin Scale       =       0.3333333333333333 [-]
	 SCS Opposite-Spin Scale   =       1.2000000000000000 [-]
	 SCS Same-Spin Energy      =      -0.1884610384566919 [Eh]
	 SCS Opposite-Spin Energy  =      -2.1355057144531409 [Eh]
	 SCS Correlation Energy    =      -2.3239667529098327 [Eh]
	 SCS Total Energy          =    -501.7735757404871606 [Eh]
	-----------------------------------------------------------

  Dipole Moment: [D]
     X:    -0.4850      Y:    -0.0102      Z:     0.0356     Total:     0.4864

*** Psi4 exiting successfully. Buy a developer a beer!
