                               Psi4 1.4a3.dev225

  ==> Input File <==

--------------------------------------------------------------------------
#psi4
#
memory 32 gb

molecule  {
0 1
  C       -0.3521418    -0.0417296    -0.0219616
  C        1.2106340     0.0001110     0.0000760
  C       -3.1008180     0.0056250    -0.0137190
  C       -0.9855960    -1.1139970    -0.4586890
  C       -0.9858100     1.1188490     0.4479860
  C       -2.3796020    -1.1098520    -0.4588000
  C       -2.3797760     1.1173260     0.4409920
  C        1.9242530    -1.1209430     0.4529070
  C        1.9275400     1.1199170    -0.4505910
  C       -4.6068780    -0.0078780     0.0198210
  C        3.3192690    -1.1228030     0.4522780
  C        3.3225700     1.1193260    -0.4456390
  C        4.0230520    -0.0023100     0.0044540
  H       -0.4460470    -1.9780880    -0.8418930
  H       -0.4465600     1.9841010     0.8290070
  H       -2.9173870    -1.9815130    -0.8295580
  H       -2.9177760     1.9946350     0.7979050
  H        1.3786050    -1.9834820     0.8303220
  H        1.3846280     1.9832890    -0.8299950
  H       -5.0126890     0.9989950    -0.1140710
  H       -5.0122110    -0.6453700    -0.7711930
  H       -4.9781370    -0.3905110     0.9770230
  H        3.8582660    -1.9961250     0.8126670
  H        3.8641780     1.9916920    -0.8044220
  H        5.1104020    -0.0032360     0.0061230
units angstrom
no_reorient  #important for SAPT in psi4, default
symmetry c1  #important for SAPT in psi4, default
}

set PROPERTIES_ORIGIN ["COM"]
properties('MP2/aug-cc-pvtz', properties = ['dipole'])
--------------------------------------------------------------------------

    Molecular point group: c1
  Charge       = 0
  Multiplicity = 1
  Basis Set: AUG-CC-PVTZ
    Blend: AUG-CC-PVTZ
  Basis Set: (AUG-CC-PVTZ AUX)
    Blend: AUG-CC-PVTZ-JKFIT

    Orbital Energies [Eh]
    ---------------------

    Doubly Occupied:

       1A    -11.247437     2A    -11.241538     3A    -11.238067
       4A    -11.236189     5A    -11.235646     6A    -11.235519
       7A    -11.233445     8A    -11.232904     9A    -11.232868
      10A    -11.232466    11A    -11.232258    12A    -11.225326
      13A    -11.225313    14A     -1.170812    15A     -1.142675
      16A     -1.062825    17A     -1.019598    18A     -1.009862
      19A     -1.002945    20A     -0.928527    21A     -0.842414
      22A     -0.824986    23A     -0.813469    24A     -0.781291
      25A     -0.709541    26A     -0.665228    27A     -0.647217
      28A     -0.639460    29A     -0.614761    30A     -0.612753
      31A     -0.593111    32A     -0.582016    33A     -0.576398
      34A     -0.562757    35A     -0.541829    36A     -0.512720
      37A     -0.509330    38A     -0.498317    39A     -0.488546
      40A     -0.484709    41A     -0.462048    42A     -0.356495
      43A     -0.338432    44A     -0.335194    45A     -0.302918

  @DF-RHF Final Energy:  -499.44030103746809

   => Energetics <=

    Nuclear Repulsion Energy =            687.5287655489024701
    One-Electron Energy =               -2038.5738113897175481
    Two-Electron Energy =                 851.6047448033468754
    Total Energy =                       -499.4403010374680889
  Basis Set: (AUG-CC-PVTZ AUX)
    Blend: AUG-CC-PVTZ-RI
    Molecular point group: c1

    Geometry (in Angstrom), charge = 0, multiplicity = 1:

       Center              X                  Y                   Z               Mass
    ------------   -----------------  -----------------  -----------------  -----------------
         C           -0.382229875439    -0.038837665067    -0.020127936123    12.000000000000
         C            1.180545924561     0.003002934933     0.001909663877    12.000000000000
         C           -3.130906075439     0.008516934933    -0.011885336123    12.000000000000
         C           -1.015684075439    -1.111105065067    -0.456855336123    12.000000000000
         C           -1.015898075439     1.121740934933     0.449819663877    12.000000000000
         C           -2.409690075439    -1.106960065067    -0.456966336123    12.000000000000
         C           -2.409864075439     1.120217934933     0.442825663877    12.000000000000
         C            1.894164924561    -1.118051065067     0.454740663877    12.000000000000
         C            1.897451924561     1.122808934933    -0.448757336123    12.000000000000
         C           -4.636966075439    -0.004986065067     0.021654663877    12.000000000000
         C            3.289180924561    -1.119911065067     0.454111663877    12.000000000000
         C            3.292481924561     1.122217934933    -0.443805336123    12.000000000000
         C            3.992963924561     0.000581934933     0.006287663877    12.000000000000
         H           -0.476135075439    -1.975196065067    -0.840059336123     1.007825032230
         H           -0.476648075439     1.986992934933     0.830840663877     1.007825032230
         H           -2.947475075439    -1.978621065067    -0.827724336123     1.007825032230
         H           -2.947864075439     1.997526934933     0.799738663877     1.007825032230
         H            1.348516924561    -1.980590065067     0.832155663877     1.007825032230
         H            1.354539924561     1.986180934933    -0.828161336123     1.007825032230
         H           -5.042777075439     1.001886934933    -0.112237336123     1.007825032230
         H           -5.042299075439    -0.642478065067    -0.769359336123     1.007825032230
         H           -5.008225075439    -0.387619065067     0.978856663877     1.007825032230
         H            3.828177924561    -1.993233065067     0.814500663877     1.007825032230
         H            3.834089924561     1.994583934933    -0.802588336123     1.007825032230
         H            5.080313924561    -0.000344065067     0.007956663877     1.007825032230

  Basis Set: AUG-CC-PVTZ
    Blend: AUG-CC-PVTZ
  Basis Set: (AUG-CC-PVTZ AUX)
    Blend: AUG-CC-PVTZ-JKFIT
	 Reference Energy          =    -499.4403010374680889 [Eh]
	 Singles Energy            =      -0.0000000000000000 [Eh]
	 Same-Spin Energy          =      -0.5646121901862742 [Eh]
	 Opposite-Spin Energy      =      -1.7786670884386768 [Eh]
	 Correlation Energy        =      -2.3432792786249510 [Eh]
	 Total Energy              =    -501.7835803160930368 [Eh]

	 ================> DF-SCS-MP2 Energies <==================
	-----------------------------------------------------------
	 SCS Same-Spin Scale       =       0.3333333333333333 [-]
	 SCS Opposite-Spin Scale   =       1.2000000000000000 [-]
	 SCS Same-Spin Energy      =      -0.1882040633954247 [Eh]
	 SCS Opposite-Spin Energy  =      -2.1344005061264122 [Eh]
	 SCS Correlation Energy    =      -2.3226045695218369 [Eh]
	 SCS Total Energy          =    -501.7629056069899320 [Eh]
	-----------------------------------------------------------

  Dipole Moment: [D]
     X:    -0.6008      Y:    -0.0063      Z:     0.0343     Total:     0.6018

*** Psi4 exiting successfully. Buy a developer a beer!
