                               Psi4 1.4a3.dev225

  ==> Input File <==

--------------------------------------------------------------------------
#psi4
#
memory 32 gb

molecule  {
0 1
  C       -0.2247955     0.0242698     0.0097145
  C        1.2106340     0.0001110     0.0000760
  C       -3.1008180     0.0056250    -0.0137190
  C       -0.9855960    -1.1139970    -0.4586890
  C       -0.9858100     1.1188490     0.4479860
  C       -2.3796020    -1.1098520    -0.4588000
  C       -2.3797760     1.1173260     0.4409920
  C        1.9242530    -1.1209430     0.4529070
  C        1.9275400     1.1199170    -0.4505910
  C       -4.6068780    -0.0078780     0.0198210
  C        3.3192690    -1.1228030     0.4522780
  C        3.3225700     1.1193260    -0.4456390
  C        4.0230520    -0.0023100     0.0044540
  H       -0.4460470    -1.9780880    -0.8418930
  H       -0.4465600     1.9841010     0.8290070
  H       -2.9173870    -1.9815130    -0.8295580
  H       -2.9177760     1.9946350     0.7979050
  H        1.3786050    -1.9834820     0.8303220
  H        1.3846280     1.9832890    -0.8299950
  H       -5.0126890     0.9989950    -0.1140710
  H       -5.0122110    -0.6453700    -0.7711930
  H       -4.9781370    -0.3905110     0.9770230
  H        3.8582660    -1.9961250     0.8126670
  H        3.8641780     1.9916920    -0.8044220
  H        5.1104020    -0.0032360     0.0061230
units angstrom
no_reorient  #important for SAPT in psi4, default
symmetry c1  #important for SAPT in psi4, default
}

set PROPERTIES_ORIGIN ["COM"]
properties('MP2/aug-cc-pvtz', properties = ['dipole'])
--------------------------------------------------------------------------

    Molecular point group: c1
  Charge       = 0
  Multiplicity = 1
  Basis Set: AUG-CC-PVTZ
    Blend: AUG-CC-PVTZ
  Basis Set: (AUG-CC-PVTZ AUX)
    Blend: AUG-CC-PVTZ-JKFIT

    Orbital Energies [Eh]
    ---------------------

    Doubly Occupied:

       1A    -11.243410     2A    -11.243151     3A    -11.242491
       4A    -11.239634     5A    -11.237747     6A    -11.237348
       7A    -11.235403     8A    -11.235382     9A    -11.235022
      10A    -11.234606    11A    -11.232090    12A    -11.231773
      13A    -11.225632    14A     -1.168498    15A     -1.140092
      16A     -1.067693    17A     -1.016599    18A     -1.007887
      19A     -1.003798    20A     -0.929063    21A     -0.840449
      22A     -0.837120    23A     -0.810275    24A     -0.778286
      25A     -0.713138    26A     -0.667086    27A     -0.646313
      28A     -0.642902    29A     -0.613933    30A     -0.613124
      31A     -0.587088    32A     -0.579130    33A     -0.575876
      34A     -0.573525    35A     -0.541009    36A     -0.512712
      37A     -0.509124    38A     -0.498336    39A     -0.487727
      40A     -0.479061    41A     -0.473887    42A     -0.361018
      43A     -0.337743    44A     -0.335491    45A     -0.292075

  @DF-RHF Final Energy:  -499.44564876368054

   => Energetics <=

    Nuclear Repulsion Energy =            687.2988713380324270
    One-Electron Energy =               -2038.0615442082219033
    Two-Electron Energy =                 851.3170241065088248
    Total Energy =                       -499.4456487636805377
  Basis Set: (AUG-CC-PVTZ AUX)
    Blend: AUG-CC-PVTZ-RI
    Molecular point group: c1

    Geometry (in Angstrom), charge = 0, multiplicity = 1:

       Center              X                  Y                   Z               Mass
    ------------   -----------------  -----------------  -----------------  -----------------
         C           -0.263974658438     0.022450125540     0.009286849224    12.000000000000
         C            1.171454841562    -0.001708674460    -0.000351650776    12.000000000000
         C           -3.139997158438     0.003805325540    -0.014146650776    12.000000000000
         C           -1.024775158438    -1.115816674460    -0.459116650776    12.000000000000
         C           -1.024989158438     1.117029325540     0.447558349224    12.000000000000
         C           -2.418781158438    -1.111671674460    -0.459227650776    12.000000000000
         C           -2.418955158438     1.115506325540     0.440564349224    12.000000000000
         C            1.885073841562    -1.122762674460     0.452479349224    12.000000000000
         C            1.888360841562     1.118097325540    -0.451018650776    12.000000000000
         C           -4.646057158438    -0.009697674460     0.019393349224    12.000000000000
         C            3.280089841562    -1.124622674460     0.451850349224    12.000000000000
         C            3.283390841562     1.117506325540    -0.446066650776    12.000000000000
         C            3.983872841562    -0.004129674460     0.004026349224    12.000000000000
         H           -0.485226158438    -1.979907674460    -0.842320650776     1.007825032230
         H           -0.485739158438     1.982281325540     0.828579349224     1.007825032230
         H           -2.956566158438    -1.983332674460    -0.829985650776     1.007825032230
         H           -2.956955158438     1.992815325540     0.797477349224     1.007825032230
         H            1.339425841562    -1.985301674460     0.829894349224     1.007825032230
         H            1.345448841562     1.981469325540    -0.830422650776     1.007825032230
         H           -5.051868158438     0.997175325540    -0.114498650776     1.007825032230
         H           -5.051390158438    -0.647189674460    -0.771620650776     1.007825032230
         H           -5.017316158438    -0.392330674460     0.976595349224     1.007825032230
         H            3.819086841562    -1.997944674460     0.812239349224     1.007825032230
         H            3.824998841562     1.989872325540    -0.804849650776     1.007825032230
         H            5.071222841562    -0.005055674460     0.005695349224     1.007825032230

  Basis Set: AUG-CC-PVTZ
    Blend: AUG-CC-PVTZ
  Basis Set: (AUG-CC-PVTZ AUX)
    Blend: AUG-CC-PVTZ-JKFIT
	 Reference Energy          =    -499.4456487636805377 [Eh]
	 Singles Energy            =      -0.0000000000000000 [Eh]
	 Same-Spin Energy          =      -0.5660166841404687 [Eh]
	 Opposite-Spin Energy      =      -1.7807140992661044 [Eh]
	 Correlation Energy        =      -2.3467307834065729 [Eh]
	 Total Energy              =    -501.7923795470871369 [Eh]

	 ================> DF-SCS-MP2 Energies <==================
	-----------------------------------------------------------
	 SCS Same-Spin Scale       =       0.3333333333333333 [-]
	 SCS Opposite-Spin Scale   =       1.2000000000000000 [-]
	 SCS Same-Spin Energy      =      -0.1886722280468229 [Eh]
	 SCS Opposite-Spin Energy  =      -2.1368569191193250 [Eh]
	 SCS Correlation Energy    =      -2.3255291471661477 [Eh]
	 SCS Total Energy          =    -501.7711779108466885 [Eh]
	-----------------------------------------------------------

  Dipole Moment: [D]
     X:    -0.4282      Y:    -0.0182      Z:     0.0375     Total:     0.4302

*** Psi4 exiting successfully. Buy a developer a beer!
