                               Psi4 1.4a3.dev225

  ==> Input File <==

--------------------------------------------------------------------------
#psi4
#
memory 32 gb

molecule  {
0 1
  C       -0.2454638    -0.0108968    -0.0061973
  C        1.2106340     0.0001110     0.0000760
  C       -3.1008180     0.0056250    -0.0137190
  C       -0.9855960    -1.1139970    -0.4586890
  C       -0.9858100     1.1188490     0.4479860
  C       -2.3796020    -1.1098520    -0.4588000
  C       -2.3797760     1.1173260     0.4409920
  C        1.9242530    -1.1209430     0.4529070
  C        1.9275400     1.1199170    -0.4505910
  C       -4.6068780    -0.0078780     0.0198210
  C        3.3192690    -1.1228030     0.4522780
  C        3.3225700     1.1193260    -0.4456390
  C        4.0230520    -0.0023100     0.0044540
  H       -0.4460470    -1.9780880    -0.8418930
  H       -0.4465600     1.9841010     0.8290070
  H       -2.9173870    -1.9815130    -0.8295580
  H       -2.9177760     1.9946350     0.7979050
  H        1.3786050    -1.9834820     0.8303220
  H        1.3846280     1.9832890    -0.8299950
  H       -5.0126890     0.9989950    -0.1140710
  H       -5.0122110    -0.6453700    -0.7711930
  H       -4.9781370    -0.3905110     0.9770230
  H        3.8582660    -1.9961250     0.8126670
  H        3.8641780     1.9916920    -0.8044220
  H        5.1104020    -0.0032360     0.0061230
units angstrom
no_reorient  #important for SAPT in psi4, default
symmetry c1  #important for SAPT in psi4, default
}

set PROPERTIES_ORIGIN ["COM"]
properties('MP2/aug-cc-pvtz', properties = ['dipole'])
--------------------------------------------------------------------------

    Molecular point group: c1
  Charge       = 0
  Multiplicity = 1
  Basis Set: AUG-CC-PVTZ
    Blend: AUG-CC-PVTZ
  Basis Set: (AUG-CC-PVTZ AUX)
    Blend: AUG-CC-PVTZ-JKFIT

    Orbital Energies [Eh]
    ---------------------

    Doubly Occupied:

       1A    -11.244091     2A    -11.242871     3A    -11.241970
       4A    -11.237483     5A    -11.237439     6A    -11.237142
       7A    -11.235287     8A    -11.234920     9A    -11.234678
      10A    -11.234384    11A    -11.232110    12A    -11.231874
      13A    -11.225565    14A     -1.168126    15A     -1.140730
      16A     -1.066390    17A     -1.016634    18A     -1.008216
      19A     -1.004124    20A     -0.928958    21A     -0.840559
      22A     -0.834994    23A     -0.810888    24A     -0.778929
      25A     -0.712478    26A     -0.666558    27A     -0.645985
      28A     -0.642575    29A     -0.613851    30A     -0.613284
      31A     -0.587271    32A     -0.579064    33A     -0.576549
      34A     -0.572459    35A     -0.541187    36A     -0.512714
      37A     -0.508806    38A     -0.498095    39A     -0.484461
      40A     -0.480325    41A     -0.476813    42A     -0.360022
      43A     -0.337567    44A     -0.335669    45A     -0.294121

  @DF-RHF Final Energy:  -499.44858951169817

   => Energetics <=

    Nuclear Repulsion Energy =            687.3126050531926694
    One-Electron Energy =               -2038.1059569913627456
    Two-Electron Energy =                 851.3447624264717888
    Total Energy =                       -499.4485895116981737
  Basis Set: (AUG-CC-PVTZ AUX)
    Blend: AUG-CC-PVTZ-RI
    Molecular point group: c1

    Geometry (in Angstrom), charge = 0, multiplicity = 1:

       Center              X                  Y                   Z               Mass
    ------------   -----------------  -----------------  -----------------  -----------------
         C           -0.283167475988    -0.010205977654    -0.005489028535    12.000000000000
         C            1.172930324012     0.000801822346     0.000784271465    12.000000000000
         C           -3.138521675988     0.006315822346    -0.013010728535    12.000000000000
         C           -1.023299675988    -1.113306177654    -0.457980728535    12.000000000000
         C           -1.023513675988     1.119539822346     0.448694271465    12.000000000000
         C           -2.417305675988    -1.109161177654    -0.458091728535    12.000000000000
         C           -2.417479675988     1.118016822346     0.441700271465    12.000000000000
         C            1.886549324012    -1.120252177654     0.453615271465    12.000000000000
         C            1.889836324012     1.120607822346    -0.449882728535    12.000000000000
         C           -4.644581675988    -0.007187177654     0.020529271465    12.000000000000
         C            3.281565324012    -1.122112177654     0.452986271465    12.000000000000
         C            3.284866324012     1.120016822346    -0.444930728535    12.000000000000
         C            3.985348324012    -0.001619177654     0.005162271465    12.000000000000
         H           -0.483750675988    -1.977397177654    -0.841184728535     1.007825032230
         H           -0.484263675988     1.984791822346     0.829715271465     1.007825032230
         H           -2.955090675988    -1.980822177654    -0.828849728535     1.007825032230
         H           -2.955479675988     1.995325822346     0.798613271465     1.007825032230
         H            1.340901324012    -1.982791177654     0.831030271465     1.007825032230
         H            1.346924324012     1.983979822346    -0.829286728535     1.007825032230
         H           -5.050392675988     0.999685822346    -0.113362728535     1.007825032230
         H           -5.049914675988    -0.644679177654    -0.770484728535     1.007825032230
         H           -5.015840675988    -0.389820177654     0.977731271465     1.007825032230
         H            3.820562324012    -1.995434177654     0.813375271465     1.007825032230
         H            3.826474324012     1.992382822346    -0.803713728535     1.007825032230
         H            5.072698324012    -0.002545177654     0.006831271465     1.007825032230

  Basis Set: AUG-CC-PVTZ
    Blend: AUG-CC-PVTZ
  Basis Set: (AUG-CC-PVTZ AUX)
    Blend: AUG-CC-PVTZ-JKFIT
	 Reference Energy          =    -499.4485895116981737 [Eh]
	 Singles Energy            =      -0.0000000000000000 [Eh]
	 Same-Spin Energy          =      -0.5656759403179036 [Eh]
	 Opposite-Spin Energy      =      -1.7801082833807957 [Eh]
	 Correlation Energy        =      -2.3457842236986992 [Eh]
	 Total Energy              =    -501.7943737353968459 [Eh]

	 ================> DF-SCS-MP2 Energies <==================
	-----------------------------------------------------------
	 SCS Same-Spin Scale       =       0.3333333333333333 [-]
	 SCS Opposite-Spin Scale   =       1.2000000000000000 [-]
	 SCS Same-Spin Energy      =      -0.1885586467726345 [Eh]
	 SCS Opposite-Spin Energy  =      -2.1361299400569549 [Eh]
	 SCS Correlation Energy    =      -2.3246885868295895 [Eh]
	 SCS Total Energy          =    -501.7732780985277827 [Eh]
	-----------------------------------------------------------

  Dipole Moment: [D]
     X:    -0.4567      Y:    -0.0117      Z:     0.0364     Total:     0.4583

*** Psi4 exiting successfully. Buy a developer a beer!
