                               Psi4 1.4a3.dev225

  ==> Input File <==

--------------------------------------------------------------------------
#psi4
#
memory 32 gb

molecule  {
0 1
  C       -0.2663850     0.0008990    -0.0013960
  C        1.2106340     0.0001110     0.0000760
  C       -3.1008180     0.0056250    -0.0137190
  C       -0.9855960    -1.1139970    -0.4586890
  C       -0.9755569     1.1029162     0.4415815
  C       -2.3796020    -1.1098520    -0.4588000
  C       -2.3797760     1.1173260     0.4409920
  C        1.9242530    -1.1209430     0.4529070
  C        1.9275400     1.1199170    -0.4505910
  C       -4.6068780    -0.0078780     0.0198210
  C        3.3192690    -1.1228030     0.4522780
  C        3.3225700     1.1193260    -0.4456390
  C        4.0230520    -0.0023100     0.0044540
  H       -0.4460470    -1.9780880    -0.8418930
  H       -0.4465600     1.9841010     0.8290070
  H       -2.9173870    -1.9815130    -0.8295580
  H       -2.9177760     1.9946350     0.7979050
  H        1.3786050    -1.9834820     0.8303220
  H        1.3846280     1.9832890    -0.8299950
  H       -5.0126890     0.9989950    -0.1140710
  H       -5.0122110    -0.6453700    -0.7711930
  H       -4.9781370    -0.3905110     0.9770230
  H        3.8582660    -1.9961250     0.8126670
  H        3.8641780     1.9916920    -0.8044220
  H        5.1104020    -0.0032360     0.0061230
units angstrom
no_reorient  #important for SAPT in psi4, default
symmetry c1  #important for SAPT in psi4, default
}

set PROPERTIES_ORIGIN ["COM"]
properties('MP2/aug-cc-pvtz', properties = ['dipole'])
--------------------------------------------------------------------------

    Molecular point group: c1
  Charge       = 0
  Multiplicity = 1
  Basis Set: AUG-CC-PVTZ
    Blend: AUG-CC-PVTZ
  Basis Set: (AUG-CC-PVTZ AUX)
    Blend: AUG-CC-PVTZ-JKFIT

    Orbital Energies [Eh]
    ---------------------

    Doubly Occupied:

       1A    -11.244806     2A    -11.242570     3A    -11.239193
       4A    -11.237102     5A    -11.236853     6A    -11.235456
       7A    -11.234901     8A    -11.234454     9A    -11.234269
      10A    -11.234049    11A    -11.232799    12A    -11.232045
      13A    -11.225471    14A     -1.168994    15A     -1.141416
      16A     -1.066394    17A     -1.016298    18A     -1.007744
      19A     -1.004343    20A     -0.929641    21A     -0.841396
      22A     -0.832411    23A     -0.811755    24A     -0.779149
      25A     -0.712206    26A     -0.666091    27A     -0.646357
      28A     -0.640569    29A     -0.614352    30A     -0.613204
      31A     -0.587291    32A     -0.579212    33A     -0.576055
      34A     -0.571760    35A     -0.541858    36A     -0.512214
      37A     -0.509066    38A     -0.497830    39A     -0.482743
      40A     -0.481022    41A     -0.478234    42A     -0.359625
      43A     -0.337007    44A     -0.334826    45A     -0.297509

  @DF-RHF Final Energy:  -499.44968451039978

   => Energetics <=

    Nuclear Repulsion Energy =            687.6179835746635263
    One-Electron Energy =               -2038.7302546974588040
    Two-Electron Energy =                 851.6625866123956712
    Total Energy =                       -499.4496845103997202
  Basis Set: (AUG-CC-PVTZ AUX)
    Blend: AUG-CC-PVTZ-RI
    Molecular point group: c1

    Geometry (in Angstrom), charge = 0, multiplicity = 1:

       Center              X                  Y                   Z               Mass
    ------------   -----------------  -----------------  -----------------  -----------------
         C           -0.303327094516     0.001885157274    -0.000573278219    12.000000000000
         C            1.173691905484     0.001097157274     0.000898721781    12.000000000000
         C           -3.137760094516     0.006611157274    -0.012896278219    12.000000000000
         C           -1.022538094516    -1.113010842726    -0.457866278219    12.000000000000
         C           -1.012498994516     1.103902357274     0.442404221781    12.000000000000
         C           -2.416544094516    -1.108865842726    -0.457977278219    12.000000000000
         C           -2.416718094516     1.118312157274     0.441814721781    12.000000000000
         C            1.887310905484    -1.119956842726     0.453729721781    12.000000000000
         C            1.890597905484     1.120903157274    -0.449768278219    12.000000000000
         C           -4.643820094516    -0.006891842726     0.020643721781    12.000000000000
         C            3.282326905484    -1.121816842726     0.453100721781    12.000000000000
         C            3.285627905484     1.120312157274    -0.444816278219    12.000000000000
         C            3.986109905484    -0.001323842726     0.005276721781    12.000000000000
         H           -0.482989094516    -1.977101842726    -0.841070278219     1.007825032230
         H           -0.483502094516     1.985087157274     0.829829721781     1.007825032230
         H           -2.954329094516    -1.980526842726    -0.828735278219     1.007825032230
         H           -2.954718094516     1.995621157274     0.798727721781     1.007825032230
         H            1.341662905484    -1.982495842726     0.831144721781     1.007825032230
         H            1.347685905484     1.984275157274    -0.829172278219     1.007825032230
         H           -5.049631094516     0.999981157274    -0.113248278219     1.007825032230
         H           -5.049153094516    -0.644383842726    -0.770370278219     1.007825032230
         H           -5.015079094516    -0.389524842726     0.977845721781     1.007825032230
         H            3.821323905484    -1.995138842726     0.813489721781     1.007825032230
         H            3.827235905484     1.992678157274    -0.803599278219     1.007825032230
         H            5.073459905484    -0.002249842726     0.006945721781     1.007825032230

  Basis Set: AUG-CC-PVTZ
    Blend: AUG-CC-PVTZ
  Basis Set: (AUG-CC-PVTZ AUX)
    Blend: AUG-CC-PVTZ-JKFIT
	 Reference Energy          =    -499.4496845103997771 [Eh]
	 Singles Energy            =      -0.0000000000000000 [Eh]
	 Same-Spin Energy          =      -0.5653583829644914 [Eh]
	 Opposite-Spin Energy      =      -1.7795709642868833 [Eh]
	 Correlation Energy        =      -2.3449293472513748 [Eh]
	 Total Energy              =    -501.7946138576511430 [Eh]

	 ================> DF-SCS-MP2 Energies <==================
	-----------------------------------------------------------
	 SCS Same-Spin Scale       =       0.3333333333333333 [-]
	 SCS Opposite-Spin Scale   =       1.2000000000000000 [-]
	 SCS Same-Spin Energy      =      -0.1884527943214971 [Eh]
	 SCS Opposite-Spin Energy  =      -2.1354851571442599 [Eh]
	 SCS Correlation Energy    =      -2.3239379514657572 [Eh]
	 SCS Total Energy          =    -501.7736224618655569 [Eh]
	-----------------------------------------------------------

  Dipole Moment: [D]
     X:    -0.4918      Y:    -0.0134      Z:     0.0364     Total:     0.4933

*** Psi4 exiting successfully. Buy a developer a beer!
