                               Psi4 1.4a3.dev225

  ==> Input File <==

--------------------------------------------------------------------------
#psi4
#
memory 32 gb

molecule  {
0 1
  C       -0.2663850     0.0008990    -0.0013960
  C        1.2106340     0.0001110     0.0000760
  C       -3.1008180     0.0056250    -0.0137190
  C       -0.9855960    -1.1139970    -0.4586890
  C       -0.9858100     1.1188490     0.4479860
  C       -2.3796020    -1.1098520    -0.4588000
  C       -2.3797760     1.1173260     0.4409920
  C        1.9242530    -1.1209430     0.4529070
  C        1.9275400     1.1199170    -0.4505910
  C       -4.6068780    -0.0078780     0.0198210
  C        3.3192690    -1.1228030     0.4522780
  C        3.3225700     1.1193260    -0.4456390
  C        4.0230520    -0.0023100     0.0044540
  H       -0.4460470    -1.9780880    -0.8418930
  H       -0.3970151     2.0635981     0.8640142
  H       -2.9173870    -1.9815130    -0.8295580
  H       -2.9177760     1.9946350     0.7979050
  H        1.3786050    -1.9834820     0.8303220
  H        1.3846280     1.9832890    -0.8299950
  H       -5.0126890     0.9989950    -0.1140710
  H       -5.0122110    -0.6453700    -0.7711930
  H       -4.9781370    -0.3905110     0.9770230
  H        3.8582660    -1.9961250     0.8126670
  H        3.8641780     1.9916920    -0.8044220
  H        5.1104020    -0.0032360     0.0061230
units angstrom
no_reorient  #important for SAPT in psi4, default
symmetry c1  #important for SAPT in psi4, default
}

set PROPERTIES_ORIGIN ["COM"]
properties('MP2/aug-cc-pvtz', properties = ['dipole'])
--------------------------------------------------------------------------

    Molecular point group: c1
  Charge       = 0
  Multiplicity = 1
  Basis Set: AUG-CC-PVTZ
    Blend: AUG-CC-PVTZ
  Basis Set: (AUG-CC-PVTZ AUX)
    Blend: AUG-CC-PVTZ-JKFIT

    Orbital Energies [Eh]
    ---------------------

    Doubly Occupied:

       1A    -11.246471     2A    -11.244916     3A    -11.243335
       4A    -11.242175     5A    -11.236999     6A    -11.236737
       7A    -11.236036     8A    -11.234420     9A    -11.234208
      10A    -11.233967    11A    -11.233161    12A    -11.232496
      13A    -11.225955    14A     -1.168013    15A     -1.141445
      16A     -1.065347    17A     -1.015963    18A     -1.007772
      19A     -1.003921    20A     -0.929222    21A     -0.839345
      22A     -0.831880    23A     -0.809548    24A     -0.777855
      25A     -0.711070    26A     -0.665428    27A     -0.646387
      28A     -0.636170    29A     -0.613619    30A     -0.610929
      31A     -0.586300    32A     -0.577466    33A     -0.574590
      34A     -0.570687    35A     -0.541453    36A     -0.511934
      37A     -0.508636    38A     -0.496785    39A     -0.482055
      40A     -0.481071    41A     -0.475843    42A     -0.359275
      43A     -0.337767    44A     -0.335929    45A     -0.296442

  @DF-RHF Final Energy:  -499.44251056050433

   => Energetics <=

    Nuclear Repulsion Energy =            686.8617836135194921
    One-Electron Energy =               -2037.2265476904601655
    Two-Electron Energy =                 850.9222535164363990
    Total Energy =                       -499.4425105605042745
  Basis Set: (AUG-CC-PVTZ AUX)
    Blend: AUG-CC-PVTZ-RI
    Molecular point group: c1

    Geometry (in Angstrom), charge = 0, multiplicity = 1:

       Center              X                  Y                   Z               Mass
    ------------   -----------------  -----------------  -----------------  -----------------
         C           -0.302892191112     0.000271102470    -0.001240376384    12.000000000000
         C            1.174126808888    -0.000516897530     0.000231623616    12.000000000000
         C           -3.137325191112     0.004997102470    -0.013563376384    12.000000000000
         C           -1.022103191112    -1.114624897530    -0.458533376384    12.000000000000
         C           -1.022317191112     1.118221102470     0.448141623616    12.000000000000
         C           -2.416109191112    -1.110479897530    -0.458644376384    12.000000000000
         C           -2.416283191112     1.116698102470     0.441147623616    12.000000000000
         C            1.887745808888    -1.121570897530     0.453062623616    12.000000000000
         C            1.891032808888     1.119289102470    -0.450435376384    12.000000000000
         C           -4.643385191112    -0.008505897530     0.019976623616    12.000000000000
         C            3.282761808888    -1.123430897530     0.452433623616    12.000000000000
         C            3.286062808888     1.118698102470    -0.445483376384    12.000000000000
         C            3.986544808888    -0.002937897530     0.004609623616    12.000000000000
         H           -0.482554191112    -1.978715897530    -0.841737376384     1.007825032230
         H           -0.433522291112     2.062970202470     0.864169823616     1.007825032230
         H           -2.953894191112    -1.982140897530    -0.829402376384     1.007825032230
         H           -2.954283191112     1.994007102470     0.798060623616     1.007825032230
         H            1.342097808888    -1.984109897530     0.830477623616     1.007825032230
         H            1.348120808888     1.982661102470    -0.829839376384     1.007825032230
         H           -5.049196191112     0.998367102470    -0.113915376384     1.007825032230
         H           -5.048718191112    -0.645997897530    -0.771037376384     1.007825032230
         H           -5.014644191112    -0.391138897530     0.977178623616     1.007825032230
         H            3.821758808888    -1.996752897530     0.812822623616     1.007825032230
         H            3.827670808888     1.991064102470    -0.804266376384     1.007825032230
         H            5.073894808888    -0.003863897530     0.006278623616     1.007825032230

  Basis Set: AUG-CC-PVTZ
    Blend: AUG-CC-PVTZ
  Basis Set: (AUG-CC-PVTZ AUX)
    Blend: AUG-CC-PVTZ-JKFIT
	 Reference Energy          =    -499.4425105605043314 [Eh]
	 Singles Energy            =      -0.0000000000000000 [Eh]
	 Same-Spin Energy          =      -0.5657020953706341 [Eh]
	 Opposite-Spin Energy      =      -1.7806969000566113 [Eh]
	 Correlation Energy        =      -2.3463989954272453 [Eh]
	 Total Energy              =    -501.7889095559315820 [Eh]

	 ================> DF-SCS-MP2 Energies <==================
	-----------------------------------------------------------
	 SCS Same-Spin Scale       =       0.3333333333333333 [-]
	 SCS Opposite-Spin Scale   =       1.2000000000000000 [-]
	 SCS Same-Spin Energy      =      -0.1885673651235447 [Eh]
	 SCS Opposite-Spin Energy  =      -2.1368362800679335 [Eh]
	 SCS Correlation Energy    =      -2.3254036451914781 [Eh]
	 SCS Total Energy          =    -501.7679142056958312 [Eh]
	-----------------------------------------------------------

  Dipole Moment: [D]
     X:    -0.5129      Y:    -0.0426      Z:     0.0228     Total:     0.5152

*** Psi4 exiting successfully. Buy a developer a beer!
