                               Psi4 1.4a3.dev225

  ==> Input File <==

--------------------------------------------------------------------------
#psi4
#
memory 32 gb

molecule  {
0 1
  C       -0.2663850     0.0008990    -0.0013960
  C        1.2106340     0.0001110     0.0000760
  C       -3.1008180     0.0056250    -0.0137190
  C       -0.9855960    -1.1139970    -0.4586890
  C       -0.9858100     1.1188490     0.4479860
  C       -2.3796020    -1.1098520    -0.4588000
  C       -2.3797760     1.1173260     0.4409920
  C        1.9242530    -1.1209430     0.4529070
  C        1.9275400     1.1199170    -0.4505910
  C       -4.6068780    -0.0078780     0.0198210
  C        3.3192690    -1.1228030     0.4522780
  C        3.3225700     1.1193260    -0.4456390
  C        4.0230520    -0.0023100     0.0044540
  H       -0.4460470    -1.9780880    -0.8418930
  H       -0.4465600     1.9841010     0.8290070
  H       -2.9173870    -1.9815130    -0.8295580
  H       -2.9177760     1.9946350     0.7979050
  H        1.4287479    -1.9042180     0.7956390
  H        1.3846280     1.9832890    -0.8299950
  H       -5.0126890     0.9989950    -0.1140710
  H       -5.0122110    -0.6453700    -0.7711930
  H       -4.9781370    -0.3905110     0.9770230
  H        3.8582660    -1.9961250     0.8126670
  H        3.8641780     1.9916920    -0.8044220
  H        5.1104020    -0.0032360     0.0061230
units angstrom
no_reorient  #important for SAPT in psi4, default
symmetry c1  #important for SAPT in psi4, default
}

set PROPERTIES_ORIGIN ["COM"]
properties('MP2/aug-cc-pvtz', properties = ['dipole'])
--------------------------------------------------------------------------

    Molecular point group: c1
  Charge       = 0
  Multiplicity = 1
  Basis Set: AUG-CC-PVTZ
    Blend: AUG-CC-PVTZ
  Basis Set: (AUG-CC-PVTZ AUX)
    Blend: AUG-CC-PVTZ-JKFIT

    Orbital Energies [Eh]
    ---------------------

    Doubly Occupied:

       1A    -11.244068     2A    -11.242683     3A    -11.241241
       4A    -11.236723     5A    -11.236138     6A    -11.235458
       7A    -11.235269     8A    -11.233802     9A    -11.233544
      10A    -11.232225    11A    -11.232156    12A    -11.225573
      13A    -11.222496    14A     -1.168316    15A     -1.141447
      16A     -1.065203    17A     -1.019047    18A     -1.009853
      19A     -1.004323    20A     -0.929313    21A     -0.843609
      22A     -0.833821    23A     -0.814558    24A     -0.779959
      25A     -0.715451    26A     -0.671803    27A     -0.645966
      28A     -0.643286    29A     -0.617026    30A     -0.613109
      31A     -0.591007    32A     -0.581270    33A     -0.576366
      34A     -0.571414    35A     -0.541422    36A     -0.513759
      37A     -0.509024    38A     -0.499717    39A     -0.481968
      40A     -0.480825    41A     -0.479843    42A     -0.358807
      43A     -0.337404    44A     -0.335631    45A     -0.295919

  @DF-RHF Final Energy:  -499.44439005309800

   => Energetics <=

    Nuclear Repulsion Energy =            687.8488325394422418
    One-Electron Energy =               -2039.1427574295573777
    Two-Electron Energy =                 851.8495348370172451
    Total Energy =                       -499.4443900530980045
  Basis Set: (AUG-CC-PVTZ AUX)
    Blend: AUG-CC-PVTZ-RI
    Molecular point group: c1

    Geometry (in Angstrom), charge = 0, multiplicity = 1:

       Center              X                  Y                   Z               Mass
    ------------   -----------------  -----------------  -----------------  -----------------
         C           -0.302895776485     0.000272500046    -0.000822541305    12.000000000000
         C            1.174123223515    -0.000515499954     0.000649458695    12.000000000000
         C           -3.137328776485     0.004998500046    -0.013145541305    12.000000000000
         C           -1.022106776485    -1.114623499954    -0.458115541305    12.000000000000
         C           -1.022320776485     1.118222500046     0.448559458695    12.000000000000
         C           -2.416112776485    -1.110478499954    -0.458226541305    12.000000000000
         C           -2.416286776485     1.116699500046     0.441565458695    12.000000000000
         C            1.887742223515    -1.121569499954     0.453480458695    12.000000000000
         C            1.891029223515     1.119290500046    -0.450017541305    12.000000000000
         C           -4.643388776485    -0.008504499954     0.020394458695    12.000000000000
         C            3.282758223515    -1.123429499954     0.452851458695    12.000000000000
         C            3.286059223515     1.118699500046    -0.445065541305    12.000000000000
         C            3.986541223515    -0.002936499954     0.005027458695    12.000000000000
         H           -0.482557776485    -1.978714499954    -0.841319541305     1.007825032230
         H           -0.483070776485     1.983474500046     0.829580458695     1.007825032230
         H           -2.953897776485    -1.982139499954    -0.828984541305     1.007825032230
         H           -2.954286776485     1.994008500046     0.798478458695     1.007825032230
         H            1.392237123515    -1.904844499954     0.796212458695     1.007825032230
         H            1.348117223515     1.982662500046    -0.829421541305     1.007825032230
         H           -5.049199776485     0.998368500046    -0.113497541305     1.007825032230
         H           -5.048721776485    -0.645996499954    -0.770619541305     1.007825032230
         H           -5.014647776485    -0.391137499954     0.977596458695     1.007825032230
         H            3.821755223515    -1.996751499954     0.813240458695     1.007825032230
         H            3.827667223515     1.991065500046    -0.803848541305     1.007825032230
         H            5.073891223515    -0.003862499954     0.006696458695     1.007825032230

  Basis Set: AUG-CC-PVTZ
    Blend: AUG-CC-PVTZ
  Basis Set: (AUG-CC-PVTZ AUX)
    Blend: AUG-CC-PVTZ-JKFIT
	 Reference Energy          =    -499.4443900530980045 [Eh]
	 Singles Energy            =      -0.0000000000000000 [Eh]
	 Same-Spin Energy          =      -0.5651392856052142 [Eh]
	 Opposite-Spin Energy      =      -1.7790080159926347 [Eh]
	 Correlation Energy        =      -2.3441473015978489 [Eh]
	 Total Energy              =    -501.7885373546958476 [Eh]

	 ================> DF-SCS-MP2 Energies <==================
	-----------------------------------------------------------
	 SCS Same-Spin Scale       =       0.3333333333333333 [-]
	 SCS Opposite-Spin Scale   =       1.2000000000000000 [-]
	 SCS Same-Spin Energy      =      -0.1883797618684047 [Eh]
	 SCS Opposite-Spin Energy  =      -2.1348096191911616 [Eh]
	 SCS Correlation Energy    =      -2.3231893810595663 [Eh]
	 SCS Total Energy          =    -501.7675794341575966 [Eh]
	-----------------------------------------------------------

  Dipole Moment: [D]
     X:    -0.5019      Y:    -0.0303      Z:     0.0446     Total:     0.5048

*** Psi4 exiting successfully. Buy a developer a beer!
