                               Psi4 1.4a3.dev225

  ==> Input File <==

--------------------------------------------------------------------------
#psi4
#
memory 32 gb

molecule  {
0 1
  C       -0.2663850     0.0008990    -0.0013960
  C        1.2106340     0.0001110     0.0000760
  C       -3.1008180     0.0056250    -0.0137190
  C       -0.9855960    -1.1139970    -0.4586890
  C       -0.9858100     1.1188490     0.4479860
  C       -2.3796020    -1.1098520    -0.4588000
  C       -2.3797760     1.1173260     0.4409920
  C        1.9242530    -1.1209430     0.4529070
  C        1.9275400     1.1199170    -0.4505910
  C       -4.6068780    -0.0078780     0.0198210
  C        3.3192690    -1.1228030     0.4522780
  C        3.3225700     1.1193260    -0.4456390
  C        3.8930732     0.0592525    -0.0219107
  H       -0.4460470    -1.9780880    -0.8418930
  H       -0.4465600     1.9841010     0.8290070
  H       -2.9173870    -1.9815130    -0.8295580
  H       -2.9177760     1.9946350     0.7979050
  H        1.3786050    -1.9834820     0.8303220
  H        1.3846280     1.9832890    -0.8299950
  H       -5.0126890     0.9989950    -0.1140710
  H       -5.0122110    -0.6453700    -0.7711930
  H       -4.9781370    -0.3905110     0.9770230
  H        3.8582660    -1.9961250     0.8126670
  H        3.8641780     1.9916920    -0.8044220
  H        5.1104020    -0.0032360     0.0061230
units angstrom
no_reorient  #important for SAPT in psi4, default
symmetry c1  #important for SAPT in psi4, default
}

set PROPERTIES_ORIGIN ["COM"]
properties('MP2/aug-cc-pvtz', properties = ['dipole'])
--------------------------------------------------------------------------

    Molecular point group: c1
  Charge       = 0
  Multiplicity = 1
  Basis Set: AUG-CC-PVTZ
    Blend: AUG-CC-PVTZ
  Basis Set: (AUG-CC-PVTZ AUX)
    Blend: AUG-CC-PVTZ-JKFIT

    Orbital Energies [Eh]
    ---------------------

    Doubly Occupied:

       1A    -11.242808     2A    -11.242001     3A    -11.240907
       4A    -11.237510     5A    -11.235587     6A    -11.235441
       7A    -11.234751     8A    -11.234550     9A    -11.232393
      10A    -11.231751    11A    -11.231651    12A    -11.225190
      13A    -11.221731    14A     -1.174920    15A     -1.148894
      16A     -1.069671    17A     -1.024834    18A     -1.011240
      19A     -1.002940    20A     -0.927590    21A     -0.846544
      22A     -0.827648    23A     -0.814629    24A     -0.778315
      25A     -0.714235    26A     -0.653195    27A     -0.649019
      28A     -0.640945    29A     -0.623052    30A     -0.616772
      31A     -0.593822    32A     -0.581832    33A     -0.575800
      34A     -0.559941    35A     -0.541709    36A     -0.517082
      37A     -0.510210    38A     -0.495136    39A     -0.485545
      40A     -0.481647    41A     -0.458826    42A     -0.366814
      43A     -0.339298    44A     -0.335997    45A     -0.297239

  @DF-RHF Final Energy:  -499.42192836311881

   => Energetics <=

    Nuclear Repulsion Energy =            690.0485294427693361
    One-Electron Energy =               -2043.5176943478056728
    Two-Electron Energy =                 854.0472365419176413
    Total Energy =                       -499.4219283631188091
  Basis Set: (AUG-CC-PVTZ AUX)
    Blend: AUG-CC-PVTZ-RI
    Molecular point group: c1

    Geometry (in Angstrom), charge = 0, multiplicity = 1:

       Center              X                  Y                   Z               Mass
    ------------   -----------------  -----------------  -----------------  -----------------
         C           -0.293316125670    -0.003647129132     0.000851653914    12.000000000000
         C            1.183702874330    -0.004435129132     0.002323653914    12.000000000000
         C           -3.127749125670     0.001078870868    -0.011471346086    12.000000000000
         C           -1.012527125670    -1.118543129132    -0.456441346086    12.000000000000
         C           -1.012741125670     1.114302870868     0.450233653914    12.000000000000
         C           -2.406533125670    -1.114398129132    -0.456552346086    12.000000000000
         C           -2.406707125670     1.112779870868     0.443239653914    12.000000000000
         C            1.897321874330    -1.125489129132     0.455154653914    12.000000000000
         C            1.900608874330     1.115370870868    -0.448343346086    12.000000000000
         C           -4.633809125670    -0.012424129132     0.022068653914    12.000000000000
         C            3.292337874330    -1.127349129132     0.454525653914    12.000000000000
         C            3.295638874330     1.114779870868    -0.443391346086    12.000000000000
         C            3.866142074330     0.054706370868    -0.019663046086    12.000000000000
         H           -0.472978125670    -1.982634129132    -0.839645346086     1.007825032230
         H           -0.473491125670     1.979554870868     0.831254653914     1.007825032230
         H           -2.944318125670    -1.986059129132    -0.827310346086     1.007825032230
         H           -2.944707125670     1.990088870868     0.800152653914     1.007825032230
         H            1.351673874330    -1.988028129132     0.832569653914     1.007825032230
         H            1.357696874330     1.978742870868    -0.827747346086     1.007825032230
         H           -5.039620125670     0.994448870868    -0.111823346086     1.007825032230
         H           -5.039142125670    -0.649916129132    -0.768945346086     1.007825032230
         H           -5.005068125670    -0.395057129132     0.979270653914     1.007825032230
         H            3.831334874330    -2.000671129132     0.814914653914     1.007825032230
         H            3.837246874330     1.987145870868    -0.802174346086     1.007825032230
         H            5.083470874330    -0.007782129132     0.008370653914     1.007825032230

  Basis Set: AUG-CC-PVTZ
    Blend: AUG-CC-PVTZ
  Basis Set: (AUG-CC-PVTZ AUX)
    Blend: AUG-CC-PVTZ-JKFIT
	 Reference Energy          =    -499.4219283631188091 [Eh]
	 Singles Energy            =      -0.0000000000000000 [Eh]
	 Same-Spin Energy          =      -0.5658086444275282 [Eh]
	 Opposite-Spin Energy      =      -1.7805215057882404 [Eh]
	 Correlation Energy        =      -2.3463301502157687 [Eh]
	 Total Energy              =    -501.7682585133345583 [Eh]

	 ================> DF-SCS-MP2 Energies <==================
	-----------------------------------------------------------
	 SCS Same-Spin Scale       =       0.3333333333333333 [-]
	 SCS Opposite-Spin Scale   =       1.2000000000000000 [-]
	 SCS Same-Spin Energy      =      -0.1886028814758427 [Eh]
	 SCS Opposite-Spin Energy  =      -2.1366258069458883 [Eh]
	 SCS Correlation Energy    =      -2.3252286884217312 [Eh]
	 SCS Total Energy          =    -501.7471570515405119 [Eh]
	-----------------------------------------------------------

  Dipole Moment: [D]
     X:    -0.5591      Y:    -0.0272      Z:     0.0419     Total:     0.5613

*** Psi4 exiting successfully. Buy a developer a beer!
