                               Psi4 1.4a3.dev225

  ==> Input File <==

--------------------------------------------------------------------------
#psi4
#
memory 32 gb

molecule  {
0 1
  C       -0.2663850     0.0008990    -0.0013960
  C        1.2106340     0.0001110     0.0000760
  C       -3.1008180     0.0056250    -0.0137190
  C       -0.9855960    -1.1139970    -0.4586890
  C       -0.9858100     1.1188490     0.4479860
  C       -2.3796020    -1.1098520    -0.4588000
  C       -2.3797760     1.1173260     0.4409920
  C        1.9242530    -1.1209430     0.4529070
  C        1.9275400     1.1199170    -0.4505910
  C       -4.6068780    -0.0078780     0.0198210
  C        3.3192690    -1.1228030     0.4522780
  C        3.3225700     1.1193260    -0.4456390
  C        4.0731975    -0.0826047     0.0366749
  H       -0.4460470    -1.9780880    -0.8418930
  H       -0.4465600     1.9841010     0.8290070
  H       -2.9173870    -1.9815130    -0.8295580
  H       -2.9177760     1.9946350     0.7979050
  H        1.3786050    -1.9834820     0.8303220
  H        1.3846280     1.9832890    -0.8299950
  H       -5.0126890     0.9989950    -0.1140710
  H       -5.0122110    -0.6453700    -0.7711930
  H       -4.9781370    -0.3905110     0.9770230
  H        3.8582660    -1.9961250     0.8126670
  H        3.8641780     1.9916920    -0.8044220
  H        5.1104020    -0.0032360     0.0061230
units angstrom
no_reorient  #important for SAPT in psi4, default
symmetry c1  #important for SAPT in psi4, default
}

set PROPERTIES_ORIGIN ["COM"]
properties('MP2/aug-cc-pvtz', properties = ['dipole'])
--------------------------------------------------------------------------

    Molecular point group: c1
  Charge       = 0
  Multiplicity = 1
  Basis Set: AUG-CC-PVTZ
    Blend: AUG-CC-PVTZ
  Basis Set: (AUG-CC-PVTZ AUX)
    Blend: AUG-CC-PVTZ-JKFIT

    Orbital Energies [Eh]
    ---------------------

    Doubly Occupied:

       1A    -11.246280     2A    -11.246211     3A    -11.242993
       4A    -11.241509     5A    -11.235793     6A    -11.235621
       7A    -11.235534     8A    -11.234344     9A    -11.234227
      10A    -11.232413    11A    -11.232242    12A    -11.231820
      13A    -11.225737    14A     -1.167163    15A     -1.139050
      16A     -1.065094    17A     -1.017413    18A     -1.010734
      19A     -0.999280    20A     -0.929833    21A     -0.841429
      22A     -0.834237    23A     -0.808857    24A     -0.780349
      25A     -0.711340    26A     -0.674455    27A     -0.645680
      28A     -0.641946    29A     -0.612952    30A     -0.612440
      31A     -0.587865    32A     -0.581483    33A     -0.576630
      34A     -0.570214    35A     -0.541426    36A     -0.521105
      37A     -0.506736    38A     -0.492289    39A     -0.483431
      40A     -0.480738    41A     -0.471709    42A     -0.360180
      43A     -0.337233    44A     -0.334942    45A     -0.294939

  @DF-RHF Final Energy:  -499.43843446759138

   => Energetics <=

    Nuclear Repulsion Energy =            686.3783783851548606
    One-Electron Energy =               -2036.2178340929276601
    Two-Electron Energy =                 850.4010212401813078
    Total Energy =                       -499.4384344675913781
  Basis Set: (AUG-CC-PVTZ AUX)
    Blend: AUG-CC-PVTZ-RI
    Molecular point group: c1

    Geometry (in Angstrom), charge = 0, multiplicity = 1:

       Center              X                  Y                   Z               Mass
    ------------   -----------------  -----------------  -----------------  -----------------
         C           -0.306174959899     0.006479867720    -0.003330694157    12.000000000000
         C            1.170844040101     0.005691867720    -0.001858694157    12.000000000000
         C           -3.140607959899     0.011205867720    -0.015653694157    12.000000000000
         C           -1.025385959899    -1.108416132280    -0.460623694157    12.000000000000
         C           -1.025599959899     1.124429867720     0.446051305843    12.000000000000
         C           -2.419391959899    -1.104271132280    -0.460734694157    12.000000000000
         C           -2.419565959899     1.122906867720     0.439057305843    12.000000000000
         C            1.884463040101    -1.115362132280     0.450972305843    12.000000000000
         C            1.887750040101     1.125497867720    -0.452525694157    12.000000000000
         C           -4.646667959899    -0.002297132280     0.017886305843    12.000000000000
         C            3.279479040101    -1.117222132280     0.450343305843    12.000000000000
         C            3.282780040101     1.124906867720    -0.447573694157    12.000000000000
         C            4.033407540101    -0.077023832280     0.034740205843    12.000000000000
         H           -0.485836959899    -1.972507132280    -0.843827694157     1.007825032230
         H           -0.486349959899     1.989681867720     0.827072305843     1.007825032230
         H           -2.957176959899    -1.975932132280    -0.831492694157     1.007825032230
         H           -2.957565959899     2.000215867720     0.795970305843     1.007825032230
         H            1.338815040101    -1.977901132280     0.828387305843     1.007825032230
         H            1.344838040101     1.988869867720    -0.831929694157     1.007825032230
         H           -5.052478959899     1.004575867720    -0.116005694157     1.007825032230
         H           -5.052000959899    -0.639789132280    -0.773127694157     1.007825032230
         H           -5.017926959899    -0.384930132280     0.975088305843     1.007825032230
         H            3.818476040101    -1.990544132280     0.810732305843     1.007825032230
         H            3.824388040101     1.997272867720    -0.806356694157     1.007825032230
         H            5.070612040101     0.002344867720     0.004188305843     1.007825032230

  Basis Set: AUG-CC-PVTZ
    Blend: AUG-CC-PVTZ
  Basis Set: (AUG-CC-PVTZ AUX)
    Blend: AUG-CC-PVTZ-JKFIT
	 Reference Energy          =    -499.4384344675913781 [Eh]
	 Singles Energy            =      -0.0000000000000000 [Eh]
	 Same-Spin Energy          =      -0.5651786458090069 [Eh]
	 Opposite-Spin Energy      =      -1.7803301843615109 [Eh]
	 Correlation Energy        =      -2.3455088301705178 [Eh]
	 Total Energy              =    -501.7839432977618799 [Eh]

	 ================> DF-SCS-MP2 Energies <==================
	-----------------------------------------------------------
	 SCS Same-Spin Scale       =       0.3333333333333333 [-]
	 SCS Opposite-Spin Scale   =       1.2000000000000000 [-]
	 SCS Same-Spin Energy      =      -0.1883928819363356 [Eh]
	 SCS Opposite-Spin Energy  =      -2.1363962212338130 [Eh]
	 SCS Correlation Energy    =      -2.3247891031701484 [Eh]
	 SCS Total Energy          =    -501.7632235707615109 [Eh]
	-----------------------------------------------------------

  Dipole Moment: [D]
     X:    -0.4928      Y:     0.0014      Z:     0.0320     Total:     0.4938

*** Psi4 exiting successfully. Buy a developer a beer!
