                               Psi4 1.4a3.dev225

  ==> Input File <==

--------------------------------------------------------------------------
#psi4
#
memory 32 gb

molecule  {
0 1
  C       -0.2663850     0.0008990    -0.0013960
  C        1.2106340     0.0001110     0.0000760
  C       -3.1008180     0.0056250    -0.0137190
  C       -0.9855960    -1.1139970    -0.4586890
  C       -0.9858100     1.1188490     0.4479860
  C       -2.3796020    -1.1098520    -0.4588000
  C       -2.3797760     1.1173260     0.4409920
  C        2.0259119    -1.2806432     0.5174152
  C        1.9275400     1.1199170    -0.4505910
  C       -4.6068780    -0.0078780     0.0198210
  C        3.3192690    -1.1228030     0.4522780
  C        3.3225700     1.1193260    -0.4456390
  C        4.0230520    -0.0023100     0.0044540
  H       -0.4460470    -1.9780880    -0.8418930
  H       -0.4465600     1.9841010     0.8290070
  H       -2.9173870    -1.9815130    -0.8295580
  H       -2.9177760     1.9946350     0.7979050
  H        1.3786050    -1.9834820     0.8303220
  H        1.3846280     1.9832890    -0.8299950
  H       -5.0126890     0.9989950    -0.1140710
  H       -5.0122110    -0.6453700    -0.7711930
  H       -4.9781370    -0.3905110     0.9770230
  H        3.8582660    -1.9961250     0.8126670
  H        3.8641780     1.9916920    -0.8044220
  H        5.1104020    -0.0032360     0.0061230
units angstrom
no_reorient  #important for SAPT in psi4, default
symmetry c1  #important for SAPT in psi4, default
}

set PROPERTIES_ORIGIN ["COM"]
properties('MP2/aug-cc-pvtz', properties = ['dipole'])
--------------------------------------------------------------------------

    Molecular point group: c1
  Charge       = 0
  Multiplicity = 1
  Basis Set: AUG-CC-PVTZ
    Blend: AUG-CC-PVTZ
  Basis Set: (AUG-CC-PVTZ AUX)
    Blend: AUG-CC-PVTZ-JKFIT

    Orbital Energies [Eh]
    ---------------------

    Doubly Occupied:

       1A    -11.259682     2A    -11.243463     3A    -11.242485
       4A    -11.239377     5A    -11.236567     6A    -11.236382
       7A    -11.235958     8A    -11.233901     9A    -11.232892
      10A    -11.232718    11A    -11.232091    12A    -11.228003
      13A    -11.226088    14A     -1.163312    15A     -1.138953
      16A     -1.064398    17A     -1.029454    18A     -1.012266
      19A     -0.992948    20A     -0.928589    21A     -0.843374
      22A     -0.834417    23A     -0.809275    24A     -0.776704
      25A     -0.709991    26A     -0.681761    27A     -0.649136
      28A     -0.641804    29A     -0.622910    30A     -0.603371
      31A     -0.592634    32A     -0.582282    33A     -0.576683
      34A     -0.563728    35A     -0.541722    36A     -0.524886
      37A     -0.505338    38A     -0.494682    39A     -0.484813
      40A     -0.482677    41A     -0.449599    42A     -0.361448
      43A     -0.344244    44A     -0.337410    45A     -0.286415

  @DF-RHF Final Energy:  -499.40906987824945

   => Energetics <=

    Nuclear Repulsion Energy =            684.6132569908559162
    One-Electron Energy =               -2032.6229907625863689
    Two-Electron Energy =                 848.6006638934809416
    Total Energy =                       -499.4090698782495110
  Basis Set: (AUG-CC-PVTZ AUX)
    Blend: AUG-CC-PVTZ-RI
    Molecular point group: c1

    Geometry (in Angstrom), charge = 0, multiplicity = 1:

       Center              X                  Y                   Z               Mass
    ------------   -----------------  -----------------  -----------------  -----------------
         C           -0.309852433017     0.012148520763    -0.005635641565    12.000000000000
         C            1.167166566983     0.011360520763    -0.004163641565    12.000000000000
         C           -3.144285433017     0.016874520763    -0.017958641565    12.000000000000
         C           -1.029063433017    -1.102747479237    -0.462928641565    12.000000000000
         C           -1.029277433017     1.130098520763     0.443746358435    12.000000000000
         C           -2.423069433017    -1.098602479237    -0.463039641565    12.000000000000
         C           -2.423243433017     1.128575520763     0.436752358435    12.000000000000
         C            1.982444466983    -1.269393679237     0.513175558435    12.000000000000
         C            1.884072566983     1.131166520763    -0.454830641565    12.000000000000
         C           -4.650345433017     0.003371520763     0.015581358435    12.000000000000
         C            3.275801566983    -1.111553479237     0.448038358435    12.000000000000
         C            3.279102566983     1.130575520763    -0.449878641565    12.000000000000
         C            3.979584566983     0.008939520763     0.000214358435    12.000000000000
         H           -0.489514433017    -1.966838479237    -0.846132641565     1.007825032230
         H           -0.490027433017     1.995350520763     0.824767358435     1.007825032230
         H           -2.960854433017    -1.970263479237    -0.833797641565     1.007825032230
         H           -2.961243433017     2.005884520763     0.793665358435     1.007825032230
         H            1.335137566983    -1.972232479237     0.826082358435     1.007825032230
         H            1.341160566983     1.994538520763    -0.834234641565     1.007825032230
         H           -5.056156433017     1.010244520763    -0.118310641565     1.007825032230
         H           -5.055678433017    -0.634120479237    -0.775432641565     1.007825032230
         H           -5.021604433017    -0.379261479237     0.972783358435     1.007825032230
         H            3.814798566983    -1.984875479237     0.808427358435     1.007825032230
         H            3.820710566983     2.002941520763    -0.808661641565     1.007825032230
         H            5.066934566983     0.008013520763     0.001883358435     1.007825032230

  Basis Set: AUG-CC-PVTZ
    Blend: AUG-CC-PVTZ
  Basis Set: (AUG-CC-PVTZ AUX)
    Blend: AUG-CC-PVTZ-JKFIT
	 Reference Energy          =    -499.4090698782494542 [Eh]
	 Singles Energy            =      -0.0000000000000000 [Eh]
	 Same-Spin Energy          =      -0.5650943871831804 [Eh]
	 Opposite-Spin Energy      =      -1.7818293267471002 [Eh]
	 Correlation Energy        =      -2.3469237139302805 [Eh]
	 Total Energy              =    -501.7559935921797205 [Eh]

	 ================> DF-SCS-MP2 Energies <==================
	-----------------------------------------------------------
	 SCS Same-Spin Scale       =       0.3333333333333333 [-]
	 SCS Opposite-Spin Scale   =       1.2000000000000000 [-]
	 SCS Same-Spin Energy      =      -0.1883647957277268 [Eh]
	 SCS Opposite-Spin Energy  =      -2.1381951920965201 [Eh]
	 SCS Correlation Energy    =      -2.3265599878242469 [Eh]
	 SCS Total Energy          =    -501.7356298660736798 [Eh]
	-----------------------------------------------------------

  Dipole Moment: [D]
     X:    -0.5421      Y:     0.0058      Z:     0.0372     Total:     0.5434

*** Psi4 exiting successfully. Buy a developer a beer!
