                               Psi4 1.4a3.dev225

  ==> Input File <==

--------------------------------------------------------------------------
#psi4
#
memory 32 gb

molecule  {
0 1
  C       -0.2663850     0.0008990    -0.0013960
  C        1.2106340     0.0001110     0.0000760
  C       -3.1008180     0.0056250    -0.0137190
  C       -0.9855960    -1.1139970    -0.4586890
  C       -0.9858100     1.1188490     0.4479860
  C       -2.3796020    -1.1098520    -0.4588000
  C       -2.3797760     1.1173260     0.4409920
  C        1.9242530    -1.1209430     0.4529070
  C        1.9275400     1.1199170    -0.4505910
  C       -4.6068780    -0.0078780     0.0198210
  C        3.3192690    -1.1228030     0.4522780
  C        3.3225700     1.1193260    -0.4456390
  C        4.0230520    -0.0023100     0.0044540
  H       -0.3964743    -2.0574790    -0.8771011
  H       -0.4465600     1.9841010     0.8290070
  H       -2.9173870    -1.9815130    -0.8295580
  H       -2.9177760     1.9946350     0.7979050
  H        1.3786050    -1.9834820     0.8303220
  H        1.3846280     1.9832890    -0.8299950
  H       -5.0126890     0.9989950    -0.1140710
  H       -5.0122110    -0.6453700    -0.7711930
  H       -4.9781370    -0.3905110     0.9770230
  H        3.8582660    -1.9961250     0.8126670
  H        3.8641780     1.9916920    -0.8044220
  H        5.1104020    -0.0032360     0.0061230
units angstrom
no_reorient  #important for SAPT in psi4, default
symmetry c1  #important for SAPT in psi4, default
}

set PROPERTIES_ORIGIN ["COM"]
properties('MP2/aug-cc-pvtz', properties = ['dipole'])
--------------------------------------------------------------------------

    Molecular point group: c1
  Charge       = 0
  Multiplicity = 1
  Basis Set: AUG-CC-PVTZ
    Blend: AUG-CC-PVTZ
  Basis Set: (AUG-CC-PVTZ AUX)
    Blend: AUG-CC-PVTZ-JKFIT

    Orbital Energies [Eh]
    ---------------------

    Doubly Occupied:

       1A    -11.246455     2A    -11.244916     3A    -11.243335
       4A    -11.242175     5A    -11.236997     6A    -11.236736
       7A    -11.236054     8A    -11.234420     9A    -11.234206
      10A    -11.233964    11A    -11.233127    12A    -11.232531
      13A    -11.225956    14A     -1.168012    15A     -1.141445
      16A     -1.065347    17A     -1.015965    18A     -1.007774
      19A     -1.003917    20A     -0.929222    21A     -0.839362
      22A     -0.831862    23A     -0.809546    24A     -0.777855
      25A     -0.711070    26A     -0.665425    27A     -0.646389
      28A     -0.636178    29A     -0.613700    30A     -0.610843
      31A     -0.586315    32A     -0.577339    33A     -0.574430
      34A     -0.570976    35A     -0.541444    36A     -0.512072
      37A     -0.508468    38A     -0.496803    39A     -0.482190
      40A     -0.480866    41A     -0.475911    42A     -0.359279
      43A     -0.337766    44A     -0.335929    45A     -0.296437

  @DF-RHF Final Energy:  -499.44251029586400

   => Energetics <=

    Nuclear Repulsion Energy =            686.8617381010309373
    One-Electron Energy =               -2037.2264803610455601
    Two-Electron Energy =                 850.9222319641506829
    Total Energy =                       -499.4425102958640537
  Basis Set: (AUG-CC-PVTZ AUX)
    Blend: AUG-CC-PVTZ-RI
    Molecular point group: c1

    Geometry (in Angstrom), charge = 0, multiplicity = 1:

       Center              X                  Y                   Z               Mass
    ------------   -----------------  -----------------  -----------------  -----------------
         C           -0.302892357790     0.001223733138    -0.000819393012    12.000000000000
         C            1.174126642210     0.000435733138     0.000652606988    12.000000000000
         C           -3.137325357790     0.005949733138    -0.013142393012    12.000000000000
         C           -1.022103357790    -1.113672266862    -0.458112393012    12.000000000000
         C           -1.022317357790     1.119173733138     0.448562606988    12.000000000000
         C           -2.416109357790    -1.109527266862    -0.458223393012    12.000000000000
         C           -2.416283357790     1.117650733138     0.441568606988    12.000000000000
         C            1.887745642210    -1.120618266862     0.453483606988    12.000000000000
         C            1.891032642210     1.120241733138    -0.450014393012    12.000000000000
         C           -4.643385357790    -0.007553266862     0.020397606988    12.000000000000
         C            3.282761642210    -1.122478266862     0.452854606988    12.000000000000
         C            3.286062642210     1.119650733138    -0.445062393012    12.000000000000
         C            3.986544642210    -0.001985266862     0.005030606988    12.000000000000
         H           -0.432981657790    -2.057154266862    -0.876524493012     1.007825032230
         H           -0.483067357790     1.984425733138     0.829583606988     1.007825032230
         H           -2.953894357790    -1.981188266862    -0.828981393012     1.007825032230
         H           -2.954283357790     1.994959733138     0.798481606988     1.007825032230
         H            1.342097642210    -1.983157266862     0.830898606988     1.007825032230
         H            1.348120642210     1.983613733138    -0.829418393012     1.007825032230
         H           -5.049196357790     0.999319733138    -0.113494393012     1.007825032230
         H           -5.048718357790    -0.645045266862    -0.770616393012     1.007825032230
         H           -5.014644357790    -0.390186266862     0.977599606988     1.007825032230
         H            3.821758642210    -1.995800266862     0.813243606988     1.007825032230
         H            3.827670642210     1.992016733138    -0.803845393012     1.007825032230
         H            5.073894642210    -0.002911266862     0.006699606988     1.007825032230

  Basis Set: AUG-CC-PVTZ
    Blend: AUG-CC-PVTZ
  Basis Set: (AUG-CC-PVTZ AUX)
    Blend: AUG-CC-PVTZ-JKFIT
	 Reference Energy          =    -499.4425102958639968 [Eh]
	 Singles Energy            =      -0.0000000000000000 [Eh]
	 Same-Spin Energy          =      -0.5657015222709443 [Eh]
	 Opposite-Spin Energy      =      -1.7806932277485696 [Eh]
	 Correlation Energy        =      -2.3463947500195141 [Eh]
	 Total Energy              =    -501.7889050458834959 [Eh]

	 ================> DF-SCS-MP2 Energies <==================
	-----------------------------------------------------------
	 SCS Same-Spin Scale       =       0.3333333333333333 [-]
	 SCS Opposite-Spin Scale   =       1.2000000000000000 [-]
	 SCS Same-Spin Energy      =      -0.1885671740903148 [Eh]
	 SCS Opposite-Spin Energy  =      -2.1368318732982834 [Eh]
	 SCS Correlation Energy    =      -2.3253990473885979 [Eh]
	 SCS Total Energy          =    -501.7679093432525974 [Eh]
	-----------------------------------------------------------

  Dipole Moment: [D]
     X:    -0.5131      Y:     0.0150      Z:     0.0505     Total:     0.5158

*** Psi4 exiting successfully. Buy a developer a beer!
