                               Psi4 1.4a3.dev225

  ==> Input File <==

--------------------------------------------------------------------------
#psi4
#
memory 32 gb

molecule  {
0 1
  C       -0.2663850     0.0008990    -0.0013960
  C        1.2106340     0.0001110     0.0000760
  C       -3.1008180     0.0056250    -0.0137190
  C       -0.9855960    -1.1139970    -0.4586890
  C       -0.9858100     1.1188490     0.4479860
  C       -2.3796020    -1.1098520    -0.4588000
  C       -2.3797760     1.1173260     0.4409920
  C        1.9242530    -1.1209430     0.4529070
  C        1.9275400     1.1199170    -0.4505910
  C       -4.6068780    -0.0078780     0.0198210
  C        3.3192690    -1.1228030     0.4522780
  C        3.3225700     1.1193260    -0.4456390
  C        4.0230520    -0.0023100     0.0044540
  H       -0.4460470    -1.9780880    -0.8418930
  H       -0.4465600     1.9841010     0.8290070
  H       -2.9173870    -1.9815130    -0.8295580
  H       -2.9177760     1.9946350     0.7979050
  H        1.3786050    -1.9834820     0.8303220
  H        1.3846280     1.9832890    -0.8299950
  H       -5.0201092     1.0174055    -0.1165192
  H       -5.0122110    -0.6453700    -0.7711930
  H       -4.9781370    -0.3905110     0.9770230
  H        3.8582660    -1.9961250     0.8126670
  H        3.8641780     1.9916920    -0.8044220
  H        5.1104020    -0.0032360     0.0061230
units angstrom
no_reorient  #important for SAPT in psi4, default
symmetry c1  #important for SAPT in psi4, default
}

set PROPERTIES_ORIGIN ["COM"]
properties('MP2/aug-cc-pvtz', properties = ['dipole'])
--------------------------------------------------------------------------

    Molecular point group: c1
  Charge       = 0
  Multiplicity = 1
  Basis Set: AUG-CC-PVTZ
    Blend: AUG-CC-PVTZ
  Basis Set: (AUG-CC-PVTZ AUX)
    Blend: AUG-CC-PVTZ-JKFIT

    Orbital Energies [Eh]
    ---------------------

    Doubly Occupied:

       1A    -11.244979     2A    -11.242759     3A    -11.241274
       4A    -11.237188     5A    -11.236941     6A    -11.235366
       7A    -11.235232     8A    -11.234547     9A    -11.234369
      10A    -11.234145    11A    -11.232196    12A    -11.232092
      13A    -11.227914    14A     -1.168074    15A     -1.141342
      16A     -1.065116    17A     -1.016873    18A     -1.008748
      19A     -1.003804    20A     -0.927848    21A     -0.840807
      22A     -0.832638    23A     -0.811521    24A     -0.779434
      25A     -0.711856    26A     -0.666076    27A     -0.645742
      28A     -0.641945    29A     -0.613803    30A     -0.613331
      31A     -0.587758    32A     -0.580167    33A     -0.575815
      34A     -0.570688    35A     -0.539254    36A     -0.512738
      37A     -0.508457    38A     -0.497859    39A     -0.481829
      40A     -0.480778    41A     -0.479234    42A     -0.359104
      43A     -0.337539    44A     -0.335840    45A     -0.296141

  @DF-RHF Final Energy:  -499.44950456753241

   => Energetics <=

    Nuclear Repulsion Energy =            687.2501744374993677
    One-Electron Energy =               -2037.9970384985263081
    Two-Electron Energy =                 851.2973594934944686
    Total Energy =                       -499.4495045675323581
  Basis Set: (AUG-CC-PVTZ AUX)
    Blend: AUG-CC-PVTZ-RI
    Molecular point group: c1

    Geometry (in Angstrom), charge = 0, multiplicity = 1:

       Center              X                  Y                   Z               Mass
    ------------   -----------------  -----------------  -----------------  -----------------
         C           -0.302550650737     0.000637353741    -0.001015808510    12.000000000000
         C            1.174468349263    -0.000150646259     0.000456191490    12.000000000000
         C           -3.136983650737     0.005363353741    -0.013338808510    12.000000000000
         C           -1.021761650737    -1.114258646259    -0.458308808510    12.000000000000
         C           -1.021975650737     1.118587353741     0.448366191490    12.000000000000
         C           -2.415767650737    -1.110113646259    -0.458419808510    12.000000000000
         C           -2.415941650737     1.117064353741     0.441372191490    12.000000000000
         C            1.888087349263    -1.121204646259     0.453287191490    12.000000000000
         C            1.891374349263     1.119655353741    -0.450210808510    12.000000000000
         C           -4.643043650737    -0.008139646259     0.020201191490    12.000000000000
         C            3.283103349263    -1.123064646259     0.452658191490    12.000000000000
         C            3.286404349263     1.119064353741    -0.445258808510    12.000000000000
         C            3.986886349263    -0.002571646259     0.004834191490    12.000000000000
         H           -0.482212650737    -1.978349646259    -0.841512808510     1.007825032230
         H           -0.482725650737     1.983839353741     0.829387191490     1.007825032230
         H           -2.953552650737    -1.981774646259    -0.829177808510     1.007825032230
         H           -2.953941650737     1.994373353741     0.798285191490     1.007825032230
         H            1.342439349263    -1.983743646259     0.830702191490     1.007825032230
         H            1.348462349263     1.983027353741    -0.829614808510     1.007825032230
         H           -5.056274850737     1.017143853741    -0.116139008510     1.007825032230
         H           -5.048376650737    -0.645631646259    -0.770812808510     1.007825032230
         H           -5.014302650737    -0.390772646259     0.977403191490     1.007825032230
         H            3.822100349263    -1.996386646259     0.813047191490     1.007825032230
         H            3.828012349263     1.991430353741    -0.804041808510     1.007825032230
         H            5.074236349263    -0.003497646259     0.006503191490     1.007825032230

  Basis Set: AUG-CC-PVTZ
    Blend: AUG-CC-PVTZ
  Basis Set: (AUG-CC-PVTZ AUX)
    Blend: AUG-CC-PVTZ-JKFIT
	 Reference Energy          =    -499.4495045675324150 [Eh]
	 Singles Energy            =      -0.0000000000000000 [Eh]
	 Same-Spin Energy          =      -0.5653798423024818 [Eh]
	 Opposite-Spin Energy      =      -1.7797395701765535 [Eh]
	 Correlation Energy        =      -2.3451194124790353 [Eh]
	 Total Energy              =    -501.7946239800114654 [Eh]

	 ================> DF-SCS-MP2 Energies <==================
	-----------------------------------------------------------
	 SCS Same-Spin Scale       =       0.3333333333333333 [-]
	 SCS Opposite-Spin Scale   =       1.2000000000000000 [-]
	 SCS Same-Spin Energy      =      -0.1884599474341606 [Eh]
	 SCS Opposite-Spin Energy  =      -2.1356874842118643 [Eh]
	 SCS Correlation Energy    =      -2.3241474316460247 [Eh]
	 SCS Total Energy          =    -501.7736519991784121 [Eh]
	-----------------------------------------------------------

  Dipole Moment: [D]
     X:    -0.4743      Y:    -0.0215      Z:     0.0375     Total:     0.4763

*** Psi4 exiting successfully. Buy a developer a beer!
