                               Psi4 1.4a3.dev225

  ==> Input File <==

--------------------------------------------------------------------------
#psi4
#
memory 32 gb

molecule  {
0 1
  C       -0.2663850     0.0008990    -0.0013960
  C        1.2106340     0.0001110     0.0000760
  C       -3.1008180     0.0056250    -0.0137190
  C       -0.9855960    -1.1139970    -0.4586890
  C       -0.9858100     1.1188490     0.4479860
  C       -2.3796020    -1.1098520    -0.4588000
  C       -2.3797760     1.1173260     0.4409920
  C        1.9242530    -1.1209430     0.4529070
  C        1.9275400     1.1199170    -0.4505910
  C       -4.6068780    -0.0078780     0.0198210
  C        3.3192690    -1.1228030     0.4522780
  C        3.3225700     1.1193260    -0.4456390
  C        3.9726706    -0.0825222     0.0365122
  H       -0.4460470    -1.9780880    -0.8418930
  H       -0.4465600     1.9841010     0.8290070
  H       -2.9173870    -1.9815130    -0.8295580
  H       -2.9177760     1.9946350     0.7979050
  H        1.3786050    -1.9834820     0.8303220
  H        1.3846280     1.9832890    -0.8299950
  H       -5.0126890     0.9989950    -0.1140710
  H       -5.0122110    -0.6453700    -0.7711930
  H       -4.9781370    -0.3905110     0.9770230
  H        3.8582660    -1.9961250     0.8126670
  H        3.8641780     1.9916920    -0.8044220
  H        5.1104020    -0.0032360     0.0061230
units angstrom
no_reorient  #important for SAPT in psi4, default
symmetry c1  #important for SAPT in psi4, default
}

set PROPERTIES_ORIGIN ["COM"]
properties('MP2/aug-cc-pvtz', properties = ['dipole'])
--------------------------------------------------------------------------

    Molecular point group: c1
  Charge       = 0
  Multiplicity = 1
  Basis Set: AUG-CC-PVTZ
    Blend: AUG-CC-PVTZ
  Basis Set: (AUG-CC-PVTZ AUX)
    Blend: AUG-CC-PVTZ-JKFIT

    Orbital Energies [Eh]
    ---------------------

    Doubly Occupied:

       1A    -11.244032     2A    -11.242301     3A    -11.241626
       4A    -11.241008     5A    -11.235077     6A    -11.234809
       7A    -11.234751     8A    -11.234539     9A    -11.232761
      10A    -11.231938    11A    -11.231759    12A    -11.225334
      13A    -11.223936    14A     -1.170147    15A     -1.144991
      16A     -1.068130    17A     -1.020934    18A     -1.011256
      19A     -1.000554    20A     -0.928422    21A     -0.843807
      22A     -0.829811    23A     -0.811869    24A     -0.778395
      25A     -0.712553    26A     -0.659945    27A     -0.646963
      28A     -0.641895    29A     -0.617468    30A     -0.614879
      31A     -0.590684    32A     -0.581400    33A     -0.576125
      34A     -0.564399    35A     -0.541431    36A     -0.513354
      37A     -0.509837    38A     -0.496250    39A     -0.483687
      40A     -0.481534    41A     -0.470516    42A     -0.364676
      43A     -0.337431    44A     -0.335756    45A     -0.296047

  @DF-RHF Final Energy:  -499.43655857120393

   => Energetics <=

    Nuclear Repulsion Energy =            688.4162485364685153
    One-Electron Energy =               -2040.3075864186282615
    Two-Electron Energy =                 852.4547793109559279
    Total Energy =                       -499.4365585712039319
  Basis Set: (AUG-CC-PVTZ AUX)
    Blend: AUG-CC-PVTZ-RI
    Molecular point group: c1

    Geometry (in Angstrom), charge = 0, multiplicity = 1:

       Center              X                  Y                   Z               Mass
    ------------   -----------------  -----------------  -----------------  -----------------
         C           -0.298998478199     0.006473978154    -0.003319079220    12.000000000000
         C            1.178020521801     0.005685978154    -0.001847079220    12.000000000000
         C           -3.133431478199     0.011199978154    -0.015642079220    12.000000000000
         C           -1.018209478199    -1.108422021846    -0.460612079220    12.000000000000
         C           -1.018423478199     1.124423978154     0.446062920780    12.000000000000
         C           -2.412215478199    -1.104277021846    -0.460723079220    12.000000000000
         C           -2.412389478199     1.122900978154     0.439068920780    12.000000000000
         C            1.891639521801    -1.115368021846     0.450983920780    12.000000000000
         C            1.894926521801     1.125491978154    -0.452514079220    12.000000000000
         C           -4.639491478199    -0.002303021846     0.017897920780    12.000000000000
         C            3.286655521801    -1.117228021846     0.450354920780    12.000000000000
         C            3.289956521801     1.124900978154    -0.447562079220    12.000000000000
         C            3.940057121801    -0.076947221846     0.034589120780    12.000000000000
         H           -0.478660478199    -1.972513021846    -0.843816079220     1.007825032230
         H           -0.479173478199     1.989675978154     0.827083920780     1.007825032230
         H           -2.950000478199    -1.975938021846    -0.831481079220     1.007825032230
         H           -2.950389478199     2.000209978154     0.795981920780     1.007825032230
         H            1.345991521801    -1.977907021846     0.828398920780     1.007825032230
         H            1.352014521801     1.988863978154    -0.831918079220     1.007825032230
         H           -5.045302478199     1.004569978154    -0.115994079220     1.007825032230
         H           -5.044824478199    -0.639795021846    -0.773116079220     1.007825032230
         H           -5.010750478199    -0.384936021846     0.975099920780     1.007825032230
         H            3.825652521801    -1.990550021846     0.810743920780     1.007825032230
         H            3.831564521801     1.997266978154    -0.806345079220     1.007825032230
         H            5.077788521801     0.002338978154     0.004199920780     1.007825032230

  Basis Set: AUG-CC-PVTZ
    Blend: AUG-CC-PVTZ
  Basis Set: (AUG-CC-PVTZ AUX)
    Blend: AUG-CC-PVTZ-JKFIT
	 Reference Energy          =    -499.4365585712039319 [Eh]
	 Singles Energy            =      -0.0000000000000000 [Eh]
	 Same-Spin Energy          =      -0.5652672098434298 [Eh]
	 Opposite-Spin Energy      =      -1.7799213961332692 [Eh]
	 Correlation Energy        =      -2.3451886059766989 [Eh]
	 Total Energy              =    -501.7817471771806481 [Eh]

	 ================> DF-SCS-MP2 Energies <==================
	-----------------------------------------------------------
	 SCS Same-Spin Scale       =       0.3333333333333333 [-]
	 SCS Opposite-Spin Scale   =       1.2000000000000000 [-]
	 SCS Same-Spin Energy      =      -0.1884224032811433 [Eh]
	 SCS Opposite-Spin Energy  =      -2.1359056753599228 [Eh]
	 SCS Correlation Energy    =      -2.3243280786410661 [Eh]
	 SCS Total Energy          =    -501.7608866498450197 [Eh]
	-----------------------------------------------------------

  Dipole Moment: [D]
     X:    -0.4953      Y:     0.0041      Z:     0.0309     Total:     0.4963

*** Psi4 exiting successfully. Buy a developer a beer!
