                               Psi4 1.4a3.dev225

  ==> Input File <==

--------------------------------------------------------------------------
#psi4
#
memory 32 gb

molecule  {
0 1
  C       -0.2663850     0.0008990    -0.0013960
  C        1.2106340     0.0001110     0.0000760
  C       -3.1008180     0.0056250    -0.0137190
  C       -0.9855960    -1.1139970    -0.4586890
  C       -0.9858100     1.1188490     0.4479860
  C       -2.3796020    -1.1098520    -0.4588000
  C       -2.3797760     1.1173260     0.4409920
  C        1.9242530    -1.1209430     0.4529070
  C        1.9275400     1.1199170    -0.4505910
  C       -4.6068780    -0.0078780     0.0198210
  C        3.3192690    -1.1228030     0.4522780
  C        3.3225700     1.1193260    -0.4456390
  C        4.0230520    -0.0023100     0.0044540
  H       -0.4460470    -1.9780880    -0.8418930
  H       -0.4465600     1.9841010     0.8290070
  H       -2.9173870    -1.9815130    -0.8295580
  H       -2.9177760     1.9946350     0.7979050
  H        1.3786050    -1.9834820     0.8303220
  H        1.3846280     1.9832890    -0.8299950
  H       -5.0312395     1.0450213    -0.1201915
  H       -5.0122110    -0.6453700    -0.7711930
  H       -4.9781370    -0.3905110     0.9770230
  H        3.8582660    -1.9961250     0.8126670
  H        3.8641780     1.9916920    -0.8044220
  H        5.1104020    -0.0032360     0.0061230
units angstrom
no_reorient  #important for SAPT in psi4, default
symmetry c1  #important for SAPT in psi4, default
}

set PROPERTIES_ORIGIN ["COM"]
properties('MP2/aug-cc-pvtz', properties = ['dipole'])
--------------------------------------------------------------------------

    Molecular point group: c1
  Charge       = 0
  Multiplicity = 1
  Basis Set: AUG-CC-PVTZ
    Blend: AUG-CC-PVTZ
  Basis Set: (AUG-CC-PVTZ AUX)
    Blend: AUG-CC-PVTZ-JKFIT

    Orbital Energies [Eh]
    ---------------------

    Doubly Occupied:

       1A    -11.245044     2A    -11.243032     3A    -11.241393
       4A    -11.237241     5A    -11.236993     6A    -11.235475
       7A    -11.235312     8A    -11.234606     9A    -11.234431
      10A    -11.234203    11A    -11.232429    12A    -11.232169
      13A    -11.231484    14A     -1.168155    15A     -1.141399
      16A     -1.064950    17A     -1.016953    18A     -1.008834
      19A     -1.003337    20A     -0.926463    21A     -0.840874
      22A     -0.832295    23A     -0.811573    24A     -0.779338
      25A     -0.711895    26A     -0.666058    27A     -0.645522
      28A     -0.641792    29A     -0.613881    30A     -0.613188
      31A     -0.587827    32A     -0.580259    33A     -0.575392
      34A     -0.570267    35A     -0.535991    36A     -0.512817
      37A     -0.508069    38A     -0.497720    39A     -0.481714
      40A     -0.480771    41A     -0.479322    42A     -0.359167
      43A     -0.337616    44A     -0.335917    45A     -0.296217

  @DF-RHF Final Energy:  -499.44790300591671

   => Energetics <=

    Nuclear Repulsion Energy =            687.1257821143919955
    One-Electron Energy =               -2037.7486032775534568
    Two-Electron Energy =                 851.1749181572447469
    Total Energy =                       -499.4479030059167144
  Basis Set: (AUG-CC-PVTZ AUX)
    Blend: AUG-CC-PVTZ-RI
    Molecular point group: c1

    Geometry (in Angstrom), charge = 0, multiplicity = 1:

       Center              X                  Y                   Z               Mass
    ------------   -----------------  -----------------  -----------------  -----------------
         C           -0.302483917828     0.000471780246    -0.000993790841    12.000000000000
         C            1.174535082172    -0.000316219754     0.000478209159    12.000000000000
         C           -3.136916917828     0.005197780246    -0.013316790841    12.000000000000
         C           -1.021694917828    -1.114424219754    -0.458286790841    12.000000000000
         C           -1.021908917828     1.118421780246     0.448388209159    12.000000000000
         C           -2.415700917828    -1.110279219754    -0.458397790841    12.000000000000
         C           -2.415874917828     1.116898780246     0.441394209159    12.000000000000
         C            1.888154082172    -1.121370219754     0.453309209159    12.000000000000
         C            1.891441082172     1.119489780246    -0.450188790841    12.000000000000
         C           -4.642976917828    -0.008305219754     0.020223209159    12.000000000000
         C            3.283170082172    -1.123230219754     0.452680209159    12.000000000000
         C            3.286471082172     1.118898780246    -0.445236790841    12.000000000000
         C            3.986953082172    -0.002737219754     0.004856209159    12.000000000000
         H           -0.482145917828    -1.978515219754    -0.841490790841     1.007825032230
         H           -0.482658917828     1.983673780246     0.829409209159     1.007825032230
         H           -2.953485917828    -1.981940219754    -0.829155790841     1.007825032230
         H           -2.953874917828     1.994207780246     0.798307209159     1.007825032230
         H            1.342506082172    -1.983909219754     0.830724209159     1.007825032230
         H            1.348529082172     1.982861780246    -0.829592790841     1.007825032230
         H           -5.067338417828     1.044594080246    -0.119789290841     1.007825032230
         H           -5.048309917828    -0.645797219754    -0.770790790841     1.007825032230
         H           -5.014235917828    -0.390938219754     0.977425209159     1.007825032230
         H            3.822167082172    -1.996552219754     0.813069209159     1.007825032230
         H            3.828079082172     1.991264780246    -0.804019790841     1.007825032230
         H            5.074303082172    -0.003663219754     0.006525209159     1.007825032230

  Basis Set: AUG-CC-PVTZ
    Blend: AUG-CC-PVTZ
  Basis Set: (AUG-CC-PVTZ AUX)
    Blend: AUG-CC-PVTZ-JKFIT
	 Reference Energy          =    -499.4479030059167144 [Eh]
	 Singles Energy            =      -0.0000000000000000 [Eh]
	 Same-Spin Energy          =      -0.5653853885896656 [Eh]
	 Opposite-Spin Energy      =      -1.7799558699579912 [Eh]
	 Correlation Energy        =      -2.3453412585476565 [Eh]
	 Total Energy              =    -501.7932442644643629 [Eh]

	 ================> DF-SCS-MP2 Energies <==================
	-----------------------------------------------------------
	 SCS Same-Spin Scale       =       0.3333333333333333 [-]
	 SCS Opposite-Spin Scale   =       1.2000000000000000 [-]
	 SCS Same-Spin Energy      =      -0.1884617961965552 [Eh]
	 SCS Opposite-Spin Energy  =      -2.1359470439495891 [Eh]
	 SCS Correlation Energy    =      -2.3244088401461442 [Eh]
	 SCS Total Energy          =    -501.7723118460628484 [Eh]
	-----------------------------------------------------------

  Dipole Moment: [D]
     X:    -0.4578      Y:    -0.0339      Z:     0.0388     Total:     0.4607

*** Psi4 exiting successfully. Buy a developer a beer!
