                               Psi4 1.4a3.dev225

  ==> Input File <==

--------------------------------------------------------------------------
#psi4
#
memory 32 gb

molecule  {
0 1
  C       -0.1444141    -0.0731718    -0.0362314
  C        1.2106340     0.0001110     0.0000760
  C       -3.1008180     0.0056250    -0.0137190
  C       -0.9855960    -1.1139970    -0.4586890
  C       -0.9858100     1.1188490     0.4479860
  C       -2.3796020    -1.1098520    -0.4588000
  C       -2.3797760     1.1173260     0.4409920
  C        1.9242530    -1.1209430     0.4529070
  C        1.9275400     1.1199170    -0.4505910
  C       -4.6068780    -0.0078780     0.0198210
  C        3.3192690    -1.1228030     0.4522780
  C        3.3225700     1.1193260    -0.4456390
  C        4.0230520    -0.0023100     0.0044540
  H       -0.4460470    -1.9780880    -0.8418930
  H       -0.4465600     1.9841010     0.8290070
  H       -2.9173870    -1.9815130    -0.8295580
  H       -2.9177760     1.9946350     0.7979050
  H        1.3786050    -1.9834820     0.8303220
  H        1.3846280     1.9832890    -0.8299950
  H       -5.0126890     0.9989950    -0.1140710
  H       -5.0122110    -0.6453700    -0.7711930
  H       -4.9781370    -0.3905110     0.9770230
  H        3.8582660    -1.9961250     0.8126670
  H        3.8641780     1.9916920    -0.8044220
  H        5.1104020    -0.0032360     0.0061230
units angstrom
no_reorient  #important for SAPT in psi4, default
symmetry c1  #important for SAPT in psi4, default
}

set PROPERTIES_ORIGIN ["COM"]
properties('MP2/aug-cc-pvtz', properties = ['dipole'])
--------------------------------------------------------------------------

    Molecular point group: c1
  Charge       = 0
  Multiplicity = 1
  Basis Set: AUG-CC-PVTZ
    Blend: AUG-CC-PVTZ
  Basis Set: (AUG-CC-PVTZ AUX)
    Blend: AUG-CC-PVTZ-JKFIT

    Orbital Energies [Eh]
    ---------------------

    Doubly Occupied:

       1A    -11.247349     2A    -11.245800     3A    -11.244264
       4A    -11.239236     5A    -11.238683     6A    -11.238130
       7A    -11.237266     8A    -11.236365     9A    -11.236269
      10A    -11.235339    11A    -11.232095    12A    -11.231340
      13A    -11.225923    14A     -1.172351    15A     -1.137339
      16A     -1.074320    17A     -1.017297    18A     -1.008216
      19A     -1.000443    20A     -0.929569    21A     -0.846108
      22A     -0.840564    23A     -0.808051    24A     -0.775172
      25A     -0.715843    26A     -0.669769    27A     -0.649674
      28A     -0.643018    29A     -0.615075    30A     -0.611891
      31A     -0.587754    32A     -0.583043    33A     -0.576280
      34A     -0.569454    35A     -0.540376    36A     -0.513234
      37A     -0.510642    38A     -0.499769    39A     -0.497899
      40A     -0.474438    41A     -0.458987    42A     -0.365012
      43A     -0.338829    44A     -0.334774    45A     -0.283482

  @DF-RHF Final Energy:  -499.41959828291141

   => Energetics <=

    Nuclear Repulsion Energy =            687.3344910675197070
    One-Electron Energy =               -2038.0347168973007683
    Two-Electron Energy =                 851.2806275468697095
    Total Energy =                       -499.4195982829114655
  Basis Set: (AUG-CC-PVTZ AUX)
    Blend: AUG-CC-PVTZ-RI
    Molecular point group: c1

    Geometry (in Angstrom), charge = 0, multiplicity = 1:

       Center              X                  Y                   Z               Mass
    ------------   -----------------  -----------------  -----------------  -----------------
         C           -0.189331579684    -0.068035248224    -0.033379034078    12.000000000000
         C            1.165716520316     0.005247551776     0.002928365922    12.000000000000
         C           -3.145735479684     0.010761551776    -0.010866634078    12.000000000000
         C           -1.030513479684    -1.108860448224    -0.455836634078    12.000000000000
         C           -1.030727479684     1.123985551776     0.450838365922    12.000000000000
         C           -2.424519479684    -1.104715448224    -0.455947634078    12.000000000000
         C           -2.424693479684     1.122462551776     0.443844365922    12.000000000000
         C            1.879335520316    -1.115806448224     0.455759365922    12.000000000000
         C            1.882622520316     1.125053551776    -0.447738634078    12.000000000000
         C           -4.651795479684    -0.002741448224     0.022673365922    12.000000000000
         C            3.274351520316    -1.117666448224     0.455130365922    12.000000000000
         C            3.277652520316     1.124462551776    -0.442786634078    12.000000000000
         C            3.978134520316     0.002826551776     0.007306365922    12.000000000000
         H           -0.490964479684    -1.972951448224    -0.839040634078     1.007825032230
         H           -0.491477479684     1.989237551776     0.831859365922     1.007825032230
         H           -2.962304479684    -1.976376448224    -0.826705634078     1.007825032230
         H           -2.962693479684     1.999771551776     0.800757365922     1.007825032230
         H            1.333687520316    -1.978345448224     0.833174365922     1.007825032230
         H            1.339710520316     1.988425551776    -0.827142634078     1.007825032230
         H           -5.057606479684     1.004131551776    -0.111218634078     1.007825032230
         H           -5.057128479684    -0.640233448224    -0.768340634078     1.007825032230
         H           -5.023054479684    -0.385374448224     0.979875365922     1.007825032230
         H            3.813348520316    -1.990988448224     0.815519365922     1.007825032230
         H            3.819260520316     1.996828551776    -0.801569634078     1.007825032230
         H            5.065484520316     0.001900551776     0.008975365922     1.007825032230

  Basis Set: AUG-CC-PVTZ
    Blend: AUG-CC-PVTZ
  Basis Set: (AUG-CC-PVTZ AUX)
    Blend: AUG-CC-PVTZ-JKFIT
	 Reference Energy          =    -499.4195982829114087 [Eh]
	 Singles Energy            =      -0.0000000000000000 [Eh]
	 Same-Spin Energy          =      -0.5677818558483645 [Eh]
	 Opposite-Spin Energy      =      -1.7841083034190350 [Eh]
	 Correlation Energy        =      -2.3518901592673993 [Eh]
	 Total Energy              =    -501.7714884421787929 [Eh]

	 ================> DF-SCS-MP2 Energies <==================
	-----------------------------------------------------------
	 SCS Same-Spin Scale       =       0.3333333333333333 [-]
	 SCS Opposite-Spin Scale   =       1.2000000000000000 [-]
	 SCS Same-Spin Energy      =      -0.1892606186161215 [Eh]
	 SCS Opposite-Spin Energy  =      -2.1409299641028419 [Eh]
	 SCS Correlation Energy    =      -2.3301905827189633 [Eh]
	 SCS Total Energy          =    -501.7497888656303644 [Eh]
	-----------------------------------------------------------

  Dipole Moment: [D]
     X:    -0.3089      Y:    -0.0017      Z:     0.0369     Total:     0.3110

*** Psi4 exiting successfully. Buy a developer a beer!
