                               Psi4 1.4a3.dev225

  ==> Input File <==

--------------------------------------------------------------------------
#psi4
#
memory 32 gb

molecule  {
0 1
  C       -0.2663850     0.0008990    -0.0013960
  C        1.2106340     0.0001110     0.0000760
  C       -3.1008180     0.0056250    -0.0137190
  C       -0.9855960    -1.1139970    -0.4586890
  C       -0.9858100     1.1188490     0.4479860
  C       -2.3796020    -1.1098520    -0.4588000
  C       -2.4312456     1.0379702     0.4085337
  C        1.9242530    -1.1209430     0.4529070
  C        1.9275400     1.1199170    -0.4505910
  C       -4.6068780    -0.0078780     0.0198210
  C        3.3192690    -1.1228030     0.4522780
  C        3.3225700     1.1193260    -0.4456390
  C        4.0230520    -0.0023100     0.0044540
  H       -0.4460470    -1.9780880    -0.8418930
  H       -0.4465600     1.9841010     0.8290070
  H       -2.9173870    -1.9815130    -0.8295580
  H       -2.9177760     1.9946350     0.7979050
  H        1.3786050    -1.9834820     0.8303220
  H        1.3846280     1.9832890    -0.8299950
  H       -5.0126890     0.9989950    -0.1140710
  H       -5.0122110    -0.6453700    -0.7711930
  H       -4.9781370    -0.3905110     0.9770230
  H        3.8582660    -1.9961250     0.8126670
  H        3.8641780     1.9916920    -0.8044220
  H        5.1104020    -0.0032360     0.0061230
units angstrom
no_reorient  #important for SAPT in psi4, default
symmetry c1  #important for SAPT in psi4, default
}

set PROPERTIES_ORIGIN ["COM"]
properties('MP2/aug-cc-pvtz', properties = ['dipole'])
--------------------------------------------------------------------------

    Molecular point group: c1
  Charge       = 0
  Multiplicity = 1
  Basis Set: AUG-CC-PVTZ
    Blend: AUG-CC-PVTZ
  Basis Set: (AUG-CC-PVTZ AUX)
    Blend: AUG-CC-PVTZ-JKFIT

    Orbital Energies [Eh]
    ---------------------

    Doubly Occupied:

       1A    -11.245069     2A    -11.241906     3A    -11.239603
       4A    -11.237635     5A    -11.237376     6A    -11.235061
       7A    -11.235058     8A    -11.234881     9A    -11.234645
      10A    -11.233684    11A    -11.230647    12A    -11.228603
      13A    -11.224192    14A     -1.171257    15A     -1.146161
      16A     -1.071743    17A     -1.015660    18A     -1.007911
      19A     -0.999482    20A     -0.931580    21A     -0.845923
      22A     -0.833751    23A     -0.814031    24A     -0.775768
      25A     -0.710794    26A     -0.665750    27A     -0.648784
      28A     -0.641668    29A     -0.615210    30A     -0.611310
      31A     -0.586805    32A     -0.578383    33A     -0.574457
      34A     -0.573616    35A     -0.536938    36A     -0.514702
      37A     -0.509214    38A     -0.500405    39A     -0.485943
      40A     -0.482922    41A     -0.467382    42A     -0.365425
      43A     -0.337274    44A     -0.331176    45A     -0.301584

  @DF-RHF Final Energy:  -499.43682547949550

   => Energetics <=

    Nuclear Repulsion Energy =            688.3024871313318727
    One-Electron Energy =               -2040.0558862986222266
    Two-Electron Energy =                 852.3165736877948575
    Total Energy =                       -499.4368254794954964
  Basis Set: (AUG-CC-PVTZ AUX)
    Blend: AUG-CC-PVTZ-RI
    Molecular point group: c1

    Geometry (in Angstrom), charge = 0, multiplicity = 1:

       Center              X                  Y                   Z               Mass
    ------------   -----------------  -----------------  -----------------  -----------------
         C           -0.298920793048     0.006412840897     0.001286667914    12.000000000000
         C            1.178098206952     0.005624840897     0.002758667914    12.000000000000
         C           -3.133353793048     0.011138840897    -0.011036332086    12.000000000000
         C           -1.018131793048    -1.108483159103    -0.456006332086    12.000000000000
         C           -1.018345793048     1.124362840897     0.450668667914    12.000000000000
         C           -2.412137793048    -1.104338159103    -0.456117332086    12.000000000000
         C           -2.463781393048     1.043484040897     0.411216367914    12.000000000000
         C            1.891717206952    -1.115429159103     0.455589667914    12.000000000000
         C            1.895004206952     1.125430840897    -0.447908332086    12.000000000000
         C           -4.639413793048    -0.002364159103     0.022503667914    12.000000000000
         C            3.286733206952    -1.117289159103     0.454960667914    12.000000000000
         C            3.290034206952     1.124839840897    -0.442956332086    12.000000000000
         C            3.990516206952     0.003203840897     0.007136667914    12.000000000000
         H           -0.478582793048    -1.972574159103    -0.839210332086     1.007825032230
         H           -0.479095793048     1.989614840897     0.831689667914     1.007825032230
         H           -2.949922793048    -1.975999159103    -0.826875332086     1.007825032230
         H           -2.950311793048     2.000148840897     0.800587667914     1.007825032230
         H            1.346069206952    -1.977968159103     0.833004667914     1.007825032230
         H            1.352092206952     1.988802840897    -0.827312332086     1.007825032230
         H           -5.045224793048     1.004508840897    -0.111388332086     1.007825032230
         H           -5.044746793048    -0.639856159103    -0.768510332086     1.007825032230
         H           -5.010672793048    -0.384997159103     0.979705667914     1.007825032230
         H            3.825730206952    -1.990611159103     0.815349667914     1.007825032230
         H            3.831642206952     1.997205840897    -0.801739332086     1.007825032230
         H            5.077866206952     0.002277840897     0.008805667914     1.007825032230

  Basis Set: AUG-CC-PVTZ
    Blend: AUG-CC-PVTZ
  Basis Set: (AUG-CC-PVTZ AUX)
    Blend: AUG-CC-PVTZ-JKFIT
	 Reference Energy          =    -499.4368254794954964 [Eh]
	 Singles Energy            =      -0.0000000000000000 [Eh]
	 Same-Spin Energy          =      -0.5652349397227525 [Eh]
	 Opposite-Spin Energy      =      -1.7800097698928339 [Eh]
	 Correlation Energy        =      -2.3452447096155864 [Eh]
	 Total Energy              =    -501.7820701891110957 [Eh]

	 ================> DF-SCS-MP2 Energies <==================
	-----------------------------------------------------------
	 SCS Same-Spin Scale       =       0.3333333333333333 [-]
	 SCS Opposite-Spin Scale   =       1.2000000000000000 [-]
	 SCS Same-Spin Energy      =      -0.1884116465742508 [Eh]
	 SCS Opposite-Spin Energy  =      -2.1360117238714005 [Eh]
	 SCS Correlation Energy    =      -2.3244233704456514 [Eh]
	 SCS Total Energy          =    -501.7612488499411256 [Eh]
	-----------------------------------------------------------

  Dipole Moment: [D]
     X:    -0.3937      Y:    -0.0397      Z:     0.0254     Total:     0.3965

*** Psi4 exiting successfully. Buy a developer a beer!
