                               Psi4 1.4a3.dev225

  ==> Input File <==

--------------------------------------------------------------------------
#psi4
#
memory 32 gb

molecule  {
0 1
  C       -0.2663850     0.0008990    -0.0013960
  C        1.2106340     0.0001110     0.0000760
  C       -3.1008180     0.0056250    -0.0137190
  C       -0.9855960    -1.1139970    -0.4586890
  C       -0.9858100     1.1188490     0.4479860
  C       -2.3796020    -1.1098520    -0.4588000
  C       -2.3797760     1.1173260     0.4409920
  C        1.9242530    -1.1209430     0.4529070
  C        1.9275400     1.1199170    -0.4505910
  C       -4.6068780    -0.0078780     0.0198210
  C        3.3618098    -1.1449048     0.4611787
  C        3.3225700     1.1193260    -0.4456390
  C        4.0230520    -0.0023100     0.0044540
  H       -0.4460470    -1.9780880    -0.8418930
  H       -0.4465600     1.9841010     0.8290070
  H       -2.9173870    -1.9815130    -0.8295580
  H       -2.9177760     1.9946350     0.7979050
  H        1.3786050    -1.9834820     0.8303220
  H        1.3846280     1.9832890    -0.8299950
  H       -5.0126890     0.9989950    -0.1140710
  H       -5.0122110    -0.6453700    -0.7711930
  H       -4.9781370    -0.3905110     0.9770230
  H        3.8582660    -1.9961250     0.8126670
  H        3.8641780     1.9916920    -0.8044220
  H        5.1104020    -0.0032360     0.0061230
units angstrom
no_reorient  #important for SAPT in psi4, default
symmetry c1  #important for SAPT in psi4, default
}

set PROPERTIES_ORIGIN ["COM"]
properties('MP2/aug-cc-pvtz', properties = ['dipole'])
--------------------------------------------------------------------------

    Molecular point group: c1
  Charge       = 0
  Multiplicity = 1
  Basis Set: AUG-CC-PVTZ
    Blend: AUG-CC-PVTZ
  Basis Set: (AUG-CC-PVTZ AUX)
    Blend: AUG-CC-PVTZ-JKFIT

    Orbital Energies [Eh]
    ---------------------

    Doubly Occupied:

       1A    -11.244870     2A    -11.242465     3A    -11.241278
       4A    -11.239360     5A    -11.238038     6A    -11.237326
       7A    -11.235551     8A    -11.235232     9A    -11.235083
      10A    -11.235018    11A    -11.232022    12A    -11.231890
      13A    -11.225421    14A     -1.166704    15A     -1.139075
      16A     -1.065173    17A     -1.015260    18A     -1.007419
      19A     -1.003804    20A     -0.928316    21A     -0.842677
      22A     -0.830870    23A     -0.813394    24A     -0.779685
      25A     -0.712489    26A     -0.665352    27A     -0.645084
      28A     -0.644847    29A     -0.618383    30A     -0.611724
      31A     -0.587853    32A     -0.580631    33A     -0.576397
      34A     -0.569624    35A     -0.541257    36A     -0.510395
      37A     -0.506573    38A     -0.501903    39A     -0.481271
      40A     -0.480804    41A     -0.477938    42A     -0.359902
      43A     -0.336668    44A     -0.332263    45A     -0.296685

  @DF-RHF Final Energy:  -499.44651492457530

   => Energetics <=

    Nuclear Repulsion Energy =            686.4423730632620391
    One-Electron Energy =               -2036.3698262435834749
    Two-Electron Energy =                 850.4809382557461959
    Total Energy =                       -499.4465149245752400
  Basis Set: (AUG-CC-PVTZ AUX)
    Blend: AUG-CC-PVTZ-RI
    Molecular point group: c1

    Geometry (in Angstrom), charge = 0, multiplicity = 1:

       Center              X                  Y                   Z               Mass
    ------------   -----------------  -----------------  -----------------  -----------------
         C           -0.305632070480     0.002325553980    -0.001665896092    12.000000000000
         C            1.171386929520     0.001537553980    -0.000193896092    12.000000000000
         C           -3.140065070480     0.007051553980    -0.013988896092    12.000000000000
         C           -1.024843070480    -1.112570446020    -0.458958896092    12.000000000000
         C           -1.025057070480     1.120275553980     0.447716103908    12.000000000000
         C           -2.418849070480    -1.108425446020    -0.459069896092    12.000000000000
         C           -2.419023070480     1.118752553980     0.440722103908    12.000000000000
         C            1.885005929520    -1.119516446020     0.452637103908    12.000000000000
         C            1.888292929520     1.121343553980    -0.450860896092    12.000000000000
         C           -4.646125070480    -0.006451446020     0.019551103908    12.000000000000
         C            3.322562729520    -1.143478246020     0.460908803908    12.000000000000
         C            3.283322929520     1.120752553980    -0.445908896092    12.000000000000
         C            3.983804929520    -0.000883446020     0.004184103908    12.000000000000
         H           -0.485294070480    -1.976661446020    -0.842162896092     1.007825032230
         H           -0.485807070480     1.985527553980     0.828737103908     1.007825032230
         H           -2.956634070480    -1.980086446020    -0.829827896092     1.007825032230
         H           -2.957023070480     1.996061553980     0.797635103908     1.007825032230
         H            1.339357929520    -1.982055446020     0.830052103908     1.007825032230
         H            1.345380929520     1.984715553980    -0.830264896092     1.007825032230
         H           -5.051936070480     1.000421553980    -0.114340896092     1.007825032230
         H           -5.051458070480    -0.643943446020    -0.771462896092     1.007825032230
         H           -5.017384070480    -0.389084446020     0.976753103908     1.007825032230
         H            3.819018929520    -1.994698446020     0.812397103908     1.007825032230
         H            3.824930929520     1.993118553980    -0.804691896092     1.007825032230
         H            5.071154929520    -0.001809446020     0.005853103908     1.007825032230

  Basis Set: AUG-CC-PVTZ
    Blend: AUG-CC-PVTZ
  Basis Set: (AUG-CC-PVTZ AUX)
    Blend: AUG-CC-PVTZ-JKFIT
	 Reference Energy          =    -499.4465149245752968 [Eh]
	 Singles Energy            =      -0.0000000000000000 [Eh]
	 Same-Spin Energy          =      -0.5653613113588423 [Eh]
	 Opposite-Spin Energy      =      -1.7800356461100058 [Eh]
	 Correlation Energy        =      -2.3453969574688482 [Eh]
	 Total Energy              =    -501.7919118820441327 [Eh]

	 ================> DF-SCS-MP2 Energies <==================
	-----------------------------------------------------------
	 SCS Same-Spin Scale       =       0.3333333333333333 [-]
	 SCS Opposite-Spin Scale   =       1.2000000000000000 [-]
	 SCS Same-Spin Energy      =      -0.1884537704529474 [Eh]
	 SCS Opposite-Spin Energy  =      -2.1360427753320068 [Eh]
	 SCS Correlation Energy    =      -2.3244965457849540 [Eh]
	 SCS Total Energy          =    -501.7710114703602358 [Eh]
	-----------------------------------------------------------

  Dipole Moment: [D]
     X:    -0.4861      Y:    -0.0286      Z:     0.0429     Total:     0.4888

*** Psi4 exiting successfully. Buy a developer a beer!
