                               Psi4 1.4a3.dev225

  ==> Input File <==

--------------------------------------------------------------------------
#psi4
#
memory 32 gb

molecule  {
0 1
  C       -0.2663850     0.0008990    -0.0013960
  C        1.2106340     0.0001110     0.0000760
  C       -3.1008180     0.0056250    -0.0137190
  C       -0.9855960    -1.1139970    -0.4586890
  C       -0.9858100     1.1188490     0.4479860
  C       -2.3796020    -1.1098520    -0.4588000
  C       -2.3797760     1.1173260     0.4409920
  C        1.9242530    -1.1209430     0.4529070
  C        1.9275400     1.1199170    -0.4505910
  C       -4.6068780    -0.0078780     0.0198210
  C        3.3192690    -1.1228030     0.4522780
  C        3.4225694     1.1192836    -0.4452840
  C        4.0230520    -0.0023100     0.0044540
  H       -0.4460470    -1.9780880    -0.8418930
  H       -0.4465600     1.9841010     0.8290070
  H       -2.9173870    -1.9815130    -0.8295580
  H       -2.9177760     1.9946350     0.7979050
  H        1.3786050    -1.9834820     0.8303220
  H        1.3846280     1.9832890    -0.8299950
  H       -5.0126890     0.9989950    -0.1140710
  H       -5.0122110    -0.6453700    -0.7711930
  H       -4.9781370    -0.3905110     0.9770230
  H        3.8582660    -1.9961250     0.8126670
  H        3.8641780     1.9916920    -0.8044220
  H        5.1104020    -0.0032360     0.0061230
units angstrom
no_reorient  #important for SAPT in psi4, default
symmetry c1  #important for SAPT in psi4, default
}

set PROPERTIES_ORIGIN ["COM"]
properties('MP2/aug-cc-pvtz', properties = ['dipole'])
--------------------------------------------------------------------------

    Molecular point group: c1
  Charge       = 0
  Multiplicity = 1
  Basis Set: AUG-CC-PVTZ
    Blend: AUG-CC-PVTZ
  Basis Set: (AUG-CC-PVTZ AUX)
    Blend: AUG-CC-PVTZ-JKFIT

    Orbital Energies [Eh]
    ---------------------

    Doubly Occupied:

       1A    -11.244714     2A    -11.243270     3A    -11.242400
       4A    -11.241143     5A    -11.237861     6A    -11.237616
       7A    -11.235998     8A    -11.235195     9A    -11.234899
      10A    -11.231987    11A    -11.231839    12A    -11.230505
      13A    -11.225383    14A     -1.166352    15A     -1.139363
      16A     -1.067446    17A     -1.014643    18A     -1.009939
      19A     -1.000067    20A     -0.928298    21A     -0.844825
      22A     -0.828207    23A     -0.815160    24A     -0.778696
      25A     -0.712519    26A     -0.665436    27A     -0.647640
      28A     -0.643963    29A     -0.622084    30A     -0.611066
      31A     -0.585631    32A     -0.580773    33A     -0.575442
      34A     -0.569048    35A     -0.541328    36A     -0.510786
      37A     -0.505611    38A     -0.503515    39A     -0.481653
      40A     -0.481261    41A     -0.472107    42A     -0.364080
      43A     -0.336528    44A     -0.327524    45A     -0.298354

  @DF-RHF Final Energy:  -499.43842189713945

   => Energetics <=

    Nuclear Repulsion Energy =            686.1065056038941066
    One-Electron Energy =               -2035.6855397854428702
    Two-Electron Energy =                 850.1406122844092579
    Total Energy =                       -499.4384218971393921
  Basis Set: (AUG-CC-PVTZ AUX)
    Blend: AUG-CC-PVTZ-RI
    Molecular point group: c1

    Geometry (in Angstrom), charge = 0, multiplicity = 1:

       Center              X                  Y                   Z               Mass
    ------------   -----------------  -----------------  -----------------  -----------------
         C           -0.309733963519     0.000750762751    -0.001055829934    12.000000000000
         C            1.167285036481    -0.000037237249     0.000416170066    12.000000000000
         C           -3.144166963519     0.005476762751    -0.013378829934    12.000000000000
         C           -1.028944963519    -1.114145237249    -0.458348829934    12.000000000000
         C           -1.029158963519     1.118700762751     0.448326170066    12.000000000000
         C           -2.422950963519    -1.110000237249    -0.458459829934    12.000000000000
         C           -2.423124963519     1.117177762751     0.441332170066    12.000000000000
         C            1.880904036481    -1.121091237249     0.453247170066    12.000000000000
         C            1.884191036481     1.119768762751    -0.450250829934    12.000000000000
         C           -4.650226963519    -0.008026237249     0.020161170066    12.000000000000
         C            3.275920036481    -1.122951237249     0.452618170066    12.000000000000
         C            3.379220436481     1.119135362751    -0.444943829934    12.000000000000
         C            3.979703036481    -0.002458237249     0.004794170066    12.000000000000
         H           -0.489395963519    -1.978236237249    -0.841552829934     1.007825032230
         H           -0.489908963519     1.983952762751     0.829347170066     1.007825032230
         H           -2.960735963519    -1.981661237249    -0.829217829934     1.007825032230
         H           -2.961124963519     1.994486762751     0.798245170066     1.007825032230
         H            1.335256036481    -1.983630237249     0.830662170066     1.007825032230
         H            1.341279036481     1.983140762751    -0.829654829934     1.007825032230
         H           -5.056037963519     0.998846762751    -0.113730829934     1.007825032230
         H           -5.055559963519    -0.645518237249    -0.770852829934     1.007825032230
         H           -5.021485963519    -0.390659237249     0.977363170066     1.007825032230
         H            3.814917036481    -1.996273237249     0.813007170066     1.007825032230
         H            3.820829036481     1.991543762751    -0.804081829934     1.007825032230
         H            5.067053036481    -0.003384237249     0.006463170066     1.007825032230

  Basis Set: AUG-CC-PVTZ
    Blend: AUG-CC-PVTZ
  Basis Set: (AUG-CC-PVTZ AUX)
    Blend: AUG-CC-PVTZ-JKFIT
	 Reference Energy          =    -499.4384218971394489 [Eh]
	 Singles Energy            =      -0.0000000000000000 [Eh]
	 Same-Spin Energy          =      -0.5651818114386632 [Eh]
	 Opposite-Spin Energy      =      -1.7804268986595639 [Eh]
	 Correlation Energy        =      -2.3456087100982272 [Eh]
	 Total Energy              =    -501.7840306072376961 [Eh]

	 ================> DF-SCS-MP2 Energies <==================
	-----------------------------------------------------------
	 SCS Same-Spin Scale       =       0.3333333333333333 [-]
	 SCS Opposite-Spin Scale   =       1.2000000000000000 [-]
	 SCS Same-Spin Energy      =      -0.1883939371462210 [Eh]
	 SCS Opposite-Spin Energy  =      -2.1365122783914767 [Eh]
	 SCS Correlation Energy    =      -2.3249062155376978 [Eh]
	 SCS Total Energy          =    -501.7633281126771294 [Eh]
	-----------------------------------------------------------

  Dipole Moment: [D]
     X:    -0.4944      Y:     0.0080      Z:     0.0266     Total:     0.4952

*** Psi4 exiting successfully. Buy a developer a beer!
