                               Psi4 1.4a3.dev225

  ==> Input File <==

--------------------------------------------------------------------------
#psi4
#
memory 32 gb

molecule  {
0 1
  C       -0.2663850     0.0008990    -0.0013960
  C        1.2106340     0.0001110     0.0000760
  C       -3.1008180     0.0056250    -0.0137190
  C       -0.9855960    -1.1139970    -0.4586890
  C       -0.9858100     1.1188490     0.4479860
  C       -2.3793244    -1.0876200    -0.4489208
  C       -2.3797760     1.1173260     0.4409920
  C        1.9242530    -1.1209430     0.4529070
  C        1.9275400     1.1199170    -0.4505910
  C       -4.6068780    -0.0078780     0.0198210
  C        3.3192690    -1.1228030     0.4522780
  C        3.3225700     1.1193260    -0.4456390
  C        4.0230520    -0.0023100     0.0044540
  H       -0.4460470    -1.9780880    -0.8418930
  H       -0.4465600     1.9841010     0.8290070
  H       -2.9173870    -1.9815130    -0.8295580
  H       -2.9177760     1.9946350     0.7979050
  H        1.3786050    -1.9834820     0.8303220
  H        1.3846280     1.9832890    -0.8299950
  H       -5.0126890     0.9989950    -0.1140710
  H       -5.0122110    -0.6453700    -0.7711930
  H       -4.9781370    -0.3905110     0.9770230
  H        3.8582660    -1.9961250     0.8126670
  H        3.8641780     1.9916920    -0.8044220
  H        5.1104020    -0.0032360     0.0061230
units angstrom
no_reorient  #important for SAPT in psi4, default
symmetry c1  #important for SAPT in psi4, default
}

set PROPERTIES_ORIGIN ["COM"]
properties('MP2/aug-cc-pvtz', properties = ['dipole'])
--------------------------------------------------------------------------

    Molecular point group: c1
  Charge       = 0
  Multiplicity = 1
  Basis Set: AUG-CC-PVTZ
    Blend: AUG-CC-PVTZ
  Basis Set: (AUG-CC-PVTZ AUX)
    Blend: AUG-CC-PVTZ-JKFIT

    Orbital Energies [Eh]
    ---------------------

    Doubly Occupied:

       1A    -11.244926     2A    -11.241298     3A    -11.240060
       4A    -11.237267     5A    -11.237017     6A    -11.235013
       7A    -11.234811     8A    -11.234640     9A    -11.234458
      10A    -11.234234    11A    -11.232296    12A    -11.231517
      13A    -11.225589    14A     -1.169007    15A     -1.142606
      16A     -1.066366    17A     -1.016656    18A     -1.008367
      19A     -1.004437    20A     -0.929532    21A     -0.840920
      22A     -0.833780    23A     -0.811650    24A     -0.779159
      25A     -0.711455    26A     -0.665955    27A     -0.646929
      28A     -0.641826    29A     -0.613824    30A     -0.612242
      31A     -0.587266    32A     -0.579020    33A     -0.576568
      34A     -0.571247    35A     -0.540405    36A     -0.513690
      37A     -0.509030    38A     -0.498169    39A     -0.482863
      40A     -0.481441    41A     -0.477257    42A     -0.360018
      43A     -0.337427    44A     -0.335648    45A     -0.297165

  @DF-RHF Final Energy:  -499.44943276725184

   => Energetics <=

    Nuclear Repulsion Energy =            687.7325072523578910
    One-Electron Energy =               -2038.9537779492693517
    Two-Electron Energy =                 851.7718379296595685
    Total Energy =                       -499.4494327672518921
  Basis Set: (AUG-CC-PVTZ AUX)
    Blend: AUG-CC-PVTZ-RI
    Molecular point group: c1

    Geometry (in Angstrom), charge = 0, multiplicity = 1:

       Center              X                  Y                   Z               Mass
    ------------   -----------------  -----------------  -----------------  -----------------
         C           -0.302614956838    -0.000839377043    -0.001735749906    12.000000000000
         C            1.174404043162    -0.001627377043    -0.000263749906    12.000000000000
         C           -3.137047956838     0.003886622957    -0.014058749906    12.000000000000
         C           -1.021825956838    -1.115735377043    -0.459028749906    12.000000000000
         C           -1.022039956838     1.117110622957     0.447646250094    12.000000000000
         C           -2.415554356838    -1.089358377043    -0.449260549906    12.000000000000
         C           -2.416005956838     1.115587622957     0.440652250094    12.000000000000
         C            1.888023043162    -1.122681377043     0.452567250094    12.000000000000
         C            1.891310043162     1.118178622957    -0.450930749906    12.000000000000
         C           -4.643107956838    -0.009616377043     0.019481250094    12.000000000000
         C            3.283039043162    -1.124541377043     0.451938250094    12.000000000000
         C            3.286340043162     1.117587622957    -0.445978749906    12.000000000000
         C            3.986822043162    -0.004048377043     0.004114250094    12.000000000000
         H           -0.482276956838    -1.979826377043    -0.842232749906     1.007825032230
         H           -0.482789956838     1.982362622957     0.828667250094     1.007825032230
         H           -2.953616956838    -1.983251377043    -0.829897749906     1.007825032230
         H           -2.954005956838     1.992896622957     0.797565250094     1.007825032230
         H            1.342375043162    -1.985220377043     0.829982250094     1.007825032230
         H            1.348398043162     1.981550622957    -0.830334749906     1.007825032230
         H           -5.048918956838     0.997256622957    -0.114410749906     1.007825032230
         H           -5.048440956838    -0.647108377043    -0.771532749906     1.007825032230
         H           -5.014366956838    -0.392249377043     0.976683250094     1.007825032230
         H            3.822036043162    -1.997863377043     0.812327250094     1.007825032230
         H            3.827948043162     1.989953622957    -0.804761749906     1.007825032230
         H            5.074172043162    -0.004974377043     0.005783250094     1.007825032230

  Basis Set: AUG-CC-PVTZ
    Blend: AUG-CC-PVTZ
  Basis Set: (AUG-CC-PVTZ AUX)
    Blend: AUG-CC-PVTZ-JKFIT
	 Reference Energy          =    -499.4494327672518352 [Eh]
	 Singles Energy            =      -0.0000000000000000 [Eh]
	 Same-Spin Energy          =      -0.5654125592288513 [Eh]
	 Opposite-Spin Energy      =      -1.7795815700149555 [Eh]
	 Correlation Energy        =      -2.3449941292438066 [Eh]
	 Total Energy              =    -501.7944268964956223 [Eh]

	 ================> DF-SCS-MP2 Energies <==================
	-----------------------------------------------------------
	 SCS Same-Spin Scale       =       0.3333333333333333 [-]
	 SCS Opposite-Spin Scale   =       1.2000000000000000 [-]
	 SCS Same-Spin Energy      =      -0.1884708530762838 [Eh]
	 SCS Opposite-Spin Energy  =      -2.1354978840179464 [Eh]
	 SCS Correlation Energy    =      -2.3239687370942299 [Eh]
	 SCS Total Energy          =    -501.7734015043460545 [Eh]
	-----------------------------------------------------------

  Dipole Moment: [D]
     X:    -0.4715      Y:    -0.0031      Z:     0.0397     Total:     0.4732

*** Psi4 exiting successfully. Buy a developer a beer!
