                               Psi4 1.4a3.dev225

  ==> Input File <==

--------------------------------------------------------------------------
#psi4
#
memory 32 gb

molecule  {
0 1
  C       -0.2663850     0.0008990    -0.0013960
  C        1.2106340     0.0001110     0.0000760
  C       -3.1008180     0.0056250    -0.0137190
  C       -0.9855960    -1.1139970    -0.4586890
  C       -0.9858100     1.1188490     0.4479860
  C       -2.3796020    -1.1098520    -0.4588000
  C       -2.3797760     1.1173260     0.4409920
  C        1.9242530    -1.1209430     0.4529070
  C        1.9275400     1.1199170    -0.4505910
  C       -4.6068780    -0.0078780     0.0198210
  C        3.3192690    -1.1228030     0.4522780
  C        3.3225700     1.1193260    -0.4456390
  C        4.0331283     0.0137324    -0.0019576
  H       -0.4460470    -1.9780880    -0.8418930
  H       -0.4465600     1.9841010     0.8290070
  H       -2.9173870    -1.9815130    -0.8295580
  H       -2.9177760     1.9946350     0.7979050
  H        1.3786050    -1.9834820     0.8303220
  H        1.3846280     1.9832890    -0.8299950
  H       -5.0126890     0.9989950    -0.1140710
  H       -5.0122110    -0.6453700    -0.7711930
  H       -4.9781370    -0.3905110     0.9770230
  H        3.8582660    -1.9961250     0.8126670
  H        3.8641780     1.9916920    -0.8044220
  H        5.1104020    -0.0032360     0.0061230
units angstrom
no_reorient  #important for SAPT in psi4, default
symmetry c1  #important for SAPT in psi4, default
}

set PROPERTIES_ORIGIN ["COM"]
properties('MP2/aug-cc-pvtz', properties = ['dipole'])
--------------------------------------------------------------------------

    Molecular point group: c1
  Charge       = 0
  Multiplicity = 1
  Basis Set: AUG-CC-PVTZ
    Blend: AUG-CC-PVTZ
  Basis Set: (AUG-CC-PVTZ AUX)
    Blend: AUG-CC-PVTZ-JKFIT

    Orbital Energies [Eh]
    ---------------------

    Doubly Occupied:

       1A    -11.245168     2A    -11.242661     3A    -11.241254
       4A    -11.239062     5A    -11.236247     6A    -11.235383
       7A    -11.235249     8A    -11.234637     9A    -11.234362
      10A    -11.234056    11A    -11.232134    12A    -11.232065
      13A    -11.225542    14A     -1.167785    15A     -1.140758
      16A     -1.065045    17A     -1.016661    18A     -1.008708
      19A     -1.003767    20A     -0.929017    21A     -0.840566
      22A     -0.833374    23A     -0.811066    24A     -0.779687
      25A     -0.711728    26A     -0.667594    27A     -0.645835
      28A     -0.642037    29A     -0.613520    30A     -0.612992
      31A     -0.587416    32A     -0.580035    33A     -0.576264
      34A     -0.571781    35A     -0.541339    36A     -0.514338
      37A     -0.508146    38A     -0.496902    39A     -0.481703
      40A     -0.481436    41A     -0.478507    42A     -0.358809
      43A     -0.337419    44A     -0.335712    45A     -0.295952

  @DF-RHF Final Energy:  -499.44946854495618

   => Energetics <=

    Nuclear Repulsion Energy =            687.1358240525859173
    One-Electron Energy =               -2037.7631481183582309
    Two-Electron Energy =                 851.1778555208162516
    Total Energy =                       -499.4494685449561757
  Basis Set: (AUG-CC-PVTZ AUX)
    Blend: AUG-CC-PVTZ-RI
    Molecular point group: c1

    Geometry (in Angstrom), charge = 0, multiplicity = 1:

       Center              X                  Y                   Z               Mass
    ------------   -----------------  -----------------  -----------------  -----------------
         C           -0.303314472999    -0.000397509730    -0.000572771359    12.000000000000
         C            1.173704527001    -0.001185509730     0.000899228641    12.000000000000
         C           -3.137747472999     0.004328490270    -0.012895771359    12.000000000000
         C           -1.022525472999    -1.115293509730    -0.457865771359    12.000000000000
         C           -1.022739472999     1.117552490270     0.448809228641    12.000000000000
         C           -2.416531472999    -1.111148509730    -0.457976771359    12.000000000000
         C           -2.416705472999     1.116029490270     0.441815228641    12.000000000000
         C            1.887323527001    -1.122239509730     0.453730228641    12.000000000000
         C            1.890610527001     1.118620490270    -0.449767771359    12.000000000000
         C           -4.643807472999    -0.009174509730     0.020644228641    12.000000000000
         C            3.282339527001    -1.124099509730     0.453101228641    12.000000000000
         C            3.285640527001     1.118029490270    -0.444815771359    12.000000000000
         C            3.996198827001     0.012435890270    -0.001134371359    12.000000000000
         H           -0.482976472999    -1.979384509730    -0.841069771359     1.007825032230
         H           -0.483489472999     1.982804490270     0.829830228641     1.007825032230
         H           -2.954316472999    -1.982809509730    -0.828734771359     1.007825032230
         H           -2.954705472999     1.993338490270     0.798728228641     1.007825032230
         H            1.341675527001    -1.984778509730     0.831145228641     1.007825032230
         H            1.347698527001     1.981992490270    -0.829171771359     1.007825032230
         H           -5.049618472999     0.997698490270    -0.113247771359     1.007825032230
         H           -5.049140472999    -0.646666509730    -0.770369771359     1.007825032230
         H           -5.015066472999    -0.391807509730     0.977846228641     1.007825032230
         H            3.821336527001    -1.997421509730     0.813490228641     1.007825032230
         H            3.827248527001     1.990395490270    -0.803598771359     1.007825032230
         H            5.073472527001    -0.004532509730     0.006946228641     1.007825032230

  Basis Set: AUG-CC-PVTZ
    Blend: AUG-CC-PVTZ
  Basis Set: (AUG-CC-PVTZ AUX)
    Blend: AUG-CC-PVTZ-JKFIT
	 Reference Energy          =    -499.4494685449561757 [Eh]
	 Singles Energy            =      -0.0000000000000000 [Eh]
	 Same-Spin Energy          =      -0.5653572870497013 [Eh]
	 Opposite-Spin Energy      =      -1.7796670738966005 [Eh]
	 Correlation Energy        =      -2.3450243609463017 [Eh]
	 Total Energy              =    -501.7944929059024730 [Eh]

	 ================> DF-SCS-MP2 Energies <==================
	-----------------------------------------------------------
	 SCS Same-Spin Scale       =       0.3333333333333333 [-]
	 SCS Opposite-Spin Scale   =       1.2000000000000000 [-]
	 SCS Same-Spin Energy      =      -0.1884524290165671 [Eh]
	 SCS Opposite-Spin Energy  =      -2.1356004886759203 [Eh]
	 SCS Correlation Energy    =      -2.3240529176924873 [Eh]
	 SCS Total Energy          =    -501.7735214626486595 [Eh]
	-----------------------------------------------------------

  Dipole Moment: [D]
     X:    -0.4851      Y:    -0.0173      Z:     0.0379     Total:     0.4869

*** Psi4 exiting successfully. Buy a developer a beer!
