                               Psi4 1.4a3.dev225

  ==> Input File <==

--------------------------------------------------------------------------
#psi4
#
memory 32 gb

molecule  {
0 1
  C       -0.2663850     0.0008990    -0.0013960
  C        1.2106340     0.0001110     0.0000760
  C       -3.1008180     0.0056250    -0.0137190
  C       -0.9855960    -1.1139970    -0.4586890
  C       -0.9858100     1.1188490     0.4479860
  C       -2.3796020    -1.1098520    -0.4588000
  C       -2.3797760     1.1173260     0.4409920
  C        1.9242530    -1.1209430     0.4529070
  C        1.9275400     1.1199170    -0.4505910
  C       -4.6568636    -0.0083262     0.0209342
  C        3.3192690    -1.1228030     0.4522780
  C        3.3225700     1.1193260    -0.4456390
  C        4.0230520    -0.0023100     0.0044540
  H       -0.4460470    -1.9780880    -0.8418930
  H       -0.4465600     1.9841010     0.8290070
  H       -2.9173870    -1.9815130    -0.8295580
  H       -2.9177760     1.9946350     0.7979050
  H        1.3786050    -1.9834820     0.8303220
  H        1.3846280     1.9832890    -0.8299950
  H       -5.0126890     0.9989950    -0.1140710
  H       -5.0122110    -0.6453700    -0.7711930
  H       -4.9781370    -0.3905110     0.9770230
  H        3.8582660    -1.9961250     0.8126670
  H        3.8641780     1.9916920    -0.8044220
  H        5.1104020    -0.0032360     0.0061230
units angstrom
no_reorient  #important for SAPT in psi4, default
symmetry c1  #important for SAPT in psi4, default
}

set PROPERTIES_ORIGIN ["COM"]
properties('MP2/aug-cc-pvtz', properties = ['dipole'])
--------------------------------------------------------------------------

    Molecular point group: c1
  Charge       = 0
  Multiplicity = 1
  Basis Set: AUG-CC-PVTZ
    Blend: AUG-CC-PVTZ
  Basis Set: (AUG-CC-PVTZ AUX)
    Blend: AUG-CC-PVTZ-JKFIT

    Orbital Energies [Eh]
    ---------------------

    Doubly Occupied:

       1A    -11.244832     2A    -11.244593     3A    -11.241015
       4A    -11.237070     5A    -11.236823     6A    -11.235154
       7A    -11.235022     8A    -11.234418     9A    -11.234232
      10A    -11.234015    11A    -11.232012    12A    -11.231947
      13A    -11.224306    14A     -1.167440    15A     -1.140165
      16A     -1.062122    17A     -1.016641    18A     -1.008465
      19A     -1.001981    20A     -0.930627    21A     -0.840281
      22A     -0.833579    23A     -0.810981    24A     -0.779304
      25A     -0.711663    26A     -0.665321    27A     -0.645241
      28A     -0.638796    29A     -0.613609    30A     -0.613381
      31A     -0.587621    32A     -0.582327    33A     -0.579520
      34A     -0.567401    35A     -0.550131    36A     -0.509439
      37A     -0.506371    38A     -0.498639    39A     -0.483063
      40A     -0.479681    41A     -0.476299    42A     -0.359575
      43A     -0.337335    44A     -0.335617    45A     -0.296475

  @DF-RHF Final Energy:  -499.44847241585302

   => Energetics <=

    Nuclear Repulsion Energy =            686.4722839601279247
    One-Electron Energy =               -2036.4524560417651173
    Two-Electron Energy =                 850.5316996657841173
    Total Energy =                       -499.4484724158530753
  Basis Set: (AUG-CC-PVTZ AUX)
    Blend: AUG-CC-PVTZ-RI
    Molecular point group: c1

    Geometry (in Angstrom), charge = 0, multiplicity = 1:

       Center              X                  Y                   Z               Mass
    ------------   -----------------  -----------------  -----------------  -----------------
         C           -0.299026733835     0.000779732273    -0.001109956824    12.000000000000
         C            1.177992266165    -0.000008267727     0.000362043176    12.000000000000
         C           -3.133459733835     0.005505732273    -0.013432956824    12.000000000000
         C           -1.018237733835    -1.114116267727    -0.458402956824    12.000000000000
         C           -1.018451733835     1.118729732273     0.448272043176    12.000000000000
         C           -2.412243733835    -1.109971267727    -0.458513956824    12.000000000000
         C           -2.412417733835     1.117206732273     0.441278043176    12.000000000000
         C            1.891611266165    -1.121062267727     0.453193043176    12.000000000000
         C            1.894898266165     1.119797732273    -0.450304956824    12.000000000000
         C           -4.689505333835    -0.008445467727     0.021220243176    12.000000000000
         C            3.286627266165    -1.122922267727     0.452564043176    12.000000000000
         C            3.289928266165     1.119206732273    -0.445352956824    12.000000000000
         C            3.990410266165    -0.002429267727     0.004740043176    12.000000000000
         H           -0.478688733835    -1.978207267727    -0.841606956824     1.007825032230
         H           -0.479201733835     1.983981732273     0.829293043176     1.007825032230
         H           -2.950028733835    -1.981632267727    -0.829271956824     1.007825032230
         H           -2.950417733835     1.994515732273     0.798191043176     1.007825032230
         H            1.345963266165    -1.983601267727     0.830608043176     1.007825032230
         H            1.351986266165     1.983169732273    -0.829708956824     1.007825032230
         H           -5.045330733835     0.998875732273    -0.113784956824     1.007825032230
         H           -5.044852733835    -0.645489267727    -0.770906956824     1.007825032230
         H           -5.010778733835    -0.390630267727     0.977309043176     1.007825032230
         H            3.825624266165    -1.996244267727     0.812953043176     1.007825032230
         H            3.831536266165     1.991572732273    -0.804135956824     1.007825032230
         H            5.077760266165    -0.003355267727     0.006409043176     1.007825032230

  Basis Set: AUG-CC-PVTZ
    Blend: AUG-CC-PVTZ
  Basis Set: (AUG-CC-PVTZ AUX)
    Blend: AUG-CC-PVTZ-JKFIT
	 Reference Energy          =    -499.4484724158530184 [Eh]
	 Singles Energy            =      -0.0000000000000000 [Eh]
	 Same-Spin Energy          =      -0.5650584593652954 [Eh]
	 Opposite-Spin Energy      =      -1.7794160143094679 [Eh]
	 Correlation Energy        =      -2.3444744736747634 [Eh]
	 Total Energy              =    -501.7929468895277978 [Eh]

	 ================> DF-SCS-MP2 Energies <==================
	-----------------------------------------------------------
	 SCS Same-Spin Scale       =       0.3333333333333333 [-]
	 SCS Opposite-Spin Scale   =       1.2000000000000000 [-]
	 SCS Same-Spin Energy      =      -0.1883528197884318 [Eh]
	 SCS Opposite-Spin Energy  =      -2.1352992171713616 [Eh]
	 SCS Correlation Energy    =      -2.3236520369597935 [Eh]
	 SCS Total Energy          =    -501.7721244528128182 [Eh]
	-----------------------------------------------------------

  Dipole Moment: [D]
     X:    -0.4786      Y:    -0.0133      Z:     0.0355     Total:     0.4801

*** Psi4 exiting successfully. Buy a developer a beer!
