                               Psi4 1.4a3.dev225

  ==> Input File <==

--------------------------------------------------------------------------
#psi4
#
memory 32 gb

molecule  {
0 1
  C       -0.1444475     0.0749819     0.0335232
  C        1.2106340     0.0001110     0.0000760
  C       -3.1008180     0.0056250    -0.0137190
  C       -0.9855960    -1.1139970    -0.4586890
  C       -0.9858100     1.1188490     0.4479860
  C       -2.3796020    -1.1098520    -0.4588000
  C       -2.3797760     1.1173260     0.4409920
  C        1.9242530    -1.1209430     0.4529070
  C        1.9275400     1.1199170    -0.4505910
  C       -4.6068780    -0.0078780     0.0198210
  C        3.3192690    -1.1228030     0.4522780
  C        3.3225700     1.1193260    -0.4456390
  C        4.0230520    -0.0023100     0.0044540
  H       -0.4460470    -1.9780880    -0.8418930
  H       -0.4465600     1.9841010     0.8290070
  H       -2.9173870    -1.9815130    -0.8295580
  H       -2.9177760     1.9946350     0.7979050
  H        1.3786050    -1.9834820     0.8303220
  H        1.3846280     1.9832890    -0.8299950
  H       -5.0126890     0.9989950    -0.1140710
  H       -5.0122110    -0.6453700    -0.7711930
  H       -4.9781370    -0.3905110     0.9770230
  H        3.8582660    -1.9961250     0.8126670
  H        3.8641780     1.9916920    -0.8044220
  H        5.1104020    -0.0032360     0.0061230
units angstrom
no_reorient  #important for SAPT in psi4, default
symmetry c1  #important for SAPT in psi4, default
}

set PROPERTIES_ORIGIN ["COM"]
properties('MP2/aug-cc-pvtz', properties = ['dipole'])
--------------------------------------------------------------------------

    Molecular point group: c1
  Charge       = 0
  Multiplicity = 1
  Basis Set: AUG-CC-PVTZ
    Blend: AUG-CC-PVTZ
  Basis Set: (AUG-CC-PVTZ AUX)
    Blend: AUG-CC-PVTZ-JKFIT

    Orbital Energies [Eh]
    ---------------------

    Doubly Occupied:

       1A    -11.247329     2A    -11.245798     3A    -11.244252
       4A    -11.239242     5A    -11.238685     6A    -11.238133
       7A    -11.237273     8A    -11.236378     9A    -11.236281
      10A    -11.235347    11A    -11.232056    12A    -11.231369
      13A    -11.225909    14A     -1.172345    15A     -1.137336
      16A     -1.074311    17A     -1.017305    18A     -1.008218
      19A     -1.000427    20A     -0.929566    21A     -0.846117
      22A     -0.840551    23A     -0.808045    24A     -0.775172
      25A     -0.715845    26A     -0.669771    27A     -0.649699
      28A     -0.642982    29A     -0.614963    30A     -0.611959
      31A     -0.587704    32A     -0.583518    33A     -0.575713
      34A     -0.569625    35A     -0.540320    36A     -0.513017
      37A     -0.511007    38A     -0.499783    39A     -0.497780
      40A     -0.474480    41A     -0.458948    42A     -0.364976
      43A     -0.338832    44A     -0.334775    45A     -0.283491

  @DF-RHF Final Energy:  -499.41958858501908

   => Energetics <=

    Nuclear Repulsion Energy =            687.3330115073957813
    One-Electron Energy =               -2038.0319363433038689
    Two-Electron Energy =                 851.2793362508890596
    Total Energy =                       -499.4195885850191416
  Basis Set: (AUG-CC-PVTZ AUX)
    Blend: AUG-CC-PVTZ-RI
    Molecular point group: c1

    Geometry (in Angstrom), charge = 0, multiplicity = 1:

       Center              X                  Y                   Z               Mass
    ------------   -----------------  -----------------  -----------------  -----------------
         C           -0.189362595303     0.069541956163     0.031395877795    12.000000000000
         C            1.165718904697    -0.005328943837    -0.002051322205    12.000000000000
         C           -3.145733095303     0.000185056163    -0.015846322205    12.000000000000
         C           -1.030511095303    -1.119436943837    -0.460816322205    12.000000000000
         C           -1.030725095303     1.113409056163     0.445858677795    12.000000000000
         C           -2.424517095303    -1.115291943837    -0.460927322205    12.000000000000
         C           -2.424691095303     1.111886056163     0.438864677795    12.000000000000
         C            1.879337904697    -1.126382943837     0.450779677795    12.000000000000
         C            1.882624904697     1.114477056163    -0.452718322205    12.000000000000
         C           -4.651793095303    -0.013317943837     0.017693677795    12.000000000000
         C            3.274353904697    -1.128242943837     0.450150677795    12.000000000000
         C            3.277654904697     1.113886056163    -0.447766322205    12.000000000000
         C            3.978136904697    -0.007749943837     0.002326677795    12.000000000000
         H           -0.490962095303    -1.983527943837    -0.844020322205     1.007825032230
         H           -0.491475095303     1.978661056163     0.826879677795     1.007825032230
         H           -2.962302095303    -1.986952943837    -0.831685322205     1.007825032230
         H           -2.962691095303     1.989195056163     0.795777677795     1.007825032230
         H            1.333689904697    -1.988921943837     0.828194677795     1.007825032230
         H            1.339712904697     1.977849056163    -0.832122322205     1.007825032230
         H           -5.057604095303     0.993555056163    -0.116198322205     1.007825032230
         H           -5.057126095303    -0.650809943837    -0.773320322205     1.007825032230
         H           -5.023052095303    -0.395950943837     0.974895677795     1.007825032230
         H            3.813350904697    -2.001564943837     0.810539677795     1.007825032230
         H            3.819262904697     1.986252056163    -0.806549322205     1.007825032230
         H            5.065486904697    -0.008675943837     0.003995677795     1.007825032230

  Basis Set: AUG-CC-PVTZ
    Blend: AUG-CC-PVTZ
  Basis Set: (AUG-CC-PVTZ AUX)
    Blend: AUG-CC-PVTZ-JKFIT
	 Reference Energy          =    -499.4195885850190848 [Eh]
	 Singles Energy            =      -0.0000000000000000 [Eh]
	 Same-Spin Energy          =      -0.5677835482441607 [Eh]
	 Opposite-Spin Energy      =      -1.7841118583018731 [Eh]
	 Correlation Energy        =      -2.3518954065460340 [Eh]
	 Total Energy              =    -501.7714839915651055 [Eh]

	 ================> DF-SCS-MP2 Energies <==================
	-----------------------------------------------------------
	 SCS Same-Spin Scale       =       0.3333333333333333 [-]
	 SCS Opposite-Spin Scale   =       1.2000000000000000 [-]
	 SCS Same-Spin Energy      =      -0.1892611827480535 [Eh]
	 SCS Opposite-Spin Energy  =      -2.1409342299622476 [Eh]
	 SCS Correlation Energy    =      -2.3301954127103013 [Eh]
	 SCS Total Energy          =    -501.7497839977293665 [Eh]
	-----------------------------------------------------------

  Dipole Moment: [D]
     X:    -0.3070      Y:    -0.0266      Z:     0.0377     Total:     0.3104

*** Psi4 exiting successfully. Buy a developer a beer!
