                               Psi4 1.4a3.dev225

  ==> Input File <==

--------------------------------------------------------------------------
#psi4
#
memory 32 gb

molecule  {
0 1
  C       -0.2663850     0.0008990    -0.0013960
  C        1.2106340     0.0001110     0.0000760
  C       -3.1008180     0.0056250    -0.0137190
  C       -0.9855960    -1.1139970    -0.4586890
  C       -0.9858100     1.1188490     0.4479860
  C       -2.3715743    -0.9767157    -0.3996295
  C       -2.3797760     1.1173260     0.4409920
  C        1.9242530    -1.1209430     0.4529070
  C        1.9275400     1.1199170    -0.4505910
  C       -4.6068780    -0.0078780     0.0198210
  C        3.3192690    -1.1228030     0.4522780
  C        3.3225700     1.1193260    -0.4456390
  C        4.0230520    -0.0023100     0.0044540
  H       -0.4460470    -1.9780880    -0.8418930
  H       -0.4465600     1.9841010     0.8290070
  H       -2.9173870    -1.9815130    -0.8295580
  H       -2.9177760     1.9946350     0.7979050
  H        1.3786050    -1.9834820     0.8303220
  H        1.3846280     1.9832890    -0.8299950
  H       -5.0126890     0.9989950    -0.1140710
  H       -5.0122110    -0.6453700    -0.7711930
  H       -4.9781370    -0.3905110     0.9770230
  H        3.8582660    -1.9961250     0.8126670
  H        3.8641780     1.9916920    -0.8044220
  H        5.1104020    -0.0032360     0.0061230
units angstrom
no_reorient  #important for SAPT in psi4, default
symmetry c1  #important for SAPT in psi4, default
}

set PROPERTIES_ORIGIN ["COM"]
properties('MP2/aug-cc-pvtz', properties = ['dipole'])
--------------------------------------------------------------------------

    Molecular point group: c1
  Charge       = 0
  Multiplicity = 1
  Basis Set: AUG-CC-PVTZ
    Blend: AUG-CC-PVTZ
  Basis Set: (AUG-CC-PVTZ AUX)
    Blend: AUG-CC-PVTZ-JKFIT

    Orbital Energies [Eh]
    ---------------------

    Doubly Occupied:

       1A    -11.245067     2A    -11.242354     3A    -11.237977
       4A    -11.237715     5A    -11.235475     6A    -11.235277
       7A    -11.235130     8A    -11.235022     9A    -11.234831
      10A    -11.232752    11A    -11.230319    12A    -11.227043
      13A    -11.226335    14A     -1.176934    15A     -1.149043
      16A     -1.072782    17A     -1.016445    18A     -1.007271
      19A     -1.005626    20A     -0.934550    21A     -0.847226
      22A     -0.835507    23A     -0.813437    24A     -0.775517
      25A     -0.710494    26A     -0.667727    27A     -0.652407
      28A     -0.641108    29A     -0.615691    30A     -0.608303
      31A     -0.586707    32A     -0.580377    33A     -0.575459
      34A     -0.569331    35A     -0.535432    36A     -0.522100
      37A     -0.511399    38A     -0.497838    39A     -0.488240
      40A     -0.486097    41A     -0.453620    42A     -0.366275
      43A     -0.337826    44A     -0.335290    45A     -0.302251

  @DF-RHF Final Energy:  -499.42299551023359

   => Energetics <=

    Nuclear Repulsion Energy =            689.8264939338523618
    One-Electron Energy =               -2043.0317603343382871
    Two-Electron Energy =                 853.7822708902523345
    Total Energy =                       -499.4229955102335907
  Basis Set: (AUG-CC-PVTZ AUX)
    Blend: AUG-CC-PVTZ-RI
    Molecular point group: c1

    Geometry (in Angstrom), charge = 0, multiplicity = 1:

       Center              X                  Y                   Z               Mass
    ------------   -----------------  -----------------  -----------------  -----------------
         C           -0.303168226170    -0.008756687528    -0.005254590260    12.000000000000
         C            1.173850773830    -0.009544687528    -0.003782590260    12.000000000000
         C           -3.137601226170    -0.004030687528    -0.017577590260    12.000000000000
         C           -1.022379226170    -1.123652687528    -0.462547590260    12.000000000000
         C           -1.022593226170     1.109193312472     0.444127409740    12.000000000000
         C           -2.408357526170    -0.986371387528    -0.403488090260    12.000000000000
         C           -2.416559226170     1.107670312472     0.437133409740    12.000000000000
         C            1.887469773830    -1.130598687528     0.449048409740    12.000000000000
         C            1.890756773830     1.110261312472    -0.454449590260    12.000000000000
         C           -4.643661226170    -0.017533687528     0.015962409740    12.000000000000
         C            3.282485773830    -1.132458687528     0.448419409740    12.000000000000
         C            3.285786773830     1.109670312472    -0.449497590260    12.000000000000
         C            3.986268773830    -0.011965687528     0.000595409740    12.000000000000
         H           -0.482830226170    -1.987743687528    -0.845751590260     1.007825032230
         H           -0.483343226170     1.974445312472     0.825148409740     1.007825032230
         H           -2.954170226170    -1.991168687528    -0.833416590260     1.007825032230
         H           -2.954559226170     1.984979312472     0.794046409740     1.007825032230
         H            1.341821773830    -1.993137687528     0.826463409740     1.007825032230
         H            1.347844773830     1.973633312472    -0.833853590260     1.007825032230
         H           -5.049472226170     0.989339312472    -0.117929590260     1.007825032230
         H           -5.048994226170    -0.655025687528    -0.775051590260     1.007825032230
         H           -5.014920226170    -0.400166687528     0.973164409740     1.007825032230
         H            3.821482773830    -2.005780687528     0.808808409740     1.007825032230
         H            3.827394773830     1.982036312472    -0.808280590260     1.007825032230
         H            5.073618773830    -0.012891687528     0.002264409740     1.007825032230

  Basis Set: AUG-CC-PVTZ
    Blend: AUG-CC-PVTZ
  Basis Set: (AUG-CC-PVTZ AUX)
    Blend: AUG-CC-PVTZ-JKFIT
	 Reference Energy          =    -499.4229955102335907 [Eh]
	 Singles Energy            =      -0.0000000000000000 [Eh]
	 Same-Spin Energy          =      -0.5658131308540062 [Eh]
	 Opposite-Spin Energy      =      -1.7806052862308579 [Eh]
	 Correlation Energy        =      -2.3464184170848643 [Eh]
	 Total Energy              =    -501.7694139273184533 [Eh]

	 ================> DF-SCS-MP2 Energies <==================
	-----------------------------------------------------------
	 SCS Same-Spin Scale       =       0.3333333333333333 [-]
	 SCS Opposite-Spin Scale   =       1.2000000000000000 [-]
	 SCS Same-Spin Energy      =      -0.1886043769513354 [Eh]
	 SCS Opposite-Spin Energy  =      -2.1367263434770294 [Eh]
	 SCS Correlation Energy    =      -2.3253307204283646 [Eh]
	 SCS Total Energy          =    -501.7483262306619736 [Eh]
	-----------------------------------------------------------

  Dipole Moment: [D]
     X:    -0.3669      Y:     0.0963      Z:     0.0747     Total:     0.3866

*** Psi4 exiting successfully. Buy a developer a beer!
