                               Psi4 1.4a3.dev225

  ==> Input File <==

--------------------------------------------------------------------------
#psi4
#
memory 32 gb

molecule  {
0 1
  C       -0.2663850     0.0008990    -0.0013960
  C        1.2106340     0.0001110     0.0000760
  C       -3.1008180     0.0056250    -0.0137190
  C       -0.9855960    -1.1139970    -0.4586890
  C       -0.9858100     1.1188490     0.4479860
  C       -2.3796020    -1.1098520    -0.4588000
  C       -2.3797760     1.1173260     0.4409920
  C        1.9242530    -1.1209430     0.4529070
  C        1.9277099     1.0974167    -0.4412895
  C       -4.6068780    -0.0078780     0.0198210
  C        3.3192690    -1.1228030     0.4522780
  C        3.3225700     1.1193260    -0.4456390
  C        4.0230520    -0.0023100     0.0044540
  H       -0.4460470    -1.9780880    -0.8418930
  H       -0.4465600     1.9841010     0.8290070
  H       -2.9173870    -1.9815130    -0.8295580
  H       -2.9177760     1.9946350     0.7979050
  H        1.3786050    -1.9834820     0.8303220
  H        1.3846280     1.9832890    -0.8299950
  H       -5.0126890     0.9989950    -0.1140710
  H       -5.0122110    -0.6453700    -0.7711930
  H       -4.9781370    -0.3905110     0.9770230
  H        3.8582660    -1.9961250     0.8126670
  H        3.8641780     1.9916920    -0.8044220
  H        5.1104020    -0.0032360     0.0061230
units angstrom
no_reorient  #important for SAPT in psi4, default
symmetry c1  #important for SAPT in psi4, default
}

set PROPERTIES_ORIGIN ["COM"]
properties('MP2/aug-cc-pvtz', properties = ['dipole'])
--------------------------------------------------------------------------

    Molecular point group: c1
  Charge       = 0
  Multiplicity = 1
  Basis Set: AUG-CC-PVTZ
    Blend: AUG-CC-PVTZ
  Basis Set: (AUG-CC-PVTZ AUX)
    Blend: AUG-CC-PVTZ-JKFIT

    Orbital Energies [Eh]
    ---------------------

    Doubly Occupied:

       1A    -11.242612     2A    -11.242584     3A    -11.241223
       4A    -11.236923     5A    -11.236564     6A    -11.235327
       7A    -11.235175     8A    -11.234578     9A    -11.234253
      10A    -11.233761    11A    -11.232051    12A    -11.231982
      13A    -11.225484    14A     -1.169286    15A     -1.142318
      16A     -1.065625    17A     -1.016515    18A     -1.008424
      19A     -1.005535    20A     -0.929099    21A     -0.841029
      22A     -0.832513    23A     -0.811399    24A     -0.779996
      25A     -0.712087    26A     -0.664757    27A     -0.646312
      28A     -0.641606    29A     -0.615417    30A     -0.612806
      31A     -0.586355    32A     -0.579511    33A     -0.576071
      34A     -0.571401    35A     -0.541415    36A     -0.512281
      37A     -0.509551    38A     -0.497216    39A     -0.482201
      40A     -0.481592    41A     -0.478055    42A     -0.359959
      43A     -0.337290    44A     -0.335618    45A     -0.297104

  @DF-RHF Final Energy:  -499.44948997088301

   => Energetics <=

    Nuclear Repulsion Energy =            687.7411696333618920
    One-Electron Energy =               -2038.9755934229435752
    Two-Electron Energy =                 851.7849338186988462
    Total Energy =                       -499.4494899708829507
  Basis Set: (AUG-CC-PVTZ AUX)
    Blend: AUG-CC-PVTZ-RI
    Molecular point group: c1

    Geometry (in Angstrom), charge = 0, multiplicity = 1:

       Center              X                  Y                   Z               Mass
    ------------   -----------------  -----------------  -----------------  -----------------
         C           -0.302607268278     0.002354002365    -0.001694508671    12.000000000000
         C            1.174411731722     0.001566002365    -0.000222508671    12.000000000000
         C           -3.137040268278     0.007080002365    -0.014017508671    12.000000000000
         C           -1.021818268278    -1.112541997635    -0.458987508671    12.000000000000
         C           -1.022032268278     1.120304002365     0.447687491329    12.000000000000
         C           -2.415824268278    -1.108396997635    -0.459098508671    12.000000000000
         C           -2.415998268278     1.118781002365     0.440693491329    12.000000000000
         C            1.888030731722    -1.119487997635     0.452608491329    12.000000000000
         C            1.891487631722     1.098871702365    -0.441588008671    12.000000000000
         C           -4.643100268278    -0.006422997635     0.019522491329    12.000000000000
         C            3.283046731722    -1.121347997635     0.451979491329    12.000000000000
         C            3.286347731722     1.120781002365    -0.445937508671    12.000000000000
         C            3.986829731722    -0.000854997635     0.004155491329    12.000000000000
         H           -0.482269268278    -1.976632997635    -0.842191508671     1.007825032230
         H           -0.482782268278     1.985556002365     0.828708491329     1.007825032230
         H           -2.953609268278    -1.980057997635    -0.829856508671     1.007825032230
         H           -2.953998268278     1.996090002365     0.797606491329     1.007825032230
         H            1.342382731722    -1.982026997635     0.830023491329     1.007825032230
         H            1.348405731722     1.984744002365    -0.830293508671     1.007825032230
         H           -5.048911268278     1.000450002365    -0.114369508671     1.007825032230
         H           -5.048433268278    -0.643914997635    -0.771491508671     1.007825032230
         H           -5.014359268278    -0.389055997635     0.976724491329     1.007825032230
         H            3.822043731722    -1.994669997635     0.812368491329     1.007825032230
         H            3.827955731722     1.993147002365    -0.804720508671     1.007825032230
         H            5.074179731722    -0.001780997635     0.005824491329     1.007825032230

  Basis Set: AUG-CC-PVTZ
    Blend: AUG-CC-PVTZ
  Basis Set: (AUG-CC-PVTZ AUX)
    Blend: AUG-CC-PVTZ-JKFIT
	 Reference Energy          =    -499.4494899708830076 [Eh]
	 Singles Energy            =      -0.0000000000000000 [Eh]
	 Same-Spin Energy          =      -0.5653919969899058 [Eh]
	 Opposite-Spin Energy      =      -1.7795679217897649 [Eh]
	 Correlation Energy        =      -2.3449599187796708 [Eh]
	 Total Energy              =    -501.7944498896627010 [Eh]

	 ================> DF-SCS-MP2 Energies <==================
	-----------------------------------------------------------
	 SCS Same-Spin Scale       =       0.3333333333333333 [-]
	 SCS Opposite-Spin Scale   =       1.2000000000000000 [-]
	 SCS Same-Spin Energy      =      -0.1884639989966353 [Eh]
	 SCS Opposite-Spin Energy  =      -2.1354815061477179 [Eh]
	 SCS Correlation Energy    =      -2.3239455051443532 [Eh]
	 SCS Total Energy          =    -501.7734354760273732 [Eh]
	-----------------------------------------------------------

  Dipole Moment: [D]
     X:    -0.4795      Y:    -0.0149      Z:     0.0389     Total:     0.4813

*** Psi4 exiting successfully. Buy a developer a beer!
