                               Psi4 1.4a3.dev225

  ==> Input File <==

--------------------------------------------------------------------------
#psi4
#
memory 32 gb

molecule  {
0 1
  C       -0.2663850     0.0008990    -0.0013960
  C        1.2106340     0.0001110     0.0000760
  C       -3.1008180     0.0056250    -0.0137190
  C       -0.9855960    -1.1139970    -0.4586890
  C       -0.8832787     0.9595206     0.3839408
  C       -2.3796020    -1.1098520    -0.4588000
  C       -2.3797760     1.1173260     0.4409920
  C        1.9242530    -1.1209430     0.4529070
  C        1.9275400     1.1199170    -0.4505910
  C       -4.6068780    -0.0078780     0.0198210
  C        3.3192690    -1.1228030     0.4522780
  C        3.3225700     1.1193260    -0.4456390
  C        4.0230520    -0.0023100     0.0044540
  H       -0.4460470    -1.9780880    -0.8418930
  H       -0.4465600     1.9841010     0.8290070
  H       -2.9173870    -1.9815130    -0.8295580
  H       -2.9177760     1.9946350     0.7979050
  H        1.3786050    -1.9834820     0.8303220
  H        1.3846280     1.9832890    -0.8299950
  H       -5.0126890     0.9989950    -0.1140710
  H       -5.0122110    -0.6453700    -0.7711930
  H       -4.9781370    -0.3905110     0.9770230
  H        3.8582660    -1.9961250     0.8126670
  H        3.8641780     1.9916920    -0.8044220
  H        5.1104020    -0.0032360     0.0061230
units angstrom
no_reorient  #important for SAPT in psi4, default
symmetry c1  #important for SAPT in psi4, default
}

set PROPERTIES_ORIGIN ["COM"]
properties('MP2/aug-cc-pvtz', properties = ['dipole'])
--------------------------------------------------------------------------

    Molecular point group: c1
  Charge       = 0
  Multiplicity = 1
  Basis Set: AUG-CC-PVTZ
    Blend: AUG-CC-PVTZ
  Basis Set: (AUG-CC-PVTZ AUX)
    Blend: AUG-CC-PVTZ-JKFIT

    Orbital Energies [Eh]
    ---------------------

    Doubly Occupied:

       1A    -11.244063     2A    -11.242625     3A    -11.239498
       4A    -11.238105     5A    -11.236737     6A    -11.236416
       7A    -11.234144     8A    -11.233881     9A    -11.233540
      10A    -11.232976    11A    -11.229096    12A    -11.225224
      13A    -11.215161    14A     -1.184426    15A     -1.142897
      16A     -1.079659    17A     -1.014560    18A     -1.007300
      19A     -0.999180    20A     -0.934569    21A     -0.849116
      22A     -0.829669    23A     -0.815482    24A     -0.768872
      25A     -0.715718    26A     -0.667554    27A     -0.650928
      28A     -0.633108    29A     -0.620288    30A     -0.611566
      31A     -0.585896    32A     -0.581179    33A     -0.576105
      34A     -0.560569    35A     -0.545508    36A     -0.517837
      37A     -0.511492    38A     -0.498128    39A     -0.490725
      40A     -0.485441    41A     -0.445717    42A     -0.370810
      43A     -0.336044    44A     -0.325452    45A     -0.308459

  @DF-RHF Final Energy:  -499.38968835256026

   => Energetics <=

    Nuclear Repulsion Energy =            690.4805142145330592
    One-Electron Energy =               -2044.3289632747091673
    Two-Electron Energy =                 854.4587607076158520
    Total Energy =                       -499.3896883525602561
  Basis Set: (AUG-CC-PVTZ AUX)
    Blend: AUG-CC-PVTZ-RI
    Molecular point group: c1

    Geometry (in Angstrom), charge = 0, multiplicity = 1:

       Center              X                  Y                   Z               Mass
    ------------   -----------------  -----------------  -----------------  -----------------
         C           -0.309914712493     0.012121978456     0.003541614698    12.000000000000
         C            1.167104287507     0.011333978456     0.005013614698    12.000000000000
         C           -3.144347712493     0.016847978456    -0.008781385302    12.000000000000
         C           -1.029125712493    -1.102774021544    -0.453751385302    12.000000000000
         C           -0.926808412493     0.970743578456     0.388878414698    12.000000000000
         C           -2.423131712493    -1.098629021544    -0.453862385302    12.000000000000
         C           -2.423305712493     1.128548978456     0.445929614698    12.000000000000
         C            1.880723287507    -1.109720021544     0.457844614698    12.000000000000
         C            1.884010287507     1.131139978456    -0.445653385302    12.000000000000
         C           -4.650407712493     0.003344978456     0.024758614698    12.000000000000
         C            3.275739287507    -1.111580021544     0.457215614698    12.000000000000
         C            3.279040287507     1.130548978456    -0.440701385302    12.000000000000
         C            3.979522287507     0.008912978456     0.009391614698    12.000000000000
         H           -0.489576712493    -1.966865021544    -0.836955385302     1.007825032230
         H           -0.490089712493     1.995323978456     0.833944614698     1.007825032230
         H           -2.960916712493    -1.970290021544    -0.824620385302     1.007825032230
         H           -2.961305712493     2.005857978456     0.802842614698     1.007825032230
         H            1.335075287507    -1.972259021544     0.835259614698     1.007825032230
         H            1.341098287507     1.994511978456    -0.825057385302     1.007825032230
         H           -5.056218712493     1.010217978456    -0.109133385302     1.007825032230
         H           -5.055740712493    -0.634147021544    -0.766255385302     1.007825032230
         H           -5.021666712493    -0.379288021544     0.981960614698     1.007825032230
         H            3.814736287507    -1.984902021544     0.817604614698     1.007825032230
         H            3.820648287507     2.002914978456    -0.799484385302     1.007825032230
         H            5.066872287507     0.007986978456     0.011060614698     1.007825032230

  Basis Set: AUG-CC-PVTZ
    Blend: AUG-CC-PVTZ
  Basis Set: (AUG-CC-PVTZ AUX)
    Blend: AUG-CC-PVTZ-JKFIT
	 Reference Energy          =    -499.3896883525602561 [Eh]
	 Singles Energy            =      -0.0000000000000000 [Eh]
	 Same-Spin Energy          =      -0.5647282327845496 [Eh]
	 Opposite-Spin Energy      =      -1.7812092749310979 [Eh]
	 Correlation Energy        =      -2.3459375077156475 [Eh]
	 Total Energy              =    -501.7356258602758885 [Eh]

	 ================> DF-SCS-MP2 Energies <==================
	-----------------------------------------------------------
	 SCS Same-Spin Scale       =       0.3333333333333333 [-]
	 SCS Opposite-Spin Scale   =       1.2000000000000000 [-]
	 SCS Same-Spin Energy      =      -0.1882427442615165 [Eh]
	 SCS Opposite-Spin Energy  =      -2.1374511299173173 [Eh]
	 SCS Correlation Energy    =      -2.3256938741788340 [Eh]
	 SCS Total Energy          =    -501.7153822267391092 [Eh]
	-----------------------------------------------------------

  Dipole Moment: [D]
     X:    -0.5786      Y:    -0.0387      Z:     0.0211     Total:     0.5803

*** Psi4 exiting successfully. Buy a developer a beer!
