                               Psi4 1.4a3.dev225

  ==> Input File <==

--------------------------------------------------------------------------
#psi4
#
memory 32 gb

molecule  {
0 1
  C       -0.2663850     0.0008990    -0.0013960
  C        1.2106340     0.0001110     0.0000760
  C       -3.1008180     0.0056250    -0.0137190
  C       -0.9855960    -1.1139970    -0.4586890
  C       -0.9858100     1.1188490     0.4479860
  C       -2.3796020    -1.1098520    -0.4588000
  C       -2.3797760     1.1173260     0.4409920
  C        1.9242530    -1.1209430     0.4529070
  C        1.9275400     1.1199170    -0.4505910
  C       -4.7068492    -0.0087743     0.0220474
  C        3.3192690    -1.1228030     0.4522780
  C        3.3225700     1.1193260    -0.4456390
  C        4.0230520    -0.0023100     0.0044540
  H       -0.4460470    -1.9780880    -0.8418930
  H       -0.4465600     1.9841010     0.8290070
  H       -2.9173870    -1.9815130    -0.8295580
  H       -2.9177760     1.9946350     0.7979050
  H        1.3786050    -1.9834820     0.8303220
  H        1.3846280     1.9832890    -0.8299950
  H       -5.0126890     0.9989950    -0.1140710
  H       -5.0122110    -0.6453700    -0.7711930
  H       -4.9781370    -0.3905110     0.9770230
  H        3.8582660    -1.9961250     0.8126670
  H        3.8641780     1.9916920    -0.8044220
  H        5.1104020    -0.0032360     0.0061230
units angstrom
no_reorient  #important for SAPT in psi4, default
symmetry c1  #important for SAPT in psi4, default
}

set PROPERTIES_ORIGIN ["COM"]
properties('MP2/aug-cc-pvtz', properties = ['dipole'])
--------------------------------------------------------------------------

    Molecular point group: c1
  Charge       = 0
  Multiplicity = 1
  Basis Set: AUG-CC-PVTZ
    Blend: AUG-CC-PVTZ
  Basis Set: (AUG-CC-PVTZ AUX)
    Blend: AUG-CC-PVTZ-JKFIT

    Orbital Energies [Eh]
    ---------------------

    Doubly Occupied:

       1A    -11.246237     2A    -11.244736     3A    -11.240856
       4A    -11.236994     5A    -11.236746     6A    -11.235013
       7A    -11.234881     8A    -11.234337     9A    -11.234145
      10A    -11.233933    11A    -11.231975    12A    -11.231916
      13A    -11.223894    14A     -1.166984    15A     -1.139233
      16A     -1.059554    17A     -1.016480    18A     -1.008258
      19A     -0.999982    20A     -0.932486    21A     -0.839859
      22A     -0.834103    23A     -0.810523    24A     -0.779080
      25A     -0.711510    26A     -0.664767    27A     -0.644717
      28A     -0.636130    29A     -0.613562    30A     -0.613408
      31A     -0.588226    32A     -0.587462    33A     -0.579800
      34A     -0.564423    35A     -0.558637    36A     -0.509952
      37A     -0.501263    38A     -0.499024    39A     -0.483907
      40A     -0.479899    41A     -0.469138    42A     -0.359942
      43A     -0.337197    44A     -0.335453    45A     -0.296737

  @DF-RHF Final Energy:  -499.44289966580749

   => Energetics <=

    Nuclear Repulsion Energy =            685.6346280170681666
    One-Electron Energy =               -2034.7803301130793443
    Two-Electron Energy =                 849.7028024302036329
    Total Energy =                       -499.4428996658074311
  Basis Set: (AUG-CC-PVTZ AUX)
    Blend: AUG-CC-PVTZ-RI
    Molecular point group: c1

    Geometry (in Angstrom), charge = 0, multiplicity = 1:

       Center              X                  Y                   Z               Mass
    ------------   -----------------  -----------------  -----------------  -----------------
         C           -0.295458328327     0.000811721536    -0.001189426692    12.000000000000
         C            1.181560671673     0.000023721536     0.000282573308    12.000000000000
         C           -3.129891328327     0.005537721536    -0.013512426692    12.000000000000
         C           -1.014669328327    -1.114084278464    -0.458482426692    12.000000000000
         C           -1.014883328327     1.118761721536     0.448192573308    12.000000000000
         C           -2.408675328327    -1.109939278464    -0.458593426692    12.000000000000
         C           -2.408849328327     1.117238721536     0.441198573308    12.000000000000
         C            1.895179671673    -1.121030278464     0.453113573308    12.000000000000
         C            1.898466671673     1.119829721536    -0.450384426692    12.000000000000
         C           -4.735922528327    -0.008861578464     0.022253973308    12.000000000000
         C            3.290195671673    -1.122890278464     0.452484573308    12.000000000000
         C            3.293496671673     1.119238721536    -0.445432426692    12.000000000000
         C            3.993978671673    -0.002397278464     0.004660573308    12.000000000000
         H           -0.475120328327    -1.978175278464    -0.841686426692     1.007825032230
         H           -0.475633328327     1.984013721536     0.829213573308     1.007825032230
         H           -2.946460328327    -1.981600278464    -0.829351426692     1.007825032230
         H           -2.946849328327     1.994547721536     0.798111573308     1.007825032230
         H            1.349531671673    -1.983569278464     0.830528573308     1.007825032230
         H            1.355554671673     1.983201721536    -0.829788426692     1.007825032230
         H           -5.041762328327     0.998907721536    -0.113864426692     1.007825032230
         H           -5.041284328327    -0.645457278464    -0.770986426692     1.007825032230
         H           -5.007210328327    -0.390598278464     0.977229573308     1.007825032230
         H            3.829192671673    -1.996212278464     0.812873573308     1.007825032230
         H            3.835104671673     1.991604721536    -0.804215426692     1.007825032230
         H            5.081328671673    -0.003323278464     0.006329573308     1.007825032230

  Basis Set: AUG-CC-PVTZ
    Blend: AUG-CC-PVTZ
  Basis Set: (AUG-CC-PVTZ AUX)
    Blend: AUG-CC-PVTZ-JKFIT
	 Reference Energy          =    -499.4428996658074880 [Eh]
	 Singles Energy            =      -0.0000000000000000 [Eh]
	 Same-Spin Energy          =      -0.5649313435246623 [Eh]
	 Opposite-Spin Energy      =      -1.7795538940891986 [Eh]
	 Correlation Energy        =      -2.3444852376138607 [Eh]
	 Total Energy              =    -501.7873849034213549 [Eh]

	 ================> DF-SCS-MP2 Energies <==================
	-----------------------------------------------------------
	 SCS Same-Spin Scale       =       0.3333333333333333 [-]
	 SCS Opposite-Spin Scale   =       1.2000000000000000 [-]
	 SCS Same-Spin Energy      =      -0.1883104478415541 [Eh]
	 SCS Opposite-Spin Energy  =      -2.1354646729070383 [Eh]
	 SCS Correlation Energy    =      -2.3237751207485924 [Eh]
	 SCS Total Energy          =    -501.7666747865560524 [Eh]
	-----------------------------------------------------------

  Dipole Moment: [D]
     X:    -0.4652      Y:    -0.0129      Z:     0.0344     Total:     0.4666

*** Psi4 exiting successfully. Buy a developer a beer!
