                               Psi4 1.4a3.dev225

  ==> Input File <==

--------------------------------------------------------------------------
#psi4
#
memory 32 gb

molecule  {
0 1
  C       -0.2663850     0.0008990    -0.0013960
  C        1.2106340     0.0001110     0.0000760
  C       -3.1008180     0.0056250    -0.0137190
  C       -0.9855960    -1.1139970    -0.4586890
  C       -0.9858100     1.1188490     0.4479860
  C       -2.3796020    -1.1098520    -0.4588000
  C       -2.3797760     1.1173260     0.4409920
  C        1.9242530    -1.1209430     0.4529070
  C        1.9275400     1.1199170    -0.4505910
  C       -4.6068780    -0.0078780     0.0198210
  C        3.3192690    -1.1228030     0.4522780
  C        3.3225700     1.1193260    -0.4456390
  C        4.0230520    -0.0023100     0.0044540
  H       -0.4460470    -1.9780880    -0.8418930
  H       -0.4465600     1.9841010     0.8290070
  H       -2.9173870    -1.9815130    -0.8295580
  H       -2.9177760     1.9946350     0.7979050
  H        1.3786050    -1.9834820     0.8303220
  H        1.3746496     1.9991573    -0.8369683
  H       -5.0126890     0.9989950    -0.1140710
  H       -5.0122110    -0.6453700    -0.7711930
  H       -4.9781370    -0.3905110     0.9770230
  H        3.8582660    -1.9961250     0.8126670
  H        3.8641780     1.9916920    -0.8044220
  H        5.1104020    -0.0032360     0.0061230
units angstrom
no_reorient  #important for SAPT in psi4, default
symmetry c1  #important for SAPT in psi4, default
}

set PROPERTIES_ORIGIN ["COM"]
properties('MP2/aug-cc-pvtz', properties = ['dipole'])
--------------------------------------------------------------------------

    Molecular point group: c1
  Charge       = 0
  Multiplicity = 1
  Basis Set: AUG-CC-PVTZ
    Blend: AUG-CC-PVTZ
  Basis Set: (AUG-CC-PVTZ AUX)
    Blend: AUG-CC-PVTZ-JKFIT

    Orbital Energies [Eh]
    ---------------------

    Doubly Occupied:

       1A    -11.245154     2A    -11.242570     3A    -11.241195
       4A    -11.237550     5A    -11.237118     6A    -11.236298
       7A    -11.235282     8A    -11.235150     9A    -11.234605
      10A    -11.234314    11A    -11.232055    12A    -11.231982
      13A    -11.225484    14A     -1.167999    15A     -1.141317
      16A     -1.065279    17A     -1.016554    18A     -1.008515
      19A     -1.004113    20A     -0.928795    21A     -0.840437
      22A     -0.832724    23A     -0.810951    24A     -0.779435
      25A     -0.711287    26A     -0.665159    27A     -0.645958
      28A     -0.641785    29A     -0.613546    30A     -0.613161
      31A     -0.587048    32A     -0.579804    33A     -0.576155
      34A     -0.570832    35A     -0.541321    36A     -0.512493
      37A     -0.508621    38A     -0.497437    39A     -0.481947
      40A     -0.480733    41A     -0.478901    42A     -0.359128
      43A     -0.337535    44A     -0.335823    45A     -0.296140

  @DF-RHF Final Energy:  -499.44935606969426

   => Energetics <=

    Nuclear Repulsion Energy =            687.2400835142071855
    One-Electron Energy =               -2037.9794957356223222
    Two-Electron Energy =                 851.2900561517207052
    Total Energy =                       -499.4493560696943177
  Basis Set: (AUG-CC-PVTZ AUX)
    Blend: AUG-CC-PVTZ-RI
    Molecular point group: c1

    Geometry (in Angstrom), charge = 0, multiplicity = 1:

       Center              X                  Y                   Z               Mass
    ------------   -----------------  -----------------  -----------------  -----------------
         C           -0.302535312774     0.000652595774    -0.000988677787    12.000000000000
         C            1.174483687226    -0.000135404226     0.000483322213    12.000000000000
         C           -3.136968312774     0.005378595774    -0.013311677787    12.000000000000
         C           -1.021746312774    -1.114243404226    -0.458281677787    12.000000000000
         C           -1.021960312774     1.118602595774     0.448393322213    12.000000000000
         C           -2.415752312774    -1.110098404226    -0.458392677787    12.000000000000
         C           -2.415926312774     1.117079595774     0.441399322213    12.000000000000
         C            1.888102687226    -1.121189404226     0.453314322213    12.000000000000
         C            1.891389687226     1.119670595774    -0.450183677787    12.000000000000
         C           -4.643028312774    -0.008124404226     0.020228322213    12.000000000000
         C            3.283118687226    -1.123049404226     0.452685322213    12.000000000000
         C            3.286419687226     1.119079595774    -0.445231677787    12.000000000000
         C            3.986901687226    -0.002556404226     0.004861322213    12.000000000000
         H           -0.482197312774    -1.978334404226    -0.841485677787     1.007825032230
         H           -0.482710312774     1.983854595774     0.829414322213     1.007825032230
         H           -2.953537312774    -1.981759404226    -0.829150677787     1.007825032230
         H           -2.953926312774     1.994388595774     0.798312322213     1.007825032230
         H            1.342454687226    -1.983728404226     0.830729322213     1.007825032230
         H            1.338499287226     1.998910895774    -0.836560977787     1.007825032230
         H           -5.048839312774     0.998748595774    -0.113663677787     1.007825032230
         H           -5.048361312774    -0.645616404226    -0.770785677787     1.007825032230
         H           -5.014287312774    -0.390757404226     0.977430322213     1.007825032230
         H            3.822115687226    -1.996371404226     0.813074322213     1.007825032230
         H            3.828027687226     1.991445595774    -0.804014677787     1.007825032230
         H            5.074251687226    -0.003482404226     0.006530322213     1.007825032230

  Basis Set: AUG-CC-PVTZ
    Blend: AUG-CC-PVTZ
  Basis Set: (AUG-CC-PVTZ AUX)
    Blend: AUG-CC-PVTZ-JKFIT
	 Reference Energy          =    -499.4493560696942609 [Eh]
	 Singles Energy            =      -0.0000000000000000 [Eh]
	 Same-Spin Energy          =      -0.5654352824450622 [Eh]
	 Opposite-Spin Energy      =      -1.7797816190355245 [Eh]
	 Correlation Energy        =      -2.3452169014805868 [Eh]
	 Total Energy              =    -501.7945729711748299 [Eh]

	 ================> DF-SCS-MP2 Energies <==================
	-----------------------------------------------------------
	 SCS Same-Spin Scale       =       0.3333333333333333 [-]
	 SCS Opposite-Spin Scale   =       1.2000000000000000 [-]
	 SCS Same-Spin Energy      =      -0.1884784274816874 [Eh]
	 SCS Opposite-Spin Energy  =      -2.1357379428426291 [Eh]
	 SCS Correlation Energy    =      -2.3242163703243164 [Eh]
	 SCS Total Energy          =    -501.7735724400185973 [Eh]
	-----------------------------------------------------------

  Dipole Moment: [D]
     X:    -0.4805      Y:    -0.0184      Z:     0.0390     Total:     0.4824

*** Psi4 exiting successfully. Buy a developer a beer!
