                               Psi4 1.4a3.dev225

  ==> Input File <==

--------------------------------------------------------------------------
#psi4
#
memory 32 gb

molecule  {
0 1
  C       -0.2663850     0.0008990    -0.0013960
  C        1.2106340     0.0001110     0.0000760
  C       -3.1008180     0.0056250    -0.0137190
  C       -0.9855960    -1.1139970    -0.4586890
  C       -0.9858100     1.1188490     0.4479860
  C       -2.3796020    -1.1098520    -0.4588000
  C       -2.3797760     1.1173260     0.4409920
  C        1.9242530    -1.1209430     0.4529070
  C        1.9275400     1.1199170    -0.4505910
  C       -4.6068780    -0.0078780     0.0198210
  C        3.3192690    -1.1228030     0.4522780
  C        3.3225700     1.1193260    -0.4456390
  C        4.0230520    -0.0023100     0.0044540
  H       -0.4708334    -1.9383925    -0.8242890
  H       -0.4465600     1.9841010     0.8290070
  H       -2.9173870    -1.9815130    -0.8295580
  H       -2.9177760     1.9946350     0.7979050
  H        1.3786050    -1.9834820     0.8303220
  H        1.3846280     1.9832890    -0.8299950
  H       -5.0126890     0.9989950    -0.1140710
  H       -5.0122110    -0.6453700    -0.7711930
  H       -4.9781370    -0.3905110     0.9770230
  H        3.8582660    -1.9961250     0.8126670
  H        3.8641780     1.9916920    -0.8044220
  H        5.1104020    -0.0032360     0.0061230
units angstrom
no_reorient  #important for SAPT in psi4, default
symmetry c1  #important for SAPT in psi4, default
}

set PROPERTIES_ORIGIN ["COM"]
properties('MP2/aug-cc-pvtz', properties = ['dipole'])
--------------------------------------------------------------------------

    Molecular point group: c1
  Charge       = 0
  Multiplicity = 1
  Basis Set: AUG-CC-PVTZ
    Blend: AUG-CC-PVTZ
  Basis Set: (AUG-CC-PVTZ AUX)
    Blend: AUG-CC-PVTZ-JKFIT

    Orbital Energies [Eh]
    ---------------------

    Doubly Occupied:

       1A    -11.244963     2A    -11.242269     3A    -11.240720
       4A    -11.237233     5A    -11.236986     6A    -11.234904
       7A    -11.234574     8A    -11.234398     9A    -11.234168
      10A    -11.231929    11A    -11.231860    12A    -11.229100
      13A    -11.225308    14A     -1.168135    15A     -1.141307
      16A     -1.065310    17A     -1.017565    18A     -1.009396
      19A     -1.004256    20A     -0.928734    21A     -0.842143
      22A     -0.833458    23A     -0.812735    24A     -0.780460
      25A     -0.712348    26A     -0.666792    27A     -0.646069
      28A     -0.645690    29A     -0.615112    30A     -0.613459
      31A     -0.588683    32A     -0.581582    33A     -0.576215
      34A     -0.570843    35A     -0.541291    36A     -0.513062
      37A     -0.508737    38A     -0.498400    39A     -0.482154
      40A     -0.480971    41A     -0.479641    42A     -0.358981
      43A     -0.337450    44A     -0.335702    45A     -0.295961

  @DF-RHF Final Energy:  -499.44935239418584

   => Energetics <=

    Nuclear Repulsion Energy =            687.5927670123327289
    One-Electron Energy =               -2038.6621354110295670
    Two-Electron Energy =                 851.6200160045111716
    Total Energy =                       -499.4493523941857802
  Basis Set: (AUG-CC-PVTZ AUX)
    Blend: AUG-CC-PVTZ-RI
    Molecular point group: c1

    Geometry (in Angstrom), charge = 0, multiplicity = 1:

       Center              X                  Y                   Z               Mass
    ------------   -----------------  -----------------  -----------------  -----------------
         C           -0.302446529820     0.000509737238    -0.001136033629    12.000000000000
         C            1.174572470180    -0.000278262762     0.000335966371    12.000000000000
         C           -3.136879529820     0.005235737238    -0.013459033629    12.000000000000
         C           -1.021657529820    -1.114386262762    -0.458429033629    12.000000000000
         C           -1.021871529820     1.118459737238     0.448245966371    12.000000000000
         C           -2.415663529820    -1.110241262762    -0.458540033629    12.000000000000
         C           -2.415837529820     1.116936737238     0.441251966371    12.000000000000
         C            1.888191470180    -1.121332262762     0.453166966371    12.000000000000
         C            1.891478470180     1.119527737238    -0.450331033629    12.000000000000
         C           -4.642939529820    -0.008267262762     0.020080966371    12.000000000000
         C            3.283207470180    -1.123192262762     0.452537966371    12.000000000000
         C            3.286508470180     1.118936737238    -0.445379033629    12.000000000000
         C            3.986990470180    -0.002699262762     0.004713966371    12.000000000000
         H           -0.506894929820    -1.938781762762    -0.824029033629     1.007825032230
         H           -0.482621529820     1.983711737238     0.829266966371     1.007825032230
         H           -2.953448529820    -1.981902262762    -0.829298033629     1.007825032230
         H           -2.953837529820     1.994245737238     0.798164966371     1.007825032230
         H            1.342543470180    -1.983871262762     0.830581966371     1.007825032230
         H            1.348566470180     1.982899737238    -0.829735033629     1.007825032230
         H           -5.048750529820     0.998605737238    -0.113811033629     1.007825032230
         H           -5.048272529820    -0.645759262762    -0.770933033629     1.007825032230
         H           -5.014198529820    -0.390900262762     0.977282966371     1.007825032230
         H            3.822204470180    -1.996514262762     0.812926966371     1.007825032230
         H            3.828116470180     1.991302737238    -0.804162033629     1.007825032230
         H            5.074340470180    -0.003625262762     0.006382966371     1.007825032230

  Basis Set: AUG-CC-PVTZ
    Blend: AUG-CC-PVTZ
  Basis Set: (AUG-CC-PVTZ AUX)
    Blend: AUG-CC-PVTZ-JKFIT
	 Reference Energy          =    -499.4493523941858371 [Eh]
	 Singles Energy            =      -0.0000000000000000 [Eh]
	 Same-Spin Energy          =      -0.5652430238773103 [Eh]
	 Opposite-Spin Energy      =      -1.7792242968553933 [Eh]
	 Correlation Energy        =      -2.3444673207327034 [Eh]
	 Total Energy              =    -501.7938197149185271 [Eh]

	 ================> DF-SCS-MP2 Energies <==================
	-----------------------------------------------------------
	 SCS Same-Spin Scale       =       0.3333333333333333 [-]
	 SCS Opposite-Spin Scale   =       1.2000000000000000 [-]
	 SCS Same-Spin Energy      =      -0.1884143412924368 [Eh]
	 SCS Opposite-Spin Energy  =      -2.1350691562264719 [Eh]
	 SCS Correlation Energy    =      -2.3234834975189087 [Eh]
	 SCS Total Energy          =    -501.7728358917047444 [Eh]
	-----------------------------------------------------------

  Dipole Moment: [D]
     X:    -0.4731      Y:    -0.0239      Z:     0.0320     Total:     0.4748

*** Psi4 exiting successfully. Buy a developer a beer!
