                               Psi4 1.4a3.dev225

  ==> Input File <==

--------------------------------------------------------------------------
#psi4
#
memory 32 gb

molecule  {
0 1
  C       -0.2663850     0.0008990    -0.0013960
  C        1.2106340     0.0001110     0.0000760
  C       -3.1008180     0.0056250    -0.0137190
  C       -0.9855960    -1.1139970    -0.4586890
  C       -0.9858100     1.1188490     0.4479860
  C       -2.3796020    -1.1098520    -0.4588000
  C       -2.2768368     1.2760375     0.5059086
  C        1.9242530    -1.1209430     0.4529070
  C        1.9275400     1.1199170    -0.4505910
  C       -4.6068780    -0.0078780     0.0198210
  C        3.3192690    -1.1228030     0.4522780
  C        3.3225700     1.1193260    -0.4456390
  C        4.0230520    -0.0023100     0.0044540
  H       -0.4460470    -1.9780880    -0.8418930
  H       -0.4465600     1.9841010     0.8290070
  H       -2.9173870    -1.9815130    -0.8295580
  H       -2.9177760     1.9946350     0.7979050
  H        1.3786050    -1.9834820     0.8303220
  H        1.3846280     1.9832890    -0.8299950
  H       -5.0126890     0.9989950    -0.1140710
  H       -5.0122110    -0.6453700    -0.7711930
  H       -4.9781370    -0.3905110     0.9770230
  H        3.8582660    -1.9961250     0.8126670
  H        3.8641780     1.9916920    -0.8044220
  H        5.1104020    -0.0032360     0.0061230
units angstrom
no_reorient  #important for SAPT in psi4, default
symmetry c1  #important for SAPT in psi4, default
}

set PROPERTIES_ORIGIN ["COM"]
properties('MP2/aug-cc-pvtz', properties = ['dipole'])
--------------------------------------------------------------------------

    Molecular point group: c1
  Charge       = 0
  Multiplicity = 1
  Basis Set: AUG-CC-PVTZ
    Blend: AUG-CC-PVTZ
  Basis Set: (AUG-CC-PVTZ AUX)
    Blend: AUG-CC-PVTZ-JKFIT

    Orbital Energies [Eh]
    ---------------------

    Doubly Occupied:

       1A    -11.258913     2A    -11.244741     3A    -11.240430
       4A    -11.237330     5A    -11.236219     6A    -11.235978
       7A    -11.234802     8A    -11.233416     9A    -11.233235
      10A    -11.233032    11A    -11.228934    12A    -11.227607
      13A    -11.226970    14A     -1.165580    15A     -1.135992
      16A     -1.056441    17A     -1.031018    18A     -1.011799
      19A     -1.001929    20A     -0.926540    21A     -0.840980
      22A     -0.826889    23A     -0.809407    24A     -0.778692
      25A     -0.714565    26A     -0.672509    27A     -0.653444
      28A     -0.637684    29A     -0.621137    30A     -0.609062
      31A     -0.592182    32A     -0.582942    33A     -0.574642
      34A     -0.568336    35A     -0.546839    36A     -0.514302
      37A     -0.508472    38A     -0.491955    39A     -0.489751
      40A     -0.479819    41A     -0.445412    42A     -0.355432
      43A     -0.351683    44A     -0.335690    45A     -0.284304

  @DF-RHF Final Energy:  -499.40873895886995

   => Energetics <=

    Nuclear Repulsion Energy =            685.7515384405027135
    One-Electron Energy =               -2034.9464857784435026
    Two-Electron Energy =                 849.7862083790710130
    Total Energy =                       -499.4087389588698898
  Basis Set: (AUG-CC-PVTZ AUX)
    Blend: AUG-CC-PVTZ-RI
    Molecular point group: c1

    Geometry (in Angstrom), charge = 0, multiplicity = 1:

       Center              X                  Y                   Z               Mass
    ------------   -----------------  -----------------  -----------------  -----------------
         C           -0.309943831932    -0.010582467043    -0.005664796698    12.000000000000
         C            1.167075168068    -0.011370467043    -0.004192796698    12.000000000000
         C           -3.144376831932    -0.005856467043    -0.017987796698    12.000000000000
         C           -1.029154831932    -1.125478467043    -0.462957796698    12.000000000000
         C           -1.029368831932     1.107367532957     0.443717203302    12.000000000000
         C           -2.423160831932    -1.121333467043    -0.463068796698    12.000000000000
         C           -2.320395631932     1.264556032957     0.501639803302    12.000000000000
         C            1.880694168068    -1.132424467043     0.448638203302    12.000000000000
         C            1.883981168068     1.108435532957    -0.454859796698    12.000000000000
         C           -4.650436831932    -0.019359467043     0.015552203302    12.000000000000
         C            3.275710168068    -1.134284467043     0.448009203302    12.000000000000
         C            3.279011168068     1.107844532957    -0.449907796698    12.000000000000
         C            3.979493168068    -0.013791467043     0.000185203302    12.000000000000
         H           -0.489605831932    -1.989569467043    -0.846161796698     1.007825032230
         H           -0.490118831932     1.972619532957     0.824738203302     1.007825032230
         H           -2.960945831932    -1.992994467043    -0.833826796698     1.007825032230
         H           -2.961334831932     1.983153532957     0.793636203302     1.007825032230
         H            1.335046168068    -1.994963467043     0.826053203302     1.007825032230
         H            1.341069168068     1.971807532957    -0.834263796698     1.007825032230
         H           -5.056247831932     0.987513532957    -0.118339796698     1.007825032230
         H           -5.055769831932    -0.656851467043    -0.775461796698     1.007825032230
         H           -5.021695831932    -0.401992467043     0.972754203302     1.007825032230
         H            3.814707168068    -2.007606467043     0.808398203302     1.007825032230
         H            3.820619168068     1.980210532957    -0.808690796698     1.007825032230
         H            5.066843168068    -0.014717467043     0.001854203302     1.007825032230

  Basis Set: AUG-CC-PVTZ
    Blend: AUG-CC-PVTZ
  Basis Set: (AUG-CC-PVTZ AUX)
    Blend: AUG-CC-PVTZ-JKFIT
	 Reference Energy          =    -499.4087389588699466 [Eh]
	 Singles Energy            =      -0.0000000000000000 [Eh]
	 Same-Spin Energy          =      -0.5649629119957046 [Eh]
	 Opposite-Spin Energy      =      -1.7818453296909293 [Eh]
	 Correlation Energy        =      -2.3468082416866340 [Eh]
	 Total Energy              =    -501.7555472005565775 [Eh]

	 ================> DF-SCS-MP2 Energies <==================
	-----------------------------------------------------------
	 SCS Same-Spin Scale       =       0.3333333333333333 [-]
	 SCS Opposite-Spin Scale   =       1.2000000000000000 [-]
	 SCS Same-Spin Energy      =      -0.1883209706652348 [Eh]
	 SCS Opposite-Spin Energy  =      -2.1382143956291153 [Eh]
	 SCS Correlation Energy    =      -2.3265353662943502 [Eh]
	 SCS Total Energy          =    -501.7352743251643119 [Eh]
	-----------------------------------------------------------

  Dipole Moment: [D]
     X:    -0.5825      Y:     0.0185      Z:     0.0514     Total:     0.5850

*** Psi4 exiting successfully. Buy a developer a beer!
