                               Psi4 1.4a3.dev225

  ==> Input File <==

--------------------------------------------------------------------------
#psi4
#
memory 32 gb

molecule  {
0 1
  C       -0.2663850     0.0008990    -0.0013960
  C        1.2106340     0.0001110     0.0000760
  C       -3.1008180     0.0056250    -0.0137190
  C       -0.9855960    -1.1139970    -0.4586890
  C       -0.9858100     1.1188490     0.4479860
  C       -2.3796020    -1.1098520    -0.4588000
  C       -2.3797760     1.1173260     0.4409920
  C        1.9242530    -1.1209430     0.4529070
  C        1.9275400     1.1199170    -0.4505910
  C       -4.8068204    -0.0096706     0.0242737
  C        3.3192690    -1.1228030     0.4522780
  C        3.3225700     1.1193260    -0.4456390
  C        4.0230520    -0.0023100     0.0044540
  H       -0.4460470    -1.9780880    -0.8418930
  H       -0.4465600     1.9841010     0.8290070
  H       -2.9173870    -1.9815130    -0.8295580
  H       -2.9177760     1.9946350     0.7979050
  H        1.3786050    -1.9834820     0.8303220
  H        1.3846280     1.9832890    -0.8299950
  H       -5.0126890     0.9989950    -0.1140710
  H       -5.0122110    -0.6453700    -0.7711930
  H       -4.9781370    -0.3905110     0.9770230
  H        3.8582660    -1.9961250     0.8126670
  H        3.8641780     1.9916920    -0.8044220
  H        5.1104020    -0.0032360     0.0061230
units angstrom
no_reorient  #important for SAPT in psi4, default
symmetry c1  #important for SAPT in psi4, default
}

set PROPERTIES_ORIGIN ["COM"]
properties('MP2/aug-cc-pvtz', properties = ['dipole'])
--------------------------------------------------------------------------

    Molecular point group: c1
  Charge       = 0
  Multiplicity = 1
  Basis Set: AUG-CC-PVTZ
    Blend: AUG-CC-PVTZ
  Basis Set: (AUG-CC-PVTZ AUX)
    Blend: AUG-CC-PVTZ-JKFIT

    Orbital Energies [Eh]
    ---------------------

    Doubly Occupied:

       1A    -11.248670     2A    -11.244591     3A    -11.240628
       4A    -11.236877     5A    -11.236629     6A    -11.234787
       7A    -11.234655     8A    -11.234215     9A    -11.234015
      10A    -11.233809    11A    -11.232017    12A    -11.231966
      13A    -11.225515    14A     -1.166343    15A     -1.137854
      16A     -1.055732    17A     -1.016229    18A     -1.007921
      19A     -0.996573    20A     -0.936225    21A     -0.839194
      22A     -0.834811    23A     -0.809759    24A     -0.778668
      25A     -0.711276    26A     -0.664065    27A     -0.644141
      28A     -0.632321    29A     -0.614377    30A     -0.613303
      31A     -0.600079    32A     -0.587499    33A     -0.580881
      34A     -0.572369    35A     -0.560298    36A     -0.510594
      37A     -0.499350    38A     -0.495709    39A     -0.484940
      40A     -0.480002    41A     -0.447394    42A     -0.360394
      43A     -0.336988    44A     -0.335173    45A     -0.297049

  @DF-RHF Final Energy:  -499.42294282053194

   => Energetics <=

    Nuclear Repulsion Energy =            684.0175397312226551
    One-Electron Energy =               -2031.5291951523745411
    Two-Electron Energy =                 848.0887126006198287
    Total Energy =                       -499.4229428205319437
  Basis Set: (AUG-CC-PVTZ AUX)
    Blend: AUG-CC-PVTZ-RI
    Molecular point group: c1

    Geometry (in Angstrom), charge = 0, multiplicity = 1:

       Center              X                  Y                   Z               Mass
    ------------   -----------------  -----------------  -----------------  -----------------
         C           -0.288321517311     0.000875707201    -0.001348359288    12.000000000000
         C            1.188697482689     0.000087707201     0.000123640712    12.000000000000
         C           -3.122754517311     0.005601707201    -0.013671359288    12.000000000000
         C           -1.007532517311    -1.114020292799    -0.458641359288    12.000000000000
         C           -1.007746517311     1.118825707201     0.448033640712    12.000000000000
         C           -2.401538517311    -1.109875292799    -0.458752359288    12.000000000000
         C           -2.401712517311     1.117302707201     0.441039640712    12.000000000000
         C            1.902316482689    -1.120966292799     0.452954640712    12.000000000000
         C            1.905603482689     1.119893707201    -0.450543359288    12.000000000000
         C           -4.828756917311    -0.009693892799     0.024321340712    12.000000000000
         C            3.297332482689    -1.122826292799     0.452325640712    12.000000000000
         C            3.300633482689     1.119302707201    -0.445591359288    12.000000000000
         C            4.001115482689    -0.002333292799     0.004501640712    12.000000000000
         H           -0.467983517311    -1.978111292799    -0.841845359288     1.007825032230
         H           -0.468496517311     1.984077707201     0.829054640712     1.007825032230
         H           -2.939323517311    -1.981536292799    -0.829510359288     1.007825032230
         H           -2.939712517311     1.994611707201     0.797952640712     1.007825032230
         H            1.356668482689    -1.983505292799     0.830369640712     1.007825032230
         H            1.362691482689     1.983265707201    -0.829947359288     1.007825032230
         H           -5.034625517311     0.998971707201    -0.114023359288     1.007825032230
         H           -5.034147517311    -0.645393292799    -0.771145359288     1.007825032230
         H           -5.000073517311    -0.390534292799     0.977070640712     1.007825032230
         H            3.836329482689    -1.996148292799     0.812714640712     1.007825032230
         H            3.842241482689     1.991668707201    -0.804374359288     1.007825032230
         H            5.088465482689    -0.003259292799     0.006170640712     1.007825032230

  Basis Set: AUG-CC-PVTZ
    Blend: AUG-CC-PVTZ
  Basis Set: (AUG-CC-PVTZ AUX)
    Blend: AUG-CC-PVTZ-JKFIT
	 Reference Energy          =    -499.4229428205319437 [Eh]
	 Singles Energy            =      -0.0000000000000000 [Eh]
	 Same-Spin Energy          =      -0.5651848363500879 [Eh]
	 Opposite-Spin Energy      =      -1.7807335512742768 [Eh]
	 Correlation Energy        =      -2.3459183876243648 [Eh]
	 Total Energy              =    -501.7688612081562951 [Eh]

	 ================> DF-SCS-MP2 Energies <==================
	-----------------------------------------------------------
	 SCS Same-Spin Scale       =       0.3333333333333333 [-]
	 SCS Opposite-Spin Scale   =       1.2000000000000000 [-]
	 SCS Same-Spin Energy      =      -0.1883949454500293 [Eh]
	 SCS Opposite-Spin Energy  =      -2.1368802615291322 [Eh]
	 SCS Correlation Energy    =      -2.3252752069791613 [Eh]
	 SCS Total Energy          =    -501.7482180275110863 [Eh]
	-----------------------------------------------------------

  Dipole Moment: [D]
     X:    -0.4077      Y:    -0.0121      Z:     0.0321     Total:     0.4092

*** Psi4 exiting successfully. Buy a developer a beer!
