                               Psi4 1.4a3.dev225

  ==> Input File <==

--------------------------------------------------------------------------
#psi4
#
memory 32 gb

molecule  {
0 1
  C       -0.2663850     0.0008990    -0.0013960
  C        1.2106340     0.0001110     0.0000760
  C       -3.1008180     0.0056250    -0.0137190
  C       -0.9855960    -1.1139970    -0.4586890
  C       -0.9858100     1.1188490     0.4479860
  C       -2.3723567    -1.2430337    -0.5179693
  C       -2.3797760     1.1173260     0.4409920
  C        1.9242530    -1.1209430     0.4529070
  C        1.9275400     1.1199170    -0.4505910
  C       -4.6068780    -0.0078780     0.0198210
  C        3.3192690    -1.1228030     0.4522780
  C        3.3225700     1.1193260    -0.4456390
  C        4.0230520    -0.0023100     0.0044540
  H       -0.4460470    -1.9780880    -0.8418930
  H       -0.4465600     1.9841010     0.8290070
  H       -2.9173870    -1.9815130    -0.8295580
  H       -2.9177760     1.9946350     0.7979050
  H        1.3786050    -1.9834820     0.8303220
  H        1.3846280     1.9832890    -0.8299950
  H       -5.0126890     0.9989950    -0.1140710
  H       -5.0122110    -0.6453700    -0.7711930
  H       -4.9781370    -0.3905110     0.9770230
  H        3.8582660    -1.9961250     0.8126670
  H        3.8641780     1.9916920    -0.8044220
  H        5.1104020    -0.0032360     0.0061230
units angstrom
no_reorient  #important for SAPT in psi4, default
symmetry c1  #important for SAPT in psi4, default
}

set PROPERTIES_ORIGIN ["COM"]
properties('MP2/aug-cc-pvtz', properties = ['dipole'])
--------------------------------------------------------------------------

    Molecular point group: c1
  Charge       = 0
  Multiplicity = 1
  Basis Set: AUG-CC-PVTZ
    Blend: AUG-CC-PVTZ
  Basis Set: (AUG-CC-PVTZ AUX)
    Blend: AUG-CC-PVTZ-JKFIT

    Orbital Energies [Eh]
    ---------------------

    Doubly Occupied:

       1A    -11.256595     2A    -11.245233     3A    -11.241329
       4A    -11.238538     5A    -11.238287     6A    -11.236669
       7A    -11.236421     8A    -11.235894     9A    -11.233973
      10A    -11.233770    11A    -11.233523    12A    -11.231070
      13A    -11.225367    14A     -1.164517    15A     -1.134615
      16A     -1.059877    17A     -1.018968    18A     -1.010362
      19A     -1.002898    20A     -0.926924    21A     -0.844949
      22A     -0.828068    23A     -0.813991    24A     -0.777345
      25A     -0.715409    26A     -0.671792    27A     -0.650614
      28A     -0.637410    29A     -0.623839    30A     -0.610959
      31A     -0.590922    32A     -0.582968    33A     -0.574380
      34A     -0.570265    35A     -0.544885    36A     -0.512297
      37A     -0.507768    38A     -0.494520    39A     -0.488936
      40A     -0.476810    41A     -0.461730    42A     -0.355328
      43A     -0.339742    44A     -0.335997    45A     -0.289736

  @DF-RHF Final Energy:  -499.42142303147358

   => Energetics <=

    Nuclear Repulsion Energy =            685.1239328884062161
    One-Electron Energy =               -2033.6797384604897161
    Two-Electron Energy =                 849.1343825406098631
    Total Energy =                       -499.4214230314736369
  Basis Set: (AUG-CC-PVTZ AUX)
    Blend: AUG-CC-PVTZ-RI
    Molecular point group: c1

    Geometry (in Angstrom), charge = 0, multiplicity = 1:

       Center              X                  Y                   Z               Mass
    ------------   -----------------  -----------------  -----------------  -----------------
         C           -0.303112371674     0.010255400315     0.003193530681    12.000000000000
         C            1.173906628326     0.009467400315     0.004665530681    12.000000000000
         C           -3.137545371674     0.014981400315    -0.009129469319    12.000000000000
         C           -1.022323371674    -1.104640599685    -0.454099469319    12.000000000000
         C           -1.022537371674     1.128205400315     0.452575530681    12.000000000000
         C           -2.409084071674    -1.233677299685    -0.513379769319    12.000000000000
         C           -2.416503371674     1.126682400315     0.445581530681    12.000000000000
         C            1.887525628326    -1.111586599685     0.457496530681    12.000000000000
         C            1.890812628326     1.129273400315    -0.446001469319    12.000000000000
         C           -4.643605371674     0.001478400315     0.024410530681    12.000000000000
         C            3.282541628326    -1.113446599685     0.456867530681    12.000000000000
         C            3.285842628326     1.128682400315    -0.441049469319    12.000000000000
         C            3.986324628326     0.007046400315     0.009043530681    12.000000000000
         H           -0.482774371674    -1.968731599685    -0.837303469319     1.007825032230
         H           -0.483287371674     1.993457400315     0.833596530681     1.007825032230
         H           -2.954114371674    -1.972156599685    -0.824968469319     1.007825032230
         H           -2.954503371674     2.003991400315     0.802494530681     1.007825032230
         H            1.341877628326    -1.974125599685     0.834911530681     1.007825032230
         H            1.347900628326     1.992645400315    -0.825405469319     1.007825032230
         H           -5.049416371674     1.008351400315    -0.109481469319     1.007825032230
         H           -5.048938371674    -0.636013599685    -0.766603469319     1.007825032230
         H           -5.014864371674    -0.381154599685     0.981612530681     1.007825032230
         H            3.821538628326    -1.986768599685     0.817256530681     1.007825032230
         H            3.827450628326     2.001048400315    -0.799832469319     1.007825032230
         H            5.073674628326     0.006120400315     0.010712530681     1.007825032230

  Basis Set: AUG-CC-PVTZ
    Blend: AUG-CC-PVTZ
  Basis Set: (AUG-CC-PVTZ AUX)
    Blend: AUG-CC-PVTZ-JKFIT
	 Reference Energy          =    -499.4214230314735801 [Eh]
	 Singles Energy            =      -0.0000000000000000 [Eh]
	 Same-Spin Energy          =      -0.5654735034911405 [Eh]
	 Opposite-Spin Energy      =      -1.7815830996779014 [Eh]
	 Correlation Energy        =      -2.3470566031690421 [Eh]
	 Total Energy              =    -501.7684796346426310 [Eh]

	 ================> DF-SCS-MP2 Energies <==================
	-----------------------------------------------------------
	 SCS Same-Spin Scale       =       0.3333333333333333 [-]
	 SCS Opposite-Spin Scale   =       1.2000000000000000 [-]
	 SCS Same-Spin Energy      =      -0.1884911678303801 [Eh]
	 SCS Opposite-Spin Energy  =      -2.1378997196134817 [Eh]
	 SCS Correlation Energy    =      -2.3263908874438619 [Eh]
	 SCS Total Energy          =    -501.7478139189174158 [Eh]
	-----------------------------------------------------------

  Dipole Moment: [D]
     X:    -0.5161      Y:    -0.0365      Z:     0.0370     Total:     0.5188

*** Psi4 exiting successfully. Buy a developer a beer!
