                               Psi4 1.4a3.dev225

  ==> Input File <==

--------------------------------------------------------------------------
#psi4
#
memory 32 gb

molecule  {
0 1
  C       -0.2663850     0.0008990    -0.0013960
  C        1.2106340     0.0001110     0.0000760
  C       -3.1008180     0.0056250    -0.0137190
  C       -0.9855960    -1.1139970    -0.4586890
  C       -0.9858100     1.1188490     0.4479860
  C       -2.3796020    -1.1098520    -0.4588000
  C       -2.3797760     1.1173260     0.4409920
  C        1.9242530    -1.1209430     0.4529070
  C        1.9275400     1.1199170    -0.4505910
  C       -4.6068780    -0.0078780     0.0198210
  C        3.3192690    -1.1228030     0.4522780
  C        3.2725703     1.1193472    -0.4458165
  C        4.0230520    -0.0023100     0.0044540
  H       -0.4460470    -1.9780880    -0.8418930
  H       -0.4465600     1.9841010     0.8290070
  H       -2.9173870    -1.9815130    -0.8295580
  H       -2.9177760     1.9946350     0.7979050
  H        1.3786050    -1.9834820     0.8303220
  H        1.3846280     1.9832890    -0.8299950
  H       -5.0126890     0.9989950    -0.1140710
  H       -5.0122110    -0.6453700    -0.7711930
  H       -4.9781370    -0.3905110     0.9770230
  H        3.8582660    -1.9961250     0.8126670
  H        3.8641780     1.9916920    -0.8044220
  H        5.1104020    -0.0032360     0.0061230
units angstrom
no_reorient  #important for SAPT in psi4, default
symmetry c1  #important for SAPT in psi4, default
}

set PROPERTIES_ORIGIN ["COM"]
properties('MP2/aug-cc-pvtz', properties = ['dipole'])
--------------------------------------------------------------------------

    Molecular point group: c1
  Charge       = 0
  Multiplicity = 1
  Basis Set: AUG-CC-PVTZ
    Blend: AUG-CC-PVTZ
  Basis Set: (AUG-CC-PVTZ AUX)
    Blend: AUG-CC-PVTZ-JKFIT

    Orbital Energies [Eh]
    ---------------------

    Doubly Occupied:

       1A    -11.245181     2A    -11.242681     3A    -11.241234
       4A    -11.237374     5A    -11.236300     6A    -11.235561
       7A    -11.235444     8A    -11.235232     9A    -11.233536
      10A    -11.232191    11A    -11.232052    12A    -11.228688
      13A    -11.225559    14A     -1.169334    15A     -1.142737
      16A     -1.064347    17A     -1.021179    18A     -1.010621
      19A     -1.001837    20A     -0.928882    21A     -0.839129
      22A     -0.835367    23A     -0.808841    24A     -0.780187
      25A     -0.711697    26A     -0.666505    27A     -0.646951
      28A     -0.640674    29A     -0.615509    30A     -0.610248
      31A     -0.588782    32A     -0.580294    33A     -0.576508
      34A     -0.569814    35A     -0.541385    36A     -0.516362
      37A     -0.509806    38A     -0.493187    39A     -0.482873
      40A     -0.482431    41A     -0.475523    42A     -0.357007
      43A     -0.343041    44A     -0.336570    45A     -0.294384

  @DF-RHF Final Energy:  -499.44692872907933

   => Energetics <=

    Nuclear Repulsion Energy =            688.0011211923809924
    One-Electron Energy =               -2039.4900066520806377
    Two-Electron Energy =                 852.0419567306204272
    Total Energy =                       -499.4469287290793318
  Basis Set: (AUG-CC-PVTZ AUX)
    Blend: AUG-CC-PVTZ-RI
    Molecular point group: c1

    Geometry (in Angstrom), charge = 0, multiplicity = 1:

       Center              X                  Y                   Z               Mass
    ------------   -----------------  -----------------  -----------------  -----------------
         C           -0.299025727255     0.000746222431    -0.001017815468    12.000000000000
         C            1.177993272745    -0.000041777569     0.000454184532    12.000000000000
         C           -3.133458727255     0.005472222431    -0.013340815468    12.000000000000
         C           -1.018236727255    -1.114149777569    -0.458310815468    12.000000000000
         C           -1.018450727255     1.118696222431     0.448364184532    12.000000000000
         C           -2.412242727255    -1.110004777569    -0.458421815468    12.000000000000
         C           -2.412416727255     1.117173222431     0.441370184532    12.000000000000
         C            1.891612272745    -1.121095777569     0.453285184532    12.000000000000
         C            1.894899272745     1.119764222431    -0.450212815468    12.000000000000
         C           -4.639518727255    -0.008030777569     0.020199184532    12.000000000000
         C            3.286628272745    -1.122955777569     0.452656184532    12.000000000000
         C            3.239929572745     1.119194422431    -0.445438315468    12.000000000000
         C            3.990411272745    -0.002462777569     0.004832184532    12.000000000000
         H           -0.478687727255    -1.978240777569    -0.841514815468     1.007825032230
         H           -0.479200727255     1.983948222431     0.829385184532     1.007825032230
         H           -2.950027727255    -1.981665777569    -0.829179815468     1.007825032230
         H           -2.950416727255     1.994482222431     0.798283184532     1.007825032230
         H            1.345964272745    -1.983634777569     0.830700184532     1.007825032230
         H            1.351987272745     1.983136222431    -0.829616815468     1.007825032230
         H           -5.045329727255     0.998842222431    -0.113692815468     1.007825032230
         H           -5.044851727255    -0.645522777569    -0.770814815468     1.007825032230
         H           -5.010777727255    -0.390663777569     0.977401184532     1.007825032230
         H            3.825625272745    -1.996277777569     0.813045184532     1.007825032230
         H            3.831537272745     1.991539222431    -0.804043815468     1.007825032230
         H            5.077761272745    -0.003388777569     0.006501184532     1.007825032230

  Basis Set: AUG-CC-PVTZ
    Blend: AUG-CC-PVTZ
  Basis Set: (AUG-CC-PVTZ AUX)
    Blend: AUG-CC-PVTZ-JKFIT
	 Reference Energy          =    -499.4469287290793318 [Eh]
	 Singles Energy            =      -0.0000000000000000 [Eh]
	 Same-Spin Energy          =      -0.5653721476868786 [Eh]
	 Opposite-Spin Energy      =      -1.7796160221851400 [Eh]
	 Correlation Energy        =      -2.3449881698720185 [Eh]
	 Total Energy              =    -501.7919168989513423 [Eh]

	 ================> DF-SCS-MP2 Energies <==================
	-----------------------------------------------------------
	 SCS Same-Spin Scale       =       0.3333333333333333 [-]
	 SCS Opposite-Spin Scale   =       1.2000000000000000 [-]
	 SCS Same-Spin Energy      =      -0.1884573825622929 [Eh]
	 SCS Opposite-Spin Energy  =      -2.1355392266221678 [Eh]
	 SCS Correlation Energy    =      -2.3239966091844608 [Eh]
	 SCS Total Energy          =    -501.7709253382637939 [Eh]
	-----------------------------------------------------------

  Dipole Moment: [D]
     X:    -0.4812      Y:    -0.0292      Z:     0.0439     Total:     0.4841

*** Psi4 exiting successfully. Buy a developer a beer!
