                               Psi4 1.4a3.dev225

  ==> Input File <==

--------------------------------------------------------------------------
#psi4
#
memory 32 gb

molecule  {
0 1
  C       -0.2663850     0.0008990    -0.0013960
  C        1.2106340     0.0001110     0.0000760
  C       -3.1008180     0.0056250    -0.0137190
  C       -0.9855960    -1.1139970    -0.4586890
  C       -0.9858100     1.1188490     0.4479860
  C       -2.3796020    -1.1098520    -0.4588000
  C       -2.3797760     1.1173260     0.4409920
  C        1.9242530    -1.1209430     0.4529070
  C        1.9275400     1.1199170    -0.4505910
  C       -4.6068780    -0.0078780     0.0198210
  C        3.3192690    -1.1228030     0.4522780
  C        3.3225700     1.1193260    -0.4456390
  C        4.0230520    -0.0023100     0.0044540
  H       -0.4956197    -1.8986970    -0.8066849
  H       -0.4465600     1.9841010     0.8290070
  H       -2.9173870    -1.9815130    -0.8295580
  H       -2.9177760     1.9946350     0.7979050
  H        1.3786050    -1.9834820     0.8303220
  H        1.3846280     1.9832890    -0.8299950
  H       -5.0126890     0.9989950    -0.1140710
  H       -5.0122110    -0.6453700    -0.7711930
  H       -4.9781370    -0.3905110     0.9770230
  H        3.8582660    -1.9961250     0.8126670
  H        3.8641780     1.9916920    -0.8044220
  H        5.1104020    -0.0032360     0.0061230
units angstrom
no_reorient  #important for SAPT in psi4, default
symmetry c1  #important for SAPT in psi4, default
}

set PROPERTIES_ORIGIN ["COM"]
properties('MP2/aug-cc-pvtz', properties = ['dipole'])
--------------------------------------------------------------------------

    Molecular point group: c1
  Charge       = 0
  Multiplicity = 1
  Basis Set: AUG-CC-PVTZ
    Blend: AUG-CC-PVTZ
  Basis Set: (AUG-CC-PVTZ AUX)
    Blend: AUG-CC-PVTZ-JKFIT

    Orbital Energies [Eh]
    ---------------------

    Doubly Occupied:

       1A    -11.244993     2A    -11.241988     3A    -11.240329
       4A    -11.237307     5A    -11.237059     6A    -11.234646
       7A    -11.234597     8A    -11.234464     9A    -11.234223
      10A    -11.231773    11A    -11.231463    12A    -11.225141
      13A    -11.223179    14A     -1.168323    15A     -1.141350
      16A     -1.065443    17A     -1.018662    18A     -1.010181
      19A     -1.004319    20A     -0.928650    21A     -0.844239
      22A     -0.833995    23A     -0.814099    24A     -0.781446
      25A     -0.712962    26A     -0.667937    27A     -0.650200
      28A     -0.645636    29A     -0.616377    30A     -0.613419
      31A     -0.589669    32A     -0.582531    33A     -0.576102
      34A     -0.570729    35A     -0.541255    36A     -0.513454
      37A     -0.508806    38A     -0.498812    39A     -0.482769
      40A     -0.481038    41A     -0.479675    42A     -0.358910
      43A     -0.337445    44A     -0.335622    45A     -0.295851

  @DF-RHF Final Energy:  -499.44440602857503

   => Energetics <=

    Nuclear Repulsion Energy =            687.8659539699692687
    One-Electron Energy =               -2039.1785852786526902
    Two-Electron Energy =                 851.8682252801083905
    Total Energy =                       -499.4444060285750311
  Basis Set: (AUG-CC-PVTZ AUX)
    Blend: AUG-CC-PVTZ-RI
    Molecular point group: c1

    Geometry (in Angstrom), charge = 0, multiplicity = 1:

       Center              X                  Y                   Z               Mass
    ------------   -----------------  -----------------  -----------------  -----------------
         C           -0.302297920896     0.000271738604    -0.001241580901    12.000000000000
         C            1.174721079104    -0.000516261396     0.000230419099    12.000000000000
         C           -3.136730920896     0.004997738604    -0.013564580901    12.000000000000
         C           -1.021508920896    -1.114624261396    -0.458534580901    12.000000000000
         C           -1.021722920896     1.118221738604     0.448140419099    12.000000000000
         C           -2.415514920896    -1.110479261396    -0.458645580901    12.000000000000
         C           -2.415688920896     1.116698738604     0.441146419099    12.000000000000
         C            1.888340079104    -1.121570261396     0.453061419099    12.000000000000
         C            1.891627079104     1.119289738604    -0.450436580901    12.000000000000
         C           -4.642790920896    -0.008505261396     0.019975419099    12.000000000000
         C            3.283356079104    -1.123430261396     0.452432419099    12.000000000000
         C            3.286657079104     1.118698738604    -0.445484580901    12.000000000000
         C            3.987139079104    -0.002937261396     0.004608419099    12.000000000000
         H           -0.531532620896    -1.899324261396    -0.806530480901     1.007825032230
         H           -0.482472920896     1.983473738604     0.829161419099     1.007825032230
         H           -2.953299920896    -1.982140261396    -0.829403580901     1.007825032230
         H           -2.953688920896     1.994007738604     0.798059419099     1.007825032230
         H            1.342692079104    -1.984109261396     0.830476419099     1.007825032230
         H            1.348715079104     1.982661738604    -0.829840580901     1.007825032230
         H           -5.048601920896     0.998367738604    -0.113916580901     1.007825032230
         H           -5.048123920896    -0.645997261396    -0.771038580901     1.007825032230
         H           -5.014049920896    -0.391138261396     0.977177419099     1.007825032230
         H            3.822353079104    -1.996752261396     0.812821419099     1.007825032230
         H            3.828265079104     1.991064738604    -0.804267580901     1.007825032230
         H            5.074489079104    -0.003863261396     0.006277419099     1.007825032230

  Basis Set: AUG-CC-PVTZ
    Blend: AUG-CC-PVTZ
  Basis Set: (AUG-CC-PVTZ AUX)
    Blend: AUG-CC-PVTZ-JKFIT
	 Reference Energy          =    -499.4444060285750311 [Eh]
	 Singles Energy            =      -0.0000000000000000 [Eh]
	 Same-Spin Energy          =      -0.5651342886551781 [Eh]
	 Opposite-Spin Energy      =      -1.7789684186476131 [Eh]
	 Correlation Energy        =      -2.3441027073027914 [Eh]
	 Total Energy              =    -501.7885087358778264 [Eh]

	 ================> DF-SCS-MP2 Energies <==================
	-----------------------------------------------------------
	 SCS Same-Spin Scale       =       0.3333333333333333 [-]
	 SCS Opposite-Spin Scale   =       1.2000000000000000 [-]
	 SCS Same-Spin Energy      =      -0.1883780962183927 [Eh]
	 SCS Opposite-Spin Energy  =      -2.1347621023771355 [Eh]
	 SCS Correlation Energy    =      -2.3231401985955280 [Eh]
	 SCS Total Energy          =    -501.7675462271705555 [Eh]
	-----------------------------------------------------------

  Dipole Moment: [D]
     X:    -0.4634      Y:    -0.0312      Z:     0.0285     Total:     0.4654

*** Psi4 exiting successfully. Buy a developer a beer!
