                               Psi4 1.4a3.dev225

  ==> Input File <==

--------------------------------------------------------------------------
#psi4
#
memory 32 gb

molecule  {
0 1
  C       -0.2663850     0.0008990    -0.0013960
  C        1.2106340     0.0001110     0.0000760
  C       -3.1008180     0.0056250    -0.0137190
  C       -0.9855960    -1.1139970    -0.4586890
  C       -0.9858100     1.1188490     0.4479860
  C       -2.3796020    -1.1098520    -0.4588000
  C       -2.3797760     1.1173260     0.4409920
  C        1.9242530    -1.1209430     0.4529070
  C        1.9275400     1.1199170    -0.4505910
  C       -4.6068780    -0.0078780     0.0198210
  C        3.3192690    -1.1228030     0.4522780
  C        3.3225700     1.1193260    -0.4456390
  C        4.0230520    -0.0023100     0.0044540
  H       -0.4460470    -1.9780880    -0.8418930
  H       -0.4465600     1.9841010     0.8290070
  H       -2.9173870    -1.9815130    -0.8295580
  H       -2.9177760     1.9946350     0.7979050
  H        1.3786050    -1.9834820     0.8303220
  H        1.4345202     1.9039473    -0.7951287
  H       -5.0126890     0.9989950    -0.1140710
  H       -5.0122110    -0.6453700    -0.7711930
  H       -4.9781370    -0.3905110     0.9770230
  H        3.8582660    -1.9961250     0.8126670
  H        3.8641780     1.9916920    -0.8044220
  H        5.1104020    -0.0032360     0.0061230
units angstrom
no_reorient  #important for SAPT in psi4, default
symmetry c1  #important for SAPT in psi4, default
}

set PROPERTIES_ORIGIN ["COM"]
properties('MP2/aug-cc-pvtz', properties = ['dipole'])
--------------------------------------------------------------------------

    Molecular point group: c1
  Charge       = 0
  Multiplicity = 1
  Basis Set: AUG-CC-PVTZ
    Blend: AUG-CC-PVTZ
  Basis Set: (AUG-CC-PVTZ AUX)
    Blend: AUG-CC-PVTZ-JKFIT

    Orbital Energies [Eh]
    ---------------------

    Doubly Occupied:

       1A    -11.244068     2A    -11.242683     3A    -11.241242
       4A    -11.236724     5A    -11.236137     6A    -11.235471
       7A    -11.235257     8A    -11.233801     9A    -11.233541
      10A    -11.232241    11A    -11.232142    12A    -11.225573
      13A    -11.222502    14A     -1.168316    15A     -1.141447
      16A     -1.065204    17A     -1.019046    18A     -1.009855
      19A     -1.004324    20A     -0.929313    21A     -0.843628
      22A     -0.833804    23A     -0.814555    24A     -0.779961
      25A     -0.715455    26A     -0.671801    27A     -0.645962
      28A     -0.643292    29A     -0.617040    30A     -0.613091
      31A     -0.590982    32A     -0.581172    33A     -0.576684
      34A     -0.571212    35A     -0.541419    36A     -0.513979
      37A     -0.508800    38A     -0.499703    39A     -0.481864
      40A     -0.481093    41A     -0.479711    42A     -0.358807
      43A     -0.337405    44A     -0.335632    45A     -0.295919

  @DF-RHF Final Energy:  -499.44438903963385

   => Energetics <=

    Nuclear Repulsion Energy =            687.8488277156259301
    One-Electron Energy =               -2039.1427188832499269
    Two-Electron Energy =                 851.8495021279901493
    Total Energy =                       -499.4443890396338475
  Basis Set: (AUG-CC-PVTZ AUX)
    Blend: AUG-CC-PVTZ-RI
    Molecular point group: c1

    Geometry (in Angstrom), charge = 0, multiplicity = 1:

       Center              X                  Y                   Z               Mass
    ------------   -----------------  -----------------  -----------------  -----------------
         C           -0.302894273386     0.001223437554    -0.001239531603    12.000000000000
         C            1.174124726614     0.000435437554     0.000232468397    12.000000000000
         C           -3.137327273386     0.005949437554    -0.013562531603    12.000000000000
         C           -1.022105273386    -1.113672562446    -0.458532531603    12.000000000000
         C           -1.022319273386     1.119173437554     0.448142468397    12.000000000000
         C           -2.416111273386    -1.109527562446    -0.458643531603    12.000000000000
         C           -2.416285273386     1.117650437554     0.441148468397    12.000000000000
         C            1.887743726614    -1.120618562446     0.453063468397    12.000000000000
         C            1.891030726614     1.120241437554    -0.450434531603    12.000000000000
         C           -4.643387273386    -0.007553562446     0.019977468397    12.000000000000
         C            3.282759726614    -1.122478562446     0.452434468397    12.000000000000
         C            3.286060726614     1.119650437554    -0.445482531603    12.000000000000
         C            3.986542726614    -0.001985562446     0.004610468397    12.000000000000
         H           -0.482556273386    -1.977763562446    -0.841736531603     1.007825032230
         H           -0.483069273386     1.984425437554     0.829163468397     1.007825032230
         H           -2.953896273386    -1.981188562446    -0.829401531603     1.007825032230
         H           -2.954285273386     1.994959437554     0.798061468397     1.007825032230
         H            1.342095726614    -1.983157562446     0.830478468397     1.007825032230
         H            1.398010926614     1.904271737554    -0.794972231603     1.007825032230
         H           -5.049198273386     0.999319437554    -0.113914531603     1.007825032230
         H           -5.048720273386    -0.645045562446    -0.771036531603     1.007825032230
         H           -5.014646273386    -0.390186562446     0.977179468397     1.007825032230
         H            3.821756726614    -1.995800562446     0.812823468397     1.007825032230
         H            3.827668726614     1.992016437554    -0.804265531603     1.007825032230
         H            5.073892726614    -0.002911562446     0.006279468397     1.007825032230

  Basis Set: AUG-CC-PVTZ
    Blend: AUG-CC-PVTZ
  Basis Set: (AUG-CC-PVTZ AUX)
    Blend: AUG-CC-PVTZ-JKFIT
	 Reference Energy          =    -499.4443890396338475 [Eh]
	 Singles Energy            =      -0.0000000000000000 [Eh]
	 Same-Spin Energy          =      -0.5651390789392936 [Eh]
	 Opposite-Spin Energy      =      -1.7790074945136363 [Eh]
	 Correlation Energy        =      -2.3441465734529299 [Eh]
	 Total Energy              =    -501.7885356130867649 [Eh]

	 ================> DF-SCS-MP2 Energies <==================
	-----------------------------------------------------------
	 SCS Same-Spin Scale       =       0.3333333333333333 [-]
	 SCS Opposite-Spin Scale   =       1.2000000000000000 [-]
	 SCS Same-Spin Energy      =      -0.1883796929797645 [Eh]
	 SCS Opposite-Spin Energy  =      -2.1348089934163634 [Eh]
	 SCS Correlation Energy    =      -2.3231886863961280 [Eh]
	 SCS Total Energy          =    -501.7675777260299697 [Eh]
	-----------------------------------------------------------

  Dipole Moment: [D]
     X:    -0.5018      Y:     0.0027      Z:     0.0289     Total:     0.5027

*** Psi4 exiting successfully. Buy a developer a beer!
