                               Psi4 1.4a3.dev225

  ==> Input File <==

--------------------------------------------------------------------------
#psi4
#
memory 32 gb

molecule  {
0 1
  C       -0.2663850     0.0008990    -0.0013960
  C        1.2106340     0.0001110     0.0000760
  C       -3.1008180     0.0056250    -0.0137190
  C       -0.9855960    -1.1139970    -0.4586890
  C       -0.9858100     1.1188490     0.4479860
  C       -2.3796020    -1.1098520    -0.4588000
  C       -2.3797760     1.1173260     0.4409920
  C        1.9242530    -1.1209430     0.4529070
  C        1.9275400     1.1199170    -0.4505910
  C       -4.6068780    -0.0078780     0.0198210
  C        3.3404355    -1.1340262     0.4567972
  C        3.3225700     1.1193260    -0.4456390
  C        4.0230520    -0.0023100     0.0044540
  H       -0.4460470    -1.9780880    -0.8418930
  H       -0.4465600     1.9841010     0.8290070
  H       -2.9173870    -1.9815130    -0.8295580
  H       -2.9177760     1.9946350     0.7979050
  H        1.3786050    -1.9834820     0.8303220
  H        1.3846280     1.9832890    -0.8299950
  H       -5.0126890     0.9989950    -0.1140710
  H       -5.0122110    -0.6453700    -0.7711930
  H       -4.9781370    -0.3905110     0.9770230
  H        3.8582660    -1.9961250     0.8126670
  H        3.8641780     1.9916920    -0.8044220
  H        5.1104020    -0.0032360     0.0061230
units angstrom
no_reorient  #important for SAPT in psi4, default
symmetry c1  #important for SAPT in psi4, default
}

set PROPERTIES_ORIGIN ["COM"]
properties('MP2/aug-cc-pvtz', properties = ['dipole'])
--------------------------------------------------------------------------

    Molecular point group: c1
  Charge       = 0
  Multiplicity = 1
  Basis Set: AUG-CC-PVTZ
    Blend: AUG-CC-PVTZ
  Basis Set: (AUG-CC-PVTZ AUX)
    Blend: AUG-CC-PVTZ-JKFIT

    Orbital Energies [Eh]
    ---------------------

    Doubly Occupied:

       1A    -11.244889     2A    -11.242521     3A    -11.241234
       4A    -11.237846     5A    -11.237168     6A    -11.236534
       7A    -11.235257     8A    -11.235097     9A    -11.234975
      10A    -11.234610    11A    -11.232047    12A    -11.231947
      13A    -11.225456    14A     -1.167307    15A     -1.140166
      16A     -1.065207    17A     -1.015903    18A     -1.007897
      19A     -1.004189    20A     -0.928583    21A     -0.841658
      22A     -0.831827    23A     -0.812469    24A     -0.779571
      25A     -0.712118    26A     -0.665688    27A     -0.645419
      28A     -0.643362    29A     -0.616038    30A     -0.612518
      31A     -0.587866    32A     -0.580388    33A     -0.576364
      34A     -0.570353    35A     -0.541289    36A     -0.511184
      37A     -0.507721    38A     -0.500103    39A     -0.481353
      40A     -0.480662    41A     -0.479256    42A     -0.359467
      43A     -0.336852    44A     -0.334199    45A     -0.296390

  @DF-RHF Final Energy:  -499.44906531388506

   => Energetics <=

    Nuclear Repulsion Energy =            686.8845874889849483
    One-Electron Energy =               -2037.2614152210990142
    Two-Electron Energy =                 850.9277624182291220
    Total Energy =                       -499.4490653138850575
  Basis Set: (AUG-CC-PVTZ AUX)
    Blend: AUG-CC-PVTZ-RI
    Molecular point group: c1

    Geometry (in Angstrom), charge = 0, multiplicity = 1:

       Center              X                  Y                   Z               Mass
    ------------   -----------------  -----------------  -----------------  -----------------
         C           -0.304106187628     0.001548945193    -0.001353106634    12.000000000000
         C            1.172912812372     0.000760945193     0.000118893366    12.000000000000
         C           -3.138539187628     0.006274945193    -0.013676106634    12.000000000000
         C           -1.023317187628    -1.113347054807    -0.458646106634    12.000000000000
         C           -1.023531187628     1.119498945193     0.448028893366    12.000000000000
         C           -2.417323187628    -1.109202054807    -0.458757106634    12.000000000000
         C           -2.417497187628     1.117975945193     0.441034893366    12.000000000000
         C            1.886531812372    -1.120293054807     0.452949893366    12.000000000000
         C            1.889818812372     1.120566945193    -0.450548106634    12.000000000000
         C           -4.644599187628    -0.007228054807     0.019863893366    12.000000000000
         C            3.302714312372    -1.133376254807     0.456840093366    12.000000000000
         C            3.284848812372     1.119975945193    -0.445596106634    12.000000000000
         C            3.985330812372    -0.001660054807     0.004496893366    12.000000000000
         H           -0.483768187628    -1.977438054807    -0.841850106634     1.007825032230
         H           -0.484281187628     1.984750945193     0.829049893366     1.007825032230
         H           -2.955108187628    -1.980863054807    -0.829515106634     1.007825032230
         H           -2.955497187628     1.995284945193     0.797947893366     1.007825032230
         H            1.340883812372    -1.982832054807     0.830364893366     1.007825032230
         H            1.346906812372     1.983938945193    -0.829952106634     1.007825032230
         H           -5.050410187628     0.999644945193    -0.114028106634     1.007825032230
         H           -5.049932187628    -0.644720054807    -0.771150106634     1.007825032230
         H           -5.015858187628    -0.389861054807     0.977065893366     1.007825032230
         H            3.820544812372    -1.995475054807     0.812709893366     1.007825032230
         H            3.826456812372     1.992341945193    -0.804379106634     1.007825032230
         H            5.072680812372    -0.002586054807     0.006165893366     1.007825032230

  Basis Set: AUG-CC-PVTZ
    Blend: AUG-CC-PVTZ
  Basis Set: (AUG-CC-PVTZ AUX)
    Blend: AUG-CC-PVTZ-JKFIT
	 Reference Energy          =    -499.4490653138850575 [Eh]
	 Singles Energy            =      -0.0000000000000000 [Eh]
	 Same-Spin Energy          =      -0.5653613376550185 [Eh]
	 Opposite-Spin Energy      =      -1.7797766323096216 [Eh]
	 Correlation Energy        =      -2.3451379699646400 [Eh]
	 Total Energy              =    -501.7942032838496971 [Eh]

	 ================> DF-SCS-MP2 Energies <==================
	-----------------------------------------------------------
	 SCS Same-Spin Scale       =       0.3333333333333333 [-]
	 SCS Opposite-Spin Scale   =       1.2000000000000000 [-]
	 SCS Same-Spin Energy      =      -0.1884537792183395 [Eh]
	 SCS Opposite-Spin Energy  =      -2.1357319587715460 [Eh]
	 SCS Correlation Energy    =      -2.3241857379898856 [Eh]
	 SCS Total Energy          =    -501.7732510518749223 [Eh]
	-----------------------------------------------------------

  Dipole Moment: [D]
     X:    -0.4845      Y:    -0.0224      Z:     0.0403     Total:     0.4867

*** Psi4 exiting successfully. Buy a developer a beer!
