                               Psi4 1.4a3.dev225

  ==> Input File <==

--------------------------------------------------------------------------
#psi4
#
memory 32 gb

molecule  {
0 1
  C       -0.2454775     0.0124159     0.0040916
  C        1.2106340     0.0001110     0.0000760
  C       -3.1008180     0.0056250    -0.0137190
  C       -0.9855960    -1.1139970    -0.4586890
  C       -0.9858100     1.1188490     0.4479860
  C       -2.3796020    -1.1098520    -0.4588000
  C       -2.3797760     1.1173260     0.4409920
  C        1.9242530    -1.1209430     0.4529070
  C        1.9275400     1.1199170    -0.4505910
  C       -4.6068780    -0.0078780     0.0198210
  C        3.3192690    -1.1228030     0.4522780
  C        3.3225700     1.1193260    -0.4456390
  C        4.0230520    -0.0023100     0.0044540
  H       -0.4460470    -1.9780880    -0.8418930
  H       -0.4465600     1.9841010     0.8290070
  H       -2.9173870    -1.9815130    -0.8295580
  H       -2.9177760     1.9946350     0.7979050
  H        1.3786050    -1.9834820     0.8303220
  H        1.3846280     1.9832890    -0.8299950
  H       -5.0126890     0.9989950    -0.1140710
  H       -5.0122110    -0.6453700    -0.7711930
  H       -4.9781370    -0.3905110     0.9770230
  H        3.8582660    -1.9961250     0.8126670
  H        3.8641780     1.9916920    -0.8044220
  H        5.1104020    -0.0032360     0.0061230
units angstrom
no_reorient  #important for SAPT in psi4, default
symmetry c1  #important for SAPT in psi4, default
}

set PROPERTIES_ORIGIN ["COM"]
properties('MP2/aug-cc-pvtz', properties = ['dipole'])
--------------------------------------------------------------------------

    Molecular point group: c1
  Charge       = 0
  Multiplicity = 1
  Basis Set: AUG-CC-PVTZ
    Blend: AUG-CC-PVTZ
  Basis Set: (AUG-CC-PVTZ AUX)
    Blend: AUG-CC-PVTZ-JKFIT

    Orbital Energies [Eh]
    ---------------------

    Doubly Occupied:

       1A    -11.244091     2A    -11.242869     3A    -11.241970
       4A    -11.237469     5A    -11.237438     6A    -11.237143
       7A    -11.235300     8A    -11.234913     9A    -11.234679
      10A    -11.234391    11A    -11.232077    12A    -11.231906
      13A    -11.225564    14A     -1.168125    15A     -1.140730
      16A     -1.066388    17A     -1.016636    18A     -1.008216
      19A     -1.004122    20A     -0.928957    21A     -0.840561
      22A     -0.834990    23A     -0.810888    24A     -0.778929
      25A     -0.712478    26A     -0.666558    27A     -0.645994
      28A     -0.642565    29A     -0.613745    30A     -0.613385
      31A     -0.587268    32A     -0.579291    33A     -0.576223
      34A     -0.572565    35A     -0.541179    36A     -0.512697
      37A     -0.508840    38A     -0.498096    39A     -0.484400
      40A     -0.480408    41A     -0.476782    42A     -0.360015
      43A     -0.337568    44A     -0.335671    45A     -0.294122

  @DF-RHF Final Energy:  -499.44858935675876

   => Energetics <=

    Nuclear Repulsion Energy =            687.3124084240238290
    One-Electron Energy =               -2038.1055957839819257
    Two-Electron Energy =                 851.3445980031995077
    Total Energy =                       -499.4485893567587027
  Basis Set: (AUG-CC-PVTZ AUX)
    Blend: AUG-CC-PVTZ-RI
    Molecular point group: c1

    Geometry (in Angstrom), charge = 0, multiplicity = 1:

       Center              X                  Y                   Z               Mass
    ------------   -----------------  -----------------  -----------------  -----------------
         C           -0.283180197963     0.011442459696     0.004065360578    12.000000000000
         C            1.172931302037    -0.000862440304     0.000049760578    12.000000000000
         C           -3.138520697963     0.004651559696    -0.013745239422    12.000000000000
         C           -1.023298697963    -1.114970440304    -0.458715239422    12.000000000000
         C           -1.023512697963     1.117875559696     0.447959760578    12.000000000000
         C           -2.417304697963    -1.110825440304    -0.458826239422    12.000000000000
         C           -2.417478697963     1.116352559696     0.440965760578    12.000000000000
         C            1.886550302037    -1.121916440304     0.452880760578    12.000000000000
         C            1.889837302037     1.118943559696    -0.450617239422    12.000000000000
         C           -4.644580697963    -0.008851440304     0.019794760578    12.000000000000
         C            3.281566302037    -1.123776440304     0.452251760578    12.000000000000
         C            3.284867302037     1.118352559696    -0.445665239422    12.000000000000
         C            3.985349302037    -0.003283440304     0.004427760578    12.000000000000
         H           -0.483749697963    -1.979061440304    -0.841919239422     1.007825032230
         H           -0.484262697963     1.983127559696     0.828980760578     1.007825032230
         H           -2.955089697963    -1.982486440304    -0.829584239422     1.007825032230
         H           -2.955478697963     1.993661559696     0.797878760578     1.007825032230
         H            1.340902302037    -1.984455440304     0.830295760578     1.007825032230
         H            1.346925302037     1.982315559696    -0.830021239422     1.007825032230
         H           -5.050391697963     0.998021559696    -0.114097239422     1.007825032230
         H           -5.049913697963    -0.646343440304    -0.771219239422     1.007825032230
         H           -5.015839697963    -0.391484440304     0.976996760578     1.007825032230
         H            3.820563302037    -1.997098440304     0.812640760578     1.007825032230
         H            3.826475302037     1.990718559696    -0.804448239422     1.007825032230
         H            5.072699302037    -0.004209440304     0.006096760578     1.007825032230

  Basis Set: AUG-CC-PVTZ
    Blend: AUG-CC-PVTZ
  Basis Set: (AUG-CC-PVTZ AUX)
    Blend: AUG-CC-PVTZ-JKFIT
	 Reference Energy          =    -499.4485893567587595 [Eh]
	 Singles Energy            =      -0.0000000000000000 [Eh]
	 Same-Spin Energy          =      -0.5656761827435681 [Eh]
	 Opposite-Spin Energy      =      -1.7801084611524738 [Eh]
	 Correlation Energy        =      -2.3457846438960419 [Eh]
	 Total Energy              =    -501.7943740006547841 [Eh]

	 ================> DF-SCS-MP2 Energies <==================
	-----------------------------------------------------------
	 SCS Same-Spin Scale       =       0.3333333333333333 [-]
	 SCS Opposite-Spin Scale   =       1.2000000000000000 [-]
	 SCS Same-Spin Energy      =      -0.1885587275811894 [Eh]
	 SCS Opposite-Spin Energy  =      -2.1361301533829686 [Eh]
	 SCS Correlation Energy    =      -2.3246888809641582 [Eh]
	 SCS Total Energy          =    -501.7732782377229341 [Eh]
	-----------------------------------------------------------

  Dipole Moment: [D]
     X:    -0.4566      Y:    -0.0160      Z:     0.0372     Total:     0.4583

*** Psi4 exiting successfully. Buy a developer a beer!
