                               Psi4 1.4a3.dev225

  ==> Input File <==

--------------------------------------------------------------------------
#psi4
#
memory 32 gb

molecule  {
0 1
  C       -0.2663850     0.0008990    -0.0013960
  C        1.2106340     0.0001110     0.0000760
  C       -3.1008180     0.0056250    -0.0137190
  C       -0.9855960    -1.1139970    -0.4586890
  C       -0.9858100     1.1188490     0.4479860
  C       -2.3796020    -1.1098520    -0.4588000
  C       -2.3797760     1.1173260     0.4409920
  C        1.9242530    -1.1209430     0.4529070
  C        1.9275400     1.1199170    -0.4505910
  C       -4.6068780    -0.0078780     0.0198210
  C        3.3192690    -1.1228030     0.4522780
  C        3.3225700     1.1193260    -0.4456390
  C        4.0230520    -0.0023100     0.0044540
  H       -0.4460470    -1.9780880    -0.8418930
  H       -0.4465600     1.9841010     0.8290070
  H       -2.9173870    -1.9815130    -0.8295580
  H       -2.9177760     1.9946350     0.7979050
  H        1.3786050    -1.9834820     0.8303220
  H        1.3846280     1.9832890    -0.8299950
  H       -4.9941385     0.9529687    -0.1079505
  H       -5.0122110    -0.6453700    -0.7711930
  H       -4.9781370    -0.3905110     0.9770230
  H        3.8582660    -1.9961250     0.8126670
  H        3.8641780     1.9916920    -0.8044220
  H        5.1104020    -0.0032360     0.0061230
units angstrom
no_reorient  #important for SAPT in psi4, default
symmetry c1  #important for SAPT in psi4, default
}

set PROPERTIES_ORIGIN ["COM"]
properties('MP2/aug-cc-pvtz', properties = ['dipole'])
--------------------------------------------------------------------------

    Molecular point group: c1
  Charge       = 0
  Multiplicity = 1
  Basis Set: AUG-CC-PVTZ
    Blend: AUG-CC-PVTZ
  Basis Set: (AUG-CC-PVTZ AUX)
    Blend: AUG-CC-PVTZ-JKFIT

    Orbital Energies [Eh]
    ---------------------

    Doubly Occupied:

       1A    -11.244852     2A    -11.242194     3A    -11.241041
       4A    -11.237084     5A    -11.236837     6A    -11.235200
       7A    -11.235019     8A    -11.234432     9A    -11.234247
      10A    -11.234030    11A    -11.231993    12A    -11.231684
      13A    -11.219361    14A     -1.167927    15A     -1.141268
      16A     -1.065736    17A     -1.016718    18A     -1.008580
      19A     -1.005275    20A     -0.931702    21A     -0.840692
      22A     -0.833589    23A     -0.811430    24A     -0.779748
      25A     -0.711811    26A     -0.666248    27A     -0.646721
      28A     -0.642270    29A     -0.613863    30A     -0.613633
      31A     -0.587630    32A     -0.580067    33A     -0.578358
      34A     -0.571455    35A     -0.545948    36A     -0.512578
      37A     -0.509009    38A     -0.498035    39A     -0.482129
      40A     -0.480603    41A     -0.479034    42A     -0.358983
      43A     -0.337390    44A     -0.335685    45A     -0.295999

  @DF-RHF Final Energy:  -499.44908649811873

   => Energetics <=

    Nuclear Repulsion Energy =            687.5584072516701326
    One-Electron Energy =               -2038.5988106287793471
    Two-Electron Energy =                 851.5913168789904830
    Total Energy =                       -499.4490864981187315
  Basis Set: (AUG-CC-PVTZ AUX)
    Blend: AUG-CC-PVTZ-RI
    Molecular point group: c1

    Geometry (in Angstrom), charge = 0, multiplicity = 1:

       Center              X                  Y                   Z               Mass
    ------------   -----------------  -----------------  -----------------  -----------------
         C           -0.302706360858     0.001023691496    -0.001067183072    12.000000000000
         C            1.174312639142     0.000235691496     0.000404816928    12.000000000000
         C           -3.137139360858     0.005749691496    -0.013390183072    12.000000000000
         C           -1.021917360858    -1.113872308504    -0.458360183072    12.000000000000
         C           -1.022131360858     1.118973691496     0.448314816928    12.000000000000
         C           -2.415923360858    -1.109727308504    -0.458471183072    12.000000000000
         C           -2.416097360858     1.117450691496     0.441320816928    12.000000000000
         C            1.887931639142    -1.120818308504     0.453235816928    12.000000000000
         C            1.891218639142     1.120041691496    -0.450262183072    12.000000000000
         C           -4.643199360858    -0.007753308504     0.020149816928    12.000000000000
         C            3.282947639142    -1.122678308504     0.452606816928    12.000000000000
         C            3.286248639142     1.119450691496    -0.445310183072    12.000000000000
         C            3.986730639142    -0.002185308504     0.004782816928    12.000000000000
         H           -0.482368360858    -1.977963308504    -0.841564183072     1.007825032230
         H           -0.482881360858     1.984225691496     0.829335816928     1.007825032230
         H           -2.953708360858    -1.981388308504    -0.829229183072     1.007825032230
         H           -2.954097360858     1.994759691496     0.798233816928     1.007825032230
         H            1.342283639142    -1.983357308504     0.830650816928     1.007825032230
         H            1.348306639142     1.983413691496    -0.829666183072     1.007825032230
         H           -5.030459860858     0.953093391496    -0.107621683072     1.007825032230
         H           -5.048532360858    -0.645245308504    -0.770864183072     1.007825032230
         H           -5.014458360858    -0.390386308504     0.977351816928     1.007825032230
         H            3.821944639142    -1.996000308504     0.812995816928     1.007825032230
         H            3.827856639142     1.991816691496    -0.804093183072     1.007825032230
         H            5.074080639142    -0.003111308504     0.006451816928     1.007825032230

  Basis Set: AUG-CC-PVTZ
    Blend: AUG-CC-PVTZ
  Basis Set: (AUG-CC-PVTZ AUX)
    Blend: AUG-CC-PVTZ-JKFIT
	 Reference Energy          =    -499.4490864981187315 [Eh]
	 Singles Energy            =      -0.0000000000000000 [Eh]
	 Same-Spin Energy          =      -0.5653746692553948 [Eh]
	 Opposite-Spin Energy      =      -1.7793175876649234 [Eh]
	 Correlation Energy        =      -2.3446922569203181 [Eh]
	 Total Energy              =    -501.7937787550390567 [Eh]

	 ================> DF-SCS-MP2 Energies <==================
	-----------------------------------------------------------
	 SCS Same-Spin Scale       =       0.3333333333333333 [-]
	 SCS Opposite-Spin Scale   =       1.2000000000000000 [-]
	 SCS Same-Spin Energy      =      -0.1884582230851316 [Eh]
	 SCS Opposite-Spin Energy  =      -2.1351811051979079 [Eh]
	 SCS Correlation Energy    =      -2.3236393282830394 [Eh]
	 SCS Total Energy          =    -501.7727258264017678 [Eh]
	-----------------------------------------------------------

  Dipole Moment: [D]
     X:    -0.5080      Y:     0.0035      Z:     0.0351     Total:     0.5092

*** Psi4 exiting successfully. Buy a developer a beer!
