                               Psi4 1.4a3.dev225

  ==> Input File <==

--------------------------------------------------------------------------
#psi4
#
memory 32 gb

molecule  {
0 1
  C       -0.1841331     0.0489741     0.0213589
  C        1.2106340     0.0001110     0.0000760
  C       -3.1008180     0.0056250    -0.0137190
  C       -0.9855960    -1.1139970    -0.4586890
  C       -0.9858100     1.1188490     0.4479860
  C       -2.3796020    -1.1098520    -0.4588000
  C       -2.3797760     1.1173260     0.4409920
  C        1.9242530    -1.1209430     0.4529070
  C        1.9275400     1.1199170    -0.4505910
  C       -4.6068780    -0.0078780     0.0198210
  C        3.3192690    -1.1228030     0.4522780
  C        3.3225700     1.1193260    -0.4456390
  C        4.0230520    -0.0023100     0.0044540
  H       -0.4460470    -1.9780880    -0.8418930
  H       -0.4465600     1.9841010     0.8290070
  H       -2.9173870    -1.9815130    -0.8295580
  H       -2.9177760     1.9946350     0.7979050
  H        1.3786050    -1.9834820     0.8303220
  H        1.3846280     1.9832890    -0.8299950
  H       -5.0126890     0.9989950    -0.1140710
  H       -5.0122110    -0.6453700    -0.7711930
  H       -4.9781370    -0.3905110     0.9770230
  H        3.8582660    -1.9961250     0.8126670
  H        3.8641780     1.9916920    -0.8044220
  H        5.1104020    -0.0032360     0.0061230
units angstrom
no_reorient  #important for SAPT in psi4, default
symmetry c1  #important for SAPT in psi4, default
}

set PROPERTIES_ORIGIN ["COM"]
properties('MP2/aug-cc-pvtz', properties = ['dipole'])
--------------------------------------------------------------------------

    Molecular point group: c1
  Charge       = 0
  Multiplicity = 1
  Basis Set: AUG-CC-PVTZ
    Blend: AUG-CC-PVTZ
  Basis Set: (AUG-CC-PVTZ AUX)
    Blend: AUG-CC-PVTZ-JKFIT

    Orbital Energies [Eh]
    ---------------------

    Doubly Occupied:

       1A    -11.244599     2A    -11.243714     3A    -11.243564
       4A    -11.240854     5A    -11.238407     6A    -11.237731
       7A    -11.236379     8A    -11.235746     9A    -11.235701
      10A    -11.234985    11A    -11.232097    12A    -11.231548
      13A    -11.225772    14A     -1.169985    15A     -1.138724
      16A     -1.070760    17A     -1.016831    18A     -1.007829
      19A     -1.002358    20A     -0.929297    21A     -0.841733
      22A     -0.840205    23A     -0.809088    24A     -0.776825
      25A     -0.714492    26A     -0.668331    27A     -0.647727
      28A     -0.643062    29A     -0.614402    30A     -0.612541
      31A     -0.587206    32A     -0.581073    33A     -0.575598
      34A     -0.572277    35A     -0.540653    36A     -0.512784
      37A     -0.509951    38A     -0.498974    39A     -0.493379
      40A     -0.476646    41A     -0.466990    42A     -0.363070
      43A     -0.338239    44A     -0.335111    45A     -0.287831

  @DF-RHF Final Energy:  -499.43540962386385

   => Energetics <=

    Nuclear Repulsion Energy =            687.2992099366432512
    One-Electron Energy =               -2038.0191109690404119
    Two-Electron Energy =                 851.2844914085331993
    Total Energy =                       -499.4354096238638476
  Basis Set: (AUG-CC-PVTZ AUX)
    Blend: AUG-CC-PVTZ-RI
    Molecular point group: c1

    Geometry (in Angstrom), charge = 0, multiplicity = 1:

       Center              X                  Y                   Z               Mass
    ------------   -----------------  -----------------  -----------------  -----------------
         C           -0.226215093097     0.045390818417     0.020099970994    12.000000000000
         C            1.168552006903    -0.003472281583    -0.001182929006    12.000000000000
         C           -3.142899993097     0.002041718417    -0.014977929006    12.000000000000
         C           -1.027677993097    -1.117580281583    -0.459947929006    12.000000000000
         C           -1.027891993097     1.115265718417     0.446727070994    12.000000000000
         C           -2.421683993097    -1.113435281583    -0.460058929006    12.000000000000
         C           -2.421857993097     1.113742718417     0.439733070994    12.000000000000
         C            1.882171006903    -1.124526281583     0.451648070994    12.000000000000
         C            1.885458006903     1.116333718417    -0.451849929006    12.000000000000
         C           -4.648959993097    -0.011461281583     0.018562070994    12.000000000000
         C            3.277187006903    -1.126386281583     0.451019070994    12.000000000000
         C            3.280488006903     1.115742718417    -0.446897929006    12.000000000000
         C            3.980970006903    -0.005893281583     0.003195070994    12.000000000000
         H           -0.488128993097    -1.981671281583    -0.843151929006     1.007825032230
         H           -0.488641993097     1.980517718417     0.827748070994     1.007825032230
         H           -2.959468993097    -1.985096281583    -0.830816929006     1.007825032230
         H           -2.959857993097     1.991051718417     0.796646070994     1.007825032230
         H            1.336523006903    -1.987065281583     0.829063070994     1.007825032230
         H            1.342546006903     1.979705718417    -0.831253929006     1.007825032230
         H           -5.054770993097     0.995411718417    -0.115329929006     1.007825032230
         H           -5.054292993097    -0.648953281583    -0.772451929006     1.007825032230
         H           -5.020218993097    -0.394094281583     0.975764070994     1.007825032230
         H            3.816184006903    -1.999708281583     0.811408070994     1.007825032230
         H            3.822096006903     1.988108718417    -0.805680929006     1.007825032230
         H            5.068320006903    -0.006819281583     0.004864070994     1.007825032230

  Basis Set: AUG-CC-PVTZ
    Blend: AUG-CC-PVTZ
  Basis Set: (AUG-CC-PVTZ AUX)
    Blend: AUG-CC-PVTZ-JKFIT
	 Reference Energy          =    -499.4354096238638476 [Eh]
	 Singles Energy            =      -0.0000000000000000 [Eh]
	 Same-Spin Energy          =      -0.5668195777977361 [Eh]
	 Opposite-Spin Energy      =      -1.7822241722601169 [Eh]
	 Correlation Energy        =      -2.3490437500578532 [Eh]
	 Total Energy              =    -501.7844533739216786 [Eh]

	 ================> DF-SCS-MP2 Energies <==================
	-----------------------------------------------------------
	 SCS Same-Spin Scale       =       0.3333333333333333 [-]
	 SCS Opposite-Spin Scale   =       1.2000000000000000 [-]
	 SCS Same-Spin Energy      =      -0.1889398592659120 [Eh]
	 SCS Opposite-Spin Energy  =      -2.1386690067121403 [Eh]
	 SCS Correlation Energy    =      -2.3276088659780525 [Eh]
	 SCS Total Energy          =    -501.7630184898418975 [Eh]
	-----------------------------------------------------------

  Dipole Moment: [D]
     X:    -0.3695      Y:    -0.0226      Z:     0.0379     Total:     0.3721

*** Psi4 exiting successfully. Buy a developer a beer!
