                               Psi4 1.4a3.dev225

  ==> Input File <==

--------------------------------------------------------------------------
#psi4
#
memory 32 gb

molecule  {
0 1
  C       -0.2663850     0.0008990    -0.0013960
  C        1.2106340     0.0001110     0.0000760
  C       -3.1008180     0.0056250    -0.0137190
  C       -0.9855960    -1.1139970    -0.4586890
  C       -0.9858100     1.1188490     0.4479860
  C       -2.3796020    -1.1098520    -0.4588000
  C       -2.3797760     1.1173260     0.4409920
  C        1.9242530    -1.1209430     0.4529070
  C        1.9275400     1.1199170    -0.4505910
  C       -4.6068780    -0.0078780     0.0198210
  C        3.1969932    -1.0484229     0.4223489
  C        3.3225700     1.1193260    -0.4456390
  C        4.0230520    -0.0023100     0.0044540
  H       -0.4460470    -1.9780880    -0.8418930
  H       -0.4465600     1.9841010     0.8290070
  H       -2.9173870    -1.9815130    -0.8295580
  H       -2.9177760     1.9946350     0.7979050
  H        1.3786050    -1.9834820     0.8303220
  H        1.3846280     1.9832890    -0.8299950
  H       -5.0126890     0.9989950    -0.1140710
  H       -5.0122110    -0.6453700    -0.7711930
  H       -4.9781370    -0.3905110     0.9770230
  H        3.8582660    -1.9961250     0.8126670
  H        3.8641780     1.9916920    -0.8044220
  H        5.1104020    -0.0032360     0.0061230
units angstrom
no_reorient  #important for SAPT in psi4, default
symmetry c1  #important for SAPT in psi4, default
}

set PROPERTIES_ORIGIN ["COM"]
properties('MP2/aug-cc-pvtz', properties = ['dipole'])
--------------------------------------------------------------------------

    Molecular point group: c1
  Charge       = 0
  Multiplicity = 1
  Basis Set: AUG-CC-PVTZ
    Blend: AUG-CC-PVTZ
  Basis Set: (AUG-CC-PVTZ AUX)
    Blend: AUG-CC-PVTZ-JKFIT

    Orbital Energies [Eh]
    ---------------------

    Doubly Occupied:

       1A    -11.246060     2A    -11.243286     3A    -11.241349
       4A    -11.237153     5A    -11.236200     6A    -11.235720
       7A    -11.234519     8A    -11.233334     9A    -11.232759
      10A    -11.232544    11A    -11.231529    12A    -11.225968
      13A    -11.219800    14A     -1.176148    15A     -1.148543
      16A     -1.065985    17A     -1.029101    18A     -1.012134
      19A     -1.002392    20A     -0.930740    21A     -0.840461
      22A     -0.837475    23A     -0.805721    24A     -0.779751
      25A     -0.712195    26A     -0.669213    27A     -0.650862
      28A     -0.638332    29A     -0.621965    30A     -0.605504
      31A     -0.586328    32A     -0.580604    33A     -0.576500
      34A     -0.566819    35A     -0.542099    36A     -0.523083
      37A     -0.516478    38A     -0.490822    39A     -0.485226
      40A     -0.483783    41A     -0.455075    42A     -0.357484
      43A     -0.351499    44A     -0.337192    45A     -0.294692

  @DF-RHF Final Energy:  -499.42200712162759

   => Energetics <=

    Nuclear Repulsion Energy =            690.2142642841719180
    One-Electron Energy =               -2043.8236853665582657
    Two-Electron Energy =                 854.1874139607585903
    Total Energy =                       -499.4220071216276438
  Basis Set: (AUG-CC-PVTZ AUX)
    Blend: AUG-CC-PVTZ-RI
    Molecular point group: c1

    Geometry (in Angstrom), charge = 0, multiplicity = 1:

       Center              X                  Y                   Z               Mass
    ------------   -----------------  -----------------  -----------------  -----------------
         C           -0.293866032596    -0.004562160550     0.001106111690    12.000000000000
         C            1.183152967404    -0.005350160550     0.002578111690    12.000000000000
         C           -3.128299032596     0.000163839450    -0.011216888310    12.000000000000
         C           -1.013077032596    -1.119458160550    -0.456186888310    12.000000000000
         C           -1.013291032596     1.113387839450     0.450488111690    12.000000000000
         C           -2.407083032596    -1.115313160550    -0.456297888310    12.000000000000
         C           -2.407257032596     1.111864839450     0.443494111690    12.000000000000
         C            1.896771967404    -1.126404160550     0.455409111690    12.000000000000
         C            1.900058967404     1.114455839450    -0.448088888310    12.000000000000
         C           -4.634359032596    -0.013339160550     0.022323111690    12.000000000000
         C            3.169512167404    -1.053884060550     0.424851011690    12.000000000000
         C            3.295088967404     1.113864839450    -0.443136888310    12.000000000000
         C            3.995570967404    -0.007771160550     0.006956111690    12.000000000000
         H           -0.473528032596    -1.983549160550    -0.839390888310     1.007825032230
         H           -0.474041032596     1.978639839450     0.831509111690     1.007825032230
         H           -2.944868032596    -1.986974160550    -0.827055888310     1.007825032230
         H           -2.945257032596     1.989173839450     0.800407111690     1.007825032230
         H            1.351123967404    -1.988943160550     0.832824111690     1.007825032230
         H            1.357146967404     1.977827839450    -0.827492888310     1.007825032230
         H           -5.040170032596     0.993533839450    -0.111568888310     1.007825032230
         H           -5.039692032596    -0.650831160550    -0.768690888310     1.007825032230
         H           -5.005618032596    -0.395972160550     0.979525111690     1.007825032230
         H            3.830784967404    -2.001586160550     0.815169111690     1.007825032230
         H            3.836696967404     1.986230839450    -0.801919888310     1.007825032230
         H            5.082920967404    -0.008697160550     0.008625111690     1.007825032230

  Basis Set: AUG-CC-PVTZ
    Blend: AUG-CC-PVTZ
  Basis Set: (AUG-CC-PVTZ AUX)
    Blend: AUG-CC-PVTZ-JKFIT
	 Reference Energy          =    -499.4220071216275869 [Eh]
	 Singles Energy            =      -0.0000000000000000 [Eh]
	 Same-Spin Energy          =      -0.5658172947762242 [Eh]
	 Opposite-Spin Energy      =      -1.7803425721598378 [Eh]
	 Correlation Energy        =      -2.3461598669360622 [Eh]
	 Total Energy              =    -501.7681669885636211 [Eh]

	 ================> DF-SCS-MP2 Energies <==================
	-----------------------------------------------------------
	 SCS Same-Spin Scale       =       0.3333333333333333 [-]
	 SCS Opposite-Spin Scale   =       1.2000000000000000 [-]
	 SCS Same-Spin Energy      =      -0.1886057649254081 [Eh]
	 SCS Opposite-Spin Energy  =      -2.1364110865918051 [Eh]
	 SCS Correlation Energy    =      -2.3250168515172134 [Eh]
	 SCS Total Energy          =    -501.7470239731447919 [Eh]
	-----------------------------------------------------------

  Dipole Moment: [D]
     X:    -0.5387      Y:     0.0976      Z:    -0.0093     Total:     0.5476

*** Psi4 exiting successfully. Buy a developer a beer!
