                               Psi4 1.4a3.dev225

  ==> Input File <==

--------------------------------------------------------------------------
#psi4
#
memory 32 gb

molecule  {
0 1
  C       -0.2663850     0.0008990    -0.0013960
  C        1.2106340     0.0001110     0.0000760
  C       -3.1008180     0.0056250    -0.0137190
  C       -0.9855960    -1.1139970    -0.4586890
  C       -0.9858100     1.1188490     0.4479860
  C       -2.3796020    -1.1098520    -0.4588000
  C       -2.3797760     1.1173260     0.4409920
  C        1.9242530    -1.1209430     0.4529070
  C        1.9275400     1.1199170    -0.4505910
  C       -4.4069356    -0.0060854     0.0153683
  C        3.3192690    -1.1228030     0.4522780
  C        3.3225700     1.1193260    -0.4456390
  C        4.0230520    -0.0023100     0.0044540
  H       -0.4460470    -1.9780880    -0.8418930
  H       -0.4465600     1.9841010     0.8290070
  H       -2.9173870    -1.9815130    -0.8295580
  H       -2.9177760     1.9946350     0.7979050
  H        1.3786050    -1.9834820     0.8303220
  H        1.3846280     1.9832890    -0.8299950
  H       -5.0126890     0.9989950    -0.1140710
  H       -5.0122110    -0.6453700    -0.7711930
  H       -4.9781370    -0.3905110     0.9770230
  H        3.8582660    -1.9961250     0.8126670
  H        3.8641780     1.9916920    -0.8044220
  H        5.1104020    -0.0032360     0.0061230
units angstrom
no_reorient  #important for SAPT in psi4, default
symmetry c1  #important for SAPT in psi4, default
}

set PROPERTIES_ORIGIN ["COM"]
properties('MP2/aug-cc-pvtz', properties = ['dipole'])
--------------------------------------------------------------------------

    Molecular point group: c1
  Charge       = 0
  Multiplicity = 1
  Basis Set: AUG-CC-PVTZ
    Blend: AUG-CC-PVTZ
  Basis Set: (AUG-CC-PVTZ AUX)
    Blend: AUG-CC-PVTZ-JKFIT

    Orbital Energies [Eh]
    ---------------------

    Doubly Occupied:

       1A    -11.245640     2A    -11.242491     3A    -11.237710
       4A    -11.237461     5A    -11.236285     6A    -11.236194
       7A    -11.236072     8A    -11.235131     9A    -11.234982
      10A    -11.234721    11A    -11.233395    12A    -11.233191
      13A    -11.229946    14A     -1.173955    15A     -1.149391
      16A     -1.084877    17A     -1.018011    18A     -1.013829
      19A     -1.010022    20A     -0.924110    21A     -0.843834
      22A     -0.827911    23A     -0.814277    24A     -0.779400
      25A     -0.712846    26A     -0.675727    27A     -0.656577
      28A     -0.651204    29A     -0.615091    30A     -0.614681
      31A     -0.588432    32A     -0.588271    33A     -0.580684
      34A     -0.564593    35A     -0.531588    36A     -0.518522
      37A     -0.505059    38A     -0.489903    39A     -0.487025
      40A     -0.471278    41A     -0.466103    42A     -0.354951
      43A     -0.338575    44A     -0.336715    45A     -0.292442

  @DF-RHF Final Energy:  -499.39752033787573

   => Energetics <=

    Nuclear Repulsion Energy =            691.1527164852310534
    One-Electron Energy =               -2045.5942687055669467
    Two-Electron Energy =                 855.0440318824601036
    Total Energy =                       -499.3975203378756760
  Basis Set: (AUG-CC-PVTZ AUX)
    Blend: AUG-CC-PVTZ-RI
    Molecular point group: c1

    Geometry (in Angstrom), charge = 0, multiplicity = 1:

       Center              X                  Y                   Z               Mass
    ------------   -----------------  -----------------  -----------------  -----------------
         C           -0.316868761375     0.000619764541    -0.000712614625    12.000000000000
         C            1.160150238625    -0.000168235459     0.000759385375    12.000000000000
         C           -3.151301761375     0.005345764541    -0.013035614625    12.000000000000
         C           -1.036079761375    -1.114276235459    -0.458005614625    12.000000000000
         C           -1.036293761375     1.118569764541     0.448669385375    12.000000000000
         C           -2.430085761375    -1.110131235459    -0.458116614625    12.000000000000
         C           -2.430259761375     1.117046764541     0.441675385375    12.000000000000
         C            1.873769238625    -1.121222235459     0.453590385375    12.000000000000
         C            1.877056238625     1.119637764541    -0.449907614625    12.000000000000
         C           -4.457419361375    -0.006364635459     0.016051685375    12.000000000000
         C            3.268785238625    -1.123082235459     0.452961385375    12.000000000000
         C            3.272086238625     1.119046764541    -0.444955614625    12.000000000000
         C            3.972568238625    -0.002589235459     0.005137385375    12.000000000000
         H           -0.496530761375    -1.978367235459    -0.841209614625     1.007825032230
         H           -0.497043761375     1.983821764541     0.829690385375     1.007825032230
         H           -2.967870761375    -1.981792235459    -0.828874614625     1.007825032230
         H           -2.968259761375     1.994355764541     0.798588385375     1.007825032230
         H            1.328121238625    -1.983761235459     0.831005385375     1.007825032230
         H            1.334144238625     1.983009764541    -0.829311614625     1.007825032230
         H           -5.063172761375     0.998715764541    -0.113387614625     1.007825032230
         H           -5.062694761375    -0.645649235459    -0.770509614625     1.007825032230
         H           -5.028620761375    -0.390790235459     0.977706385375     1.007825032230
         H            3.807782238625    -1.996404235459     0.813350385375     1.007825032230
         H            3.813694238625     1.991412764541    -0.803738614625     1.007825032230
         H            5.059918238625    -0.003515235459     0.006806385375     1.007825032230

  Basis Set: AUG-CC-PVTZ
    Blend: AUG-CC-PVTZ
  Basis Set: (AUG-CC-PVTZ AUX)
    Blend: AUG-CC-PVTZ-JKFIT
	 Reference Energy          =    -499.3975203378757328 [Eh]
	 Singles Energy            =      -0.0000000000000000 [Eh]
	 Same-Spin Energy          =      -0.5689423249998165 [Eh]
	 Opposite-Spin Energy      =      -1.7842607192133950 [Eh]
	 Correlation Energy        =      -2.3532030442132115 [Eh]
	 Total Energy              =    -501.7507233820889496 [Eh]

	 ================> DF-SCS-MP2 Energies <==================
	-----------------------------------------------------------
	 SCS Same-Spin Scale       =       0.3333333333333333 [-]
	 SCS Opposite-Spin Scale   =       1.2000000000000000 [-]
	 SCS Same-Spin Energy      =      -0.1896474416666055 [Eh]
	 SCS Opposite-Spin Energy  =      -2.1411128630560738 [Eh]
	 SCS Correlation Energy    =      -2.3307603047226793 [Eh]
	 SCS Total Energy          =    -501.7282806425984063 [Eh]
	-----------------------------------------------------------

  Dipole Moment: [D]
     X:    -0.4257      Y:    -0.0168      Z:     0.0446     Total:     0.4283

*** Psi4 exiting successfully. Buy a developer a beer!
