                               Psi4 1.4a3.dev225

  ==> Input File <==

--------------------------------------------------------------------------
#psi4
#
memory 32 gb

molecule  {
0 1
  C       -0.2663850     0.0008990    -0.0013960
  C        1.2106340     0.0001110     0.0000760
  C       -3.1008180     0.0056250    -0.0137190
  C       -0.9855960    -1.1139970    -0.4586890
  C       -0.9858100     1.1188490     0.4479860
  C       -2.3796020    -1.1098520    -0.4588000
  C       -2.3797760     1.1173260     0.4409920
  C        1.9242530    -1.1209430     0.4529070
  C        1.9275400     1.1199170    -0.4505910
  C       -4.6068780    -0.0078780     0.0198210
  C        3.3192690    -1.1228030     0.4522780
  C        3.3225700     1.1193260    -0.4456390
  C        4.0230520    -0.0023100     0.0044540
  H       -0.4460470    -1.9780880    -0.8418930
  H       -0.4465600     1.9841010     0.8290070
  H       -2.9173870    -1.9815130    -0.8295580
  H       -2.9177760     1.9946350     0.7979050
  H        1.3786050    -1.9834820     0.8303220
  H        1.3347358     2.0626307    -0.8648613
  H       -5.0126890     0.9989950    -0.1140710
  H       -5.0122110    -0.6453700    -0.7711930
  H       -4.9781370    -0.3905110     0.9770230
  H        3.8582660    -1.9961250     0.8126670
  H        3.8641780     1.9916920    -0.8044220
  H        5.1104020    -0.0032360     0.0061230
units angstrom
no_reorient  #important for SAPT in psi4, default
symmetry c1  #important for SAPT in psi4, default
}

set PROPERTIES_ORIGIN ["COM"]
properties('MP2/aug-cc-pvtz', properties = ['dipole'])
--------------------------------------------------------------------------

    Molecular point group: c1
  Charge       = 0
  Multiplicity = 1
  Basis Set: AUG-CC-PVTZ
    Blend: AUG-CC-PVTZ
  Basis Set: (AUG-CC-PVTZ AUX)
    Blend: AUG-CC-PVTZ-JKFIT

    Orbital Energies [Eh]
    ---------------------

    Doubly Occupied:

       1A    -11.246492     2A    -11.245292     3A    -11.242503
       4A    -11.241181     5A    -11.237926     6A    -11.237502
       7A    -11.235277     8A    -11.235233     9A    -11.235020
      10A    -11.234955    11A    -11.231927    12A    -11.231856
      13A    -11.225425    14A     -1.167983    15A     -1.141427
      16A     -1.065394    17A     -1.015821    18A     -1.008060
      19A     -1.003850    20A     -0.928611    21A     -0.839588
      22A     -0.832186    23A     -0.809117    24A     -0.779179
      25A     -0.709554    26A     -0.662130    27A     -0.646026
      28A     -0.640779    29A     -0.613969    30A     -0.611218
      31A     -0.584915    32A     -0.578525    33A     -0.575164
      34A     -0.569620    35A     -0.541257    36A     -0.511985
      37A     -0.508488    38A     -0.495044    39A     -0.482087
      40A     -0.480861    41A     -0.477052    42A     -0.359413
      43A     -0.337823    44A     -0.335910    45A     -0.296353

  @DF-RHF Final Energy:  -499.44251134019669

   => Energetics <=

    Nuclear Repulsion Energy =            686.8783774868199998
    One-Electron Energy =               -2037.2618281881348139
    Two-Electron Energy =                 850.9409393611181258
    Total Energy =                       -499.4425113401966883
  Basis Set: (AUG-CC-PVTZ AUX)
    Blend: AUG-CC-PVTZ-RI
    Molecular point group: c1

    Geometry (in Angstrom), charge = 0, multiplicity = 1:

       Center              X                  Y                   Z               Mass
    ------------   -----------------  -----------------  -----------------  -----------------
         C           -0.302296005300     0.000272034188    -0.000821442310    12.000000000000
         C            1.174722994700    -0.000515965812     0.000650557690    12.000000000000
         C           -3.136729005300     0.004998034188    -0.013144442310    12.000000000000
         C           -1.021507005300    -1.114623965812    -0.458114442310    12.000000000000
         C           -1.021721005300     1.118222034188     0.448560557690    12.000000000000
         C           -2.415513005300    -1.110478965812    -0.458225442310    12.000000000000
         C           -2.415687005300     1.116699034188     0.441566557690    12.000000000000
         C            1.888341994700    -1.121569965812     0.453481557690    12.000000000000
         C            1.891628994700     1.119290034188    -0.450016442310    12.000000000000
         C           -4.642789005300    -0.008504965812     0.020395557690    12.000000000000
         C            3.283357994700    -1.123429965812     0.452852557690    12.000000000000
         C            3.286658994700     1.118699034188    -0.445064442310    12.000000000000
         C            3.987140994700    -0.002936965812     0.005028557690    12.000000000000
         H           -0.481958005300    -1.978714965812    -0.841318442310     1.007825032230
         H           -0.482471005300     1.983474034188     0.829581557690     1.007825032230
         H           -2.953298005300    -1.982139965812    -0.828983442310     1.007825032230
         H           -2.953687005300     1.994008034188     0.798479557690     1.007825032230
         H            1.342693994700    -1.984108965812     0.830896557690     1.007825032230
         H            1.298824794700     2.062003734188    -0.864286742310     1.007825032230
         H           -5.048600005300     0.998368034188    -0.113496442310     1.007825032230
         H           -5.048122005300    -0.645996965812    -0.770618442310     1.007825032230
         H           -5.014048005300    -0.391137965812     0.977597557690     1.007825032230
         H            3.822354994700    -1.996751965812     0.813241557690     1.007825032230
         H            3.828266994700     1.991065034188    -0.803847442310     1.007825032230
         H            5.074490994700    -0.003862965812     0.006697557690     1.007825032230

  Basis Set: AUG-CC-PVTZ
    Blend: AUG-CC-PVTZ
  Basis Set: (AUG-CC-PVTZ AUX)
    Blend: AUG-CC-PVTZ-JKFIT
	 Reference Energy          =    -499.4425113401966883 [Eh]
	 Singles Energy            =      -0.0000000000000000 [Eh]
	 Same-Spin Energy          =      -0.5656947993277114 [Eh]
	 Opposite-Spin Energy      =      -1.7806419670765998 [Eh]
	 Correlation Energy        =      -2.3463367664043111 [Eh]
	 Total Energy              =    -501.7888481066009945 [Eh]

	 ================> DF-SCS-MP2 Energies <==================
	-----------------------------------------------------------
	 SCS Same-Spin Scale       =       0.3333333333333333 [-]
	 SCS Opposite-Spin Scale   =       1.2000000000000000 [-]
	 SCS Same-Spin Energy      =      -0.1885649331092371 [Eh]
	 SCS Opposite-Spin Energy  =      -2.1367703604919197 [Eh]
	 SCS Correlation Energy    =      -2.3253352936011566 [Eh]
	 SCS Total Energy          =    -501.7678466337978307 [Eh]
	-----------------------------------------------------------

  Dipole Moment: [D]
     X:    -0.4614      Y:    -0.0414      Z:     0.0501     Total:     0.4659

*** Psi4 exiting successfully. Buy a developer a beer!
