                               Psi4 1.4a3.dev225

  ==> Input File <==

--------------------------------------------------------------------------
#psi4
#
memory 32 gb

molecule  {
0 1
  C       -0.2663850     0.0008990    -0.0013960
  C        1.2106340     0.0001110     0.0000760
  C       -3.1008180     0.0056250    -0.0137190
  C       -0.9855960    -1.1139970    -0.4586890
  C       -0.9858100     1.1188490     0.4479860
  C       -2.3796020    -1.1098520    -0.4588000
  C       -2.4297753     1.1172714     0.4407411
  C        1.9242530    -1.1209430     0.4529070
  C        1.9275400     1.1199170    -0.4505910
  C       -4.6068780    -0.0078780     0.0198210
  C        3.3192690    -1.1228030     0.4522780
  C        3.3225700     1.1193260    -0.4456390
  C        4.0230520    -0.0023100     0.0044540
  H       -0.4460470    -1.9780880    -0.8418930
  H       -0.4465600     1.9841010     0.8290070
  H       -2.9173870    -1.9815130    -0.8295580
  H       -2.9177760     1.9946350     0.7979050
  H        1.3786050    -1.9834820     0.8303220
  H        1.3846280     1.9832890    -0.8299950
  H       -5.0126890     0.9989950    -0.1140710
  H       -5.0122110    -0.6453700    -0.7711930
  H       -4.9781370    -0.3905110     0.9770230
  H        3.8582660    -1.9961250     0.8126670
  H        3.8641780     1.9916920    -0.8044220
  H        5.1104020    -0.0032360     0.0061230
units angstrom
no_reorient  #important for SAPT in psi4, default
symmetry c1  #important for SAPT in psi4, default
}

set PROPERTIES_ORIGIN ["COM"]
properties('MP2/aug-cc-pvtz', properties = ['dipole'])
--------------------------------------------------------------------------

    Molecular point group: c1
  Charge       = 0
  Multiplicity = 1
  Basis Set: AUG-CC-PVTZ
    Blend: AUG-CC-PVTZ
  Basis Set: (AUG-CC-PVTZ AUX)
    Blend: AUG-CC-PVTZ-JKFIT

    Orbital Energies [Eh]
    ---------------------

    Doubly Occupied:

       1A    -11.245116     2A    -11.241613     3A    -11.240130
       4A    -11.239989     5A    -11.237264     6A    -11.237003
       7A    -11.236211     8A    -11.234636     9A    -11.234450
      10A    -11.234211    11A    -11.232775    12A    -11.232273
      13A    -11.223942    14A     -1.167222    15A     -1.141064
      16A     -1.067240    17A     -1.015669    18A     -1.007624
      19A     -1.000898    20A     -0.928683    21A     -0.843409
      22A     -0.832127    23A     -0.813331    24A     -0.778430
      25A     -0.712131    26A     -0.666218    27A     -0.644699
      28A     -0.643380    29A     -0.617030    30A     -0.612912
      31A     -0.587540    32A     -0.579821    33A     -0.576120
      34A     -0.571890    35A     -0.540079    36A     -0.510272
      37A     -0.507871    38A     -0.501025    39A     -0.484311
      40A     -0.479548    41A     -0.476469    42A     -0.360822
      43A     -0.336912    44A     -0.331416    45A     -0.298377

  @DF-RHF Final Energy:  -499.44688421485654

   => Energetics <=

    Nuclear Repulsion Energy =            686.8803536863905492
    One-Electron Energy =               -2037.2461701714253195
    Two-Electron Energy =                 850.9189322701784022
    Total Energy =                       -499.4468842148564818
  Basis Set: (AUG-CC-PVTZ AUX)
    Blend: AUG-CC-PVTZ-RI
    Molecular point group: c1

    Geometry (in Angstrom), charge = 0, multiplicity = 1:

       Center              X                  Y                   Z               Mass
    ------------   -----------------  -----------------  -----------------  -----------------
         C           -0.299025755810     0.000751633692    -0.001012575539    12.000000000000
         C            1.177993244190    -0.000036366308     0.000459424461    12.000000000000
         C           -3.133458755810     0.005477633692    -0.013335575539    12.000000000000
         C           -1.018236755810    -1.114144366308    -0.458305575539    12.000000000000
         C           -1.018450755810     1.118701633692     0.448369424461    12.000000000000
         C           -2.412242755810    -1.109999366308    -0.458416575539    12.000000000000
         C           -2.462416055810     1.117124033692     0.441124524461    12.000000000000
         C            1.891612244190    -1.121090366308     0.453290424461    12.000000000000
         C            1.894899244190     1.119769633692    -0.450207575539    12.000000000000
         C           -4.639518755810    -0.008025366308     0.020204424461    12.000000000000
         C            3.286628244190    -1.122950366308     0.452661424461    12.000000000000
         C            3.289929244190     1.119178633692    -0.445255575539    12.000000000000
         C            3.990411244190    -0.002457366308     0.004837424461    12.000000000000
         H           -0.478687755810    -1.978235366308    -0.841509575539     1.007825032230
         H           -0.479200755810     1.983953633692     0.829390424461     1.007825032230
         H           -2.950027755810    -1.981660366308    -0.829174575539     1.007825032230
         H           -2.950416755810     1.994487633692     0.798288424461     1.007825032230
         H            1.345964244190    -1.983629366308     0.830705424461     1.007825032230
         H            1.351987244190     1.983141633692    -0.829611575539     1.007825032230
         H           -5.045329755810     0.998847633692    -0.113687575539     1.007825032230
         H           -5.044851755810    -0.645517366308    -0.770809575539     1.007825032230
         H           -5.010777755810    -0.390658366308     0.977406424461     1.007825032230
         H            3.825625244190    -1.996272366308     0.813050424461     1.007825032230
         H            3.831537244190     1.991544633692    -0.804038575539     1.007825032230
         H            5.077761244190    -0.003383366308     0.006506424461     1.007825032230

  Basis Set: AUG-CC-PVTZ
    Blend: AUG-CC-PVTZ
  Basis Set: (AUG-CC-PVTZ AUX)
    Blend: AUG-CC-PVTZ-JKFIT
	 Reference Energy          =    -499.4468842148565386 [Eh]
	 Singles Energy            =      -0.0000000000000000 [Eh]
	 Same-Spin Energy          =      -0.5652956700224863 [Eh]
	 Opposite-Spin Energy      =      -1.7798997971690751 [Eh]
	 Correlation Energy        =      -2.3451954671915614 [Eh]
	 Total Energy              =    -501.7920796820480973 [Eh]

	 ================> DF-SCS-MP2 Energies <==================
	-----------------------------------------------------------
	 SCS Same-Spin Scale       =       0.3333333333333333 [-]
	 SCS Opposite-Spin Scale   =       1.2000000000000000 [-]
	 SCS Same-Spin Energy      =      -0.1884318900074954 [Eh]
	 SCS Opposite-Spin Energy  =      -2.1358797566028902 [Eh]
	 SCS Correlation Energy    =      -2.3243116466103855 [Eh]
	 SCS Total Energy          =    -501.7711958614669356 [Eh]
	-----------------------------------------------------------

  Dipole Moment: [D]
     X:    -0.4490      Y:    -0.0036      Z:     0.0402     Total:     0.4508

*** Psi4 exiting successfully. Buy a developer a beer!
