                               Psi4 1.4a3.dev225

  ==> Input File <==

--------------------------------------------------------------------------
#psi4
#
memory 32 gb

molecule  {
0 1
  C       -0.2663850     0.0008990    -0.0013960
  C        1.2106340     0.0001110     0.0000760
  C       -3.1008180     0.0056250    -0.0137190
  C       -0.9855960    -1.1139970    -0.4586890
  C       -0.9858100     1.1188490     0.4479860
  C       -2.3796020    -1.1098520    -0.4588000
  C       -2.3797760     1.1173260     0.4409920
  C        1.9242530    -1.1209430     0.4529070
  C        1.9275400     1.1199170    -0.4505910
  C       -4.6068780    -0.0078780     0.0198210
  C        3.3192690    -1.1228030     0.4522780
  C        3.3225700     1.1193260    -0.4456390
  C        4.0230520    -0.0023100     0.0044540
  H       -0.4460470    -1.9780880    -0.8418930
  H       -0.4465600     1.9841010     0.8290070
  H       -2.9173870    -1.9815130    -0.8295580
  H       -2.9177760     1.9946350     0.7979050
  H        1.3786050    -1.9834820     0.8303220
  H        1.3846280     1.9832890    -0.8299950
  H       -5.0126890     0.9989950    -0.1140710
  H       -5.0122110    -0.6453700    -0.7711930
  H       -4.9781370    -0.3905110     0.9770230
  H        3.8582660    -1.9961250     0.8126670
  H        3.8890750     2.0317935    -0.8209148
  H        5.1104020    -0.0032360     0.0061230
units angstrom
no_reorient  #important for SAPT in psi4, default
symmetry c1  #important for SAPT in psi4, default
}

set PROPERTIES_ORIGIN ["COM"]
properties('MP2/aug-cc-pvtz', properties = ['dipole'])
--------------------------------------------------------------------------

    Molecular point group: c1
  Charge       = 0
  Multiplicity = 1
  Basis Set: AUG-CC-PVTZ
    Blend: AUG-CC-PVTZ
  Basis Set: (AUG-CC-PVTZ AUX)
    Blend: AUG-CC-PVTZ-JKFIT

    Orbital Energies [Eh]
    ---------------------

    Doubly Occupied:

       1A    -11.245293     2A    -11.242707     3A    -11.242620
       4A    -11.241374     5A    -11.237396     6A    -11.235442
       7A    -11.235311     8A    -11.234972     9A    -11.234875
      10A    -11.234457    11A    -11.232192    12A    -11.232118
      13A    -11.225578    14A     -1.168174    15A     -1.141365
      16A     -1.065257    17A     -1.016421    18A     -1.008287
      19A     -1.004123    20A     -0.928998    21A     -0.840011
      22A     -0.832745    23A     -0.810385    24A     -0.778764
      25A     -0.710124    26A     -0.666225    27A     -0.646090
      28A     -0.640675    29A     -0.613728    30A     -0.611320
      31A     -0.586156    32A     -0.578783    33A     -0.576352
      34A     -0.570971    35A     -0.541408    36A     -0.512657
      37A     -0.508838    38A     -0.496646    39A     -0.482112
      40A     -0.480731    41A     -0.478349    42A     -0.359295
      43A     -0.337695    44A     -0.335978    45A     -0.296296

  @DF-RHF Final Energy:  -499.44757479176513

   => Energetics <=

    Nuclear Repulsion Energy =            687.0832976033806290
    One-Electron Energy =               -2037.6631649773498793
    Two-Electron Energy =                 851.1322925822039451
    Total Energy =                       -499.4475747917651915
  Basis Set: (AUG-CC-PVTZ AUX)
    Blend: AUG-CC-PVTZ-RI
    Molecular point group: c1

    Geometry (in Angstrom), charge = 0, multiplicity = 1:

       Center              X                  Y                   Z               Mass
    ------------   -----------------  -----------------  -----------------  -----------------
         C           -0.302744411980     0.000507303021    -0.000931602603    12.000000000000
         C            1.174274588020    -0.000280696979     0.000540397397    12.000000000000
         C           -3.137177411980     0.005233303021    -0.013254602603    12.000000000000
         C           -1.021955411980    -1.114388696979    -0.458224602603    12.000000000000
         C           -1.022169411980     1.118457303021     0.448450397397    12.000000000000
         C           -2.415961411980    -1.110243696979    -0.458335602603    12.000000000000
         C           -2.416135411980     1.116934303021     0.441456397397    12.000000000000
         C            1.887893588020    -1.121334696979     0.453371397397    12.000000000000
         C            1.891180588020     1.119525303021    -0.450126602603    12.000000000000
         C           -4.643237411980    -0.008269696979     0.020285397397    12.000000000000
         C            3.282909588020    -1.123194696979     0.452742397397    12.000000000000
         C            3.286210588020     1.118934303021    -0.445174602603    12.000000000000
         C            3.986692588020    -0.002701696979     0.004918397397    12.000000000000
         H           -0.482406411980    -1.978479696979    -0.841428602603     1.007825032230
         H           -0.482919411980     1.983709303021     0.829471397397     1.007825032230
         H           -2.953746411980    -1.981904696979    -0.829093602603     1.007825032230
         H           -2.954135411980     1.994243303021     0.798369397397     1.007825032230
         H            1.342245588020    -1.983873696979     0.830786397397     1.007825032230
         H            1.348268588020     1.982897303021    -0.829530602603     1.007825032230
         H           -5.049048411980     0.998603303021    -0.113606602603     1.007825032230
         H           -5.048570411980    -0.645761696979    -0.770728602603     1.007825032230
         H           -5.014496411980    -0.390902696979     0.977487397397     1.007825032230
         H            3.821906588020    -1.996516696979     0.813131397397     1.007825032230
         H            3.852715588020     2.031401803021    -0.820450402603     1.007825032230
         H            5.074042588020    -0.003627696979     0.006587397397     1.007825032230

  Basis Set: AUG-CC-PVTZ
    Blend: AUG-CC-PVTZ
  Basis Set: (AUG-CC-PVTZ AUX)
    Blend: AUG-CC-PVTZ-JKFIT
	 Reference Energy          =    -499.4475747917651347 [Eh]
	 Singles Energy            =      -0.0000000000000000 [Eh]
	 Same-Spin Energy          =      -0.5654746785480479 [Eh]
	 Opposite-Spin Energy      =      -1.7800230989106021 [Eh]
	 Correlation Energy        =      -2.3454977774586498 [Eh]
	 Total Energy              =    -501.7930725692237957 [Eh]

	 ================> DF-SCS-MP2 Energies <==================
	-----------------------------------------------------------
	 SCS Same-Spin Scale       =       0.3333333333333333 [-]
	 SCS Opposite-Spin Scale   =       1.2000000000000000 [-]
	 SCS Same-Spin Energy      =      -0.1884915595160160 [Eh]
	 SCS Opposite-Spin Energy  =      -2.1360277186927226 [Eh]
	 SCS Correlation Energy    =      -2.3245192782087387 [Eh]
	 SCS Total Energy          =    -501.7720940699738890 [Eh]
	-----------------------------------------------------------

  Dipole Moment: [D]
     X:    -0.5027      Y:    -0.0315      Z:     0.0440     Total:     0.5056

*** Psi4 exiting successfully. Buy a developer a beer!
