                               Psi4 1.4a3.dev225

  ==> Input File <==

--------------------------------------------------------------------------
#psi4
#
memory 32 gb

molecule  {
0 1
  C       -0.2663850     0.0008990    -0.0013960
  C        1.2106340     0.0001110     0.0000760
  C       -3.1008180     0.0056250    -0.0137190
  C       -0.9855960    -1.1139970    -0.4586890
  C       -0.9858100     1.1188490     0.4479860
  C       -2.3796020    -1.1098520    -0.4588000
  C       -2.3797760     1.1173260     0.4409920
  C        1.9242530    -1.1209430     0.4529070
  C        1.9275400     1.1199170    -0.4505910
  C       -4.6068780    -0.0078780     0.0198210
  C        3.3192690    -1.1228030     0.4522780
  C        3.3225700     1.1193260    -0.4456390
  C        4.1055053    -0.0502191     0.0247764
  H       -0.4460470    -1.9780880    -0.8418930
  H       -0.4465600     1.9841010     0.8290070
  H       -2.9173870    -1.9815130    -0.8295580
  H       -2.9177760     1.9946350     0.7979050
  H        1.3786050    -1.9834820     0.8303220
  H        1.3846280     1.9832890    -0.8299950
  H       -5.0126890     0.9989950    -0.1140710
  H       -5.0122110    -0.6453700    -0.7711930
  H       -4.9781370    -0.3905110     0.9770230
  H        3.8582660    -1.9961250     0.8126670
  H        3.8641780     1.9916920    -0.8044220
  H        5.1104020    -0.0032360     0.0061230
units angstrom
no_reorient  #important for SAPT in psi4, default
symmetry c1  #important for SAPT in psi4, default
}

set PROPERTIES_ORIGIN ["COM"]
properties('MP2/aug-cc-pvtz', properties = ['dipole'])
--------------------------------------------------------------------------

    Molecular point group: c1
  Charge       = 0
  Multiplicity = 1
  Basis Set: AUG-CC-PVTZ
    Blend: AUG-CC-PVTZ
  Basis Set: (AUG-CC-PVTZ AUX)
    Blend: AUG-CC-PVTZ-JKFIT

    Orbital Energies [Eh]
    ---------------------

    Doubly Occupied:

       1A    -11.247017     2A    -11.246082     3A    -11.243279
       4A    -11.241755     5A    -11.238524     6A    -11.236675
       7A    -11.236064     8A    -11.235872     9A    -11.234386
      10A    -11.234166    11A    -11.232613    12A    -11.232486
      13A    -11.225913    14A     -1.166689    15A     -1.136954
      16A     -1.063442    17A     -1.016055    18A     -1.008778
      19A     -1.001182    20A     -0.930368    21A     -0.840316
      22A     -0.836953    23A     -0.808060    24A     -0.781561
      25A     -0.711346    26A     -0.679608    27A     -0.645297
      28A     -0.641937    29A     -0.611869    30A     -0.610719
      31A     -0.586622    32A     -0.581453    33A     -0.576950
      34A     -0.573514    35A     -0.541470    36A     -0.523347
      37A     -0.505756    38A     -0.491533    39A     -0.484241
      40A     -0.479512    41A     -0.472747    42A     -0.356934
      43A     -0.337461    44A     -0.335029    45A     -0.294867

  @DF-RHF Final Energy:  -499.43678845876246

   => Energetics <=

    Nuclear Repulsion Energy =            685.7191954321872345
    One-Electron Energy =               -2034.8771644684134117
    Two-Electron Energy =                 849.7211805774636559
    Total Energy =                       -499.4367884587625213
  Basis Set: (AUG-CC-PVTZ AUX)
    Blend: AUG-CC-PVTZ-RI
    Molecular point group: c1

    Geometry (in Angstrom), charge = 0, multiplicity = 1:

       Center              X                  Y                   Z               Mass
    ------------   -----------------  -----------------  -----------------  -----------------
         C           -0.308481370775     0.004167902805    -0.002481276066    12.000000000000
         C            1.168537629225     0.003379902805    -0.001009276066    12.000000000000
         C           -3.142914370775     0.008893902805    -0.014804276066    12.000000000000
         C           -1.027692370775    -1.110728097195    -0.459774276066    12.000000000000
         C           -1.027906370775     1.122117902805     0.446900723934    12.000000000000
         C           -2.421698370775    -1.106583097195    -0.459885276066    12.000000000000
         C           -2.421872370775     1.120594902805     0.439906723934    12.000000000000
         C            1.882156629225    -1.117674097195     0.451821723934    12.000000000000
         C            1.885443629225     1.123185902805    -0.451676276066    12.000000000000
         C           -4.648974370775    -0.004609097195     0.018735723934    12.000000000000
         C            3.277172629225    -1.119534097195     0.451192723934    12.000000000000
         C            3.280473629225     1.122594902805    -0.446724276066    12.000000000000
         C            4.063408929225    -0.046950197195     0.023691123934    12.000000000000
         H           -0.488143370775    -1.974819097195    -0.842978276066     1.007825032230
         H           -0.488656370775     1.987369902805     0.827921723934     1.007825032230
         H           -2.959483370775    -1.978244097195    -0.830643276066     1.007825032230
         H           -2.959872370775     1.997903902805     0.796819723934     1.007825032230
         H            1.336508629225    -1.980213097195     0.829236723934     1.007825032230
         H            1.342531629225     1.986557902805    -0.831080276066     1.007825032230
         H           -5.054785370775     1.002263902805    -0.115156276066     1.007825032230
         H           -5.054307370775    -0.642101097195    -0.772278276066     1.007825032230
         H           -5.020233370775    -0.387242097195     0.975937723934     1.007825032230
         H            3.816169629225    -1.992856097195     0.811581723934     1.007825032230
         H            3.822081629225     1.994960902805    -0.805507276066     1.007825032230
         H            5.068305629225     0.000032902805     0.005037723934     1.007825032230

  Basis Set: AUG-CC-PVTZ
    Blend: AUG-CC-PVTZ
  Basis Set: (AUG-CC-PVTZ AUX)
    Blend: AUG-CC-PVTZ-JKFIT
	 Reference Energy          =    -499.4367884587624644 [Eh]
	 Singles Energy            =      -0.0000000000000000 [Eh]
	 Same-Spin Energy          =      -0.5653814485301446 [Eh]
	 Opposite-Spin Energy      =      -1.7806341569078885 [Eh]
	 Correlation Energy        =      -2.3460156054380330 [Eh]
	 Total Energy              =    -501.7828040642004908 [Eh]

	 ================> DF-SCS-MP2 Energies <==================
	-----------------------------------------------------------
	 SCS Same-Spin Scale       =       0.3333333333333333 [-]
	 SCS Opposite-Spin Scale   =       1.2000000000000000 [-]
	 SCS Same-Spin Energy      =      -0.1884604828433815 [Eh]
	 SCS Opposite-Spin Energy  =      -2.1367609882894660 [Eh]
	 SCS Correlation Energy    =      -2.3252214711328474 [Eh]
	 SCS Total Energy          =    -501.7620099298953278 [Eh]
	-----------------------------------------------------------

  Dipole Moment: [D]
     X:    -0.5095      Y:    -0.0055      Z:     0.0336     Total:     0.5106

*** Psi4 exiting successfully. Buy a developer a beer!
