                               Psi4 1.4a3.dev225

  ==> Input File <==

--------------------------------------------------------------------------
#psi4
#
memory 32 gb

molecule  {
0 1
  C       -0.2663850     0.0008990    -0.0013960
  C        1.2106340     0.0001110     0.0000760
  C       -3.1008180     0.0056250    -0.0137190
  C       -0.9855960    -1.1139970    -0.4586890
  C       -0.9858100     1.1188490     0.4479860
  C       -2.3796020    -1.1098520    -0.4588000
  C       -2.3797760     1.1173260     0.4409920
  C        1.8988383    -1.0810179     0.4367799
  C        1.9275400     1.1199170    -0.4505910
  C       -4.6068780    -0.0078780     0.0198210
  C        3.3192690    -1.1228030     0.4522780
  C        3.3225700     1.1193260    -0.4456390
  C        4.0230520    -0.0023100     0.0044540
  H       -0.4460470    -1.9780880    -0.8418930
  H       -0.4465600     1.9841010     0.8290070
  H       -2.9173870    -1.9815130    -0.8295580
  H       -2.9177760     1.9946350     0.7979050
  H        1.3786050    -1.9834820     0.8303220
  H        1.3846280     1.9832890    -0.8299950
  H       -5.0126890     0.9989950    -0.1140710
  H       -5.0122110    -0.6453700    -0.7711930
  H       -4.9781370    -0.3905110     0.9770230
  H        3.8582660    -1.9961250     0.8126670
  H        3.8641780     1.9916920    -0.8044220
  H        5.1104020    -0.0032360     0.0061230
units angstrom
no_reorient  #important for SAPT in psi4, default
symmetry c1  #important for SAPT in psi4, default
}

set PROPERTIES_ORIGIN ["COM"]
properties('MP2/aug-cc-pvtz', properties = ['dipole'])
--------------------------------------------------------------------------

    Molecular point group: c1
  Charge       = 0
  Multiplicity = 1
  Basis Set: AUG-CC-PVTZ
    Blend: AUG-CC-PVTZ
  Basis Set: (AUG-CC-PVTZ AUX)
    Blend: AUG-CC-PVTZ-JKFIT

    Orbital Energies [Eh]
    ---------------------

    Doubly Occupied:

       1A    -11.242294     2A    -11.240902     3A    -11.239435
       4A    -11.239169     5A    -11.236771     6A    -11.235013
       7A    -11.234898     8A    -11.234834     9A    -11.234477
      10A    -11.233575    11A    -11.231847    12A    -11.231742
      13A    -11.225303    14A     -1.170417    15A     -1.142223
      16A     -1.065998    17A     -1.015451    18A     -1.008350
      19A     -1.005662    20A     -0.929112    21A     -0.842398
      22A     -0.830887    23A     -0.812336    24A     -0.779633
      25A     -0.712334    26A     -0.663886    27A     -0.646363
      28A     -0.641634    29A     -0.617307    30A     -0.612515
      31A     -0.585129    32A     -0.578436    33A     -0.575952
      34A     -0.571978    35A     -0.541347    36A     -0.511981
      37A     -0.509173    38A     -0.498814    39A     -0.482130
      40A     -0.481591    41A     -0.476205    42A     -0.361910
      43A     -0.336513    44A     -0.333042    45A     -0.298818

  @DF-RHF Final Energy:  -499.44710358631818

   => Energetics <=

    Nuclear Repulsion Energy =            688.0904599237345565
    One-Electron Energy =               -2039.6755613984587399
    Two-Electron Energy =                 852.1379978884058346
    Total Energy =                       -499.4471035863182351
  Basis Set: (AUG-CC-PVTZ AUX)
    Blend: AUG-CC-PVTZ-RI
    Molecular point group: c1

    Geometry (in Angstrom), charge = 0, multiplicity = 1:

       Center              X                  Y                   Z               Mass
    ------------   -----------------  -----------------  -----------------  -----------------
         C           -0.300780817709    -0.002102463922     0.000120805265    12.000000000000
         C            1.176238182291    -0.002890463922     0.001592805265    12.000000000000
         C           -3.135213817709     0.002623536078    -0.012202194735    12.000000000000
         C           -1.019991817709    -1.116998463922    -0.457172194735    12.000000000000
         C           -1.020205817709     1.115847536078     0.449502805265    12.000000000000
         C           -2.413997817709    -1.112853463922    -0.457283194735    12.000000000000
         C           -2.414171817709     1.114324536078     0.442508805265    12.000000000000
         C            1.864442482291    -1.084019363922     0.438296705265    12.000000000000
         C            1.893144182291     1.116915536078    -0.449074194735    12.000000000000
         C           -4.641273817709    -0.010879463922     0.021337805265    12.000000000000
         C            3.284873182291    -1.125804463922     0.453794805265    12.000000000000
         C            3.288174182291     1.116324536078    -0.444122194735    12.000000000000
         C            3.988656182291    -0.005311463922     0.005970805265    12.000000000000
         H           -0.480442817709    -1.981089463922    -0.840376194735     1.007825032230
         H           -0.480955817709     1.981099536078     0.830523805265     1.007825032230
         H           -2.951782817709    -1.984514463922    -0.828041194735     1.007825032230
         H           -2.952171817709     1.991633536078     0.799421805265     1.007825032230
         H            1.344209182291    -1.986483463922     0.831838805265     1.007825032230
         H            1.350232182291     1.980287536078    -0.828478194735     1.007825032230
         H           -5.047084817709     0.995993536078    -0.112554194735     1.007825032230
         H           -5.046606817709    -0.648371463922    -0.769676194735     1.007825032230
         H           -5.012532817709    -0.393512463922     0.978539805265     1.007825032230
         H            3.823870182291    -1.999126463922     0.814183805265     1.007825032230
         H            3.829782182291     1.988690536078    -0.802905194735     1.007825032230
         H            5.076006182291    -0.006237463922     0.007639805265     1.007825032230

  Basis Set: AUG-CC-PVTZ
    Blend: AUG-CC-PVTZ
  Basis Set: (AUG-CC-PVTZ AUX)
    Blend: AUG-CC-PVTZ-JKFIT
	 Reference Energy          =    -499.4471035863181783 [Eh]
	 Singles Energy            =      -0.0000000000000000 [Eh]
	 Same-Spin Energy          =      -0.5653392996014099 [Eh]
	 Opposite-Spin Energy      =      -1.7796920656748554 [Eh]
	 Correlation Energy        =      -2.3450313652762653 [Eh]
	 Total Energy              =    -501.7921349515944485 [Eh]

	 ================> DF-SCS-MP2 Energies <==================
	-----------------------------------------------------------
	 SCS Same-Spin Scale       =       0.3333333333333333 [-]
	 SCS Opposite-Spin Scale   =       1.2000000000000000 [-]
	 SCS Same-Spin Energy      =      -0.1884464332004700 [Eh]
	 SCS Opposite-Spin Energy  =      -2.1356304788098264 [Eh]
	 SCS Correlation Energy    =      -2.3240769120102964 [Eh]
	 SCS Total Energy          =    -501.7711804983284765 [Eh]
	-----------------------------------------------------------

  Dipole Moment: [D]
     X:    -0.4543      Y:    -0.0165      Z:     0.0360     Total:     0.4560

*** Psi4 exiting successfully. Buy a developer a beer!
