                               Psi4 1.4a3.dev225

  ==> Input File <==

--------------------------------------------------------------------------
#psi4
#
memory 32 gb

molecule  {
0 1
  C       -0.2663850     0.0008990    -0.0013960
  C        1.2106340     0.0001110     0.0000760
  C       -3.1008180     0.0056250    -0.0137190
  C       -0.9855960    -1.1139970    -0.4586890
  C       -0.9858100     1.1188490     0.4479860
  C       -2.3796020    -1.1098520    -0.4588000
  C       -2.3297767     1.1173806     0.4412429
  C        1.9242530    -1.1209430     0.4529070
  C        1.9275400     1.1199170    -0.4505910
  C       -4.6068780    -0.0078780     0.0198210
  C        3.3192690    -1.1228030     0.4522780
  C        3.3225700     1.1193260    -0.4456390
  C        4.0230520    -0.0023100     0.0044540
  H       -0.4460470    -1.9780880    -0.8418930
  H       -0.4465600     1.9841010     0.8290070
  H       -2.9173870    -1.9815130    -0.8295580
  H       -2.9177760     1.9946350     0.7979050
  H        1.3786050    -1.9834820     0.8303220
  H        1.3846280     1.9832890    -0.8299950
  H       -5.0126890     0.9989950    -0.1140710
  H       -5.0122110    -0.6453700    -0.7711930
  H       -4.9781370    -0.3905110     0.9770230
  H        3.8582660    -1.9961250     0.8126670
  H        3.8641780     1.9916920    -0.8044220
  H        5.1104020    -0.0032360     0.0061230
units angstrom
no_reorient  #important for SAPT in psi4, default
symmetry c1  #important for SAPT in psi4, default
}

set PROPERTIES_ORIGIN ["COM"]
properties('MP2/aug-cc-pvtz', properties = ['dipole'])
--------------------------------------------------------------------------

    Molecular point group: c1
  Charge       = 0
  Multiplicity = 1
  Basis Set: AUG-CC-PVTZ
    Blend: AUG-CC-PVTZ
  Basis Set: (AUG-CC-PVTZ AUX)
    Blend: AUG-CC-PVTZ-JKFIT

    Orbital Energies [Eh]
    ---------------------

    Doubly Occupied:

       1A    -11.245081     2A    -11.244766     3A    -11.240961
       4A    -11.237061     5A    -11.236802     6A    -11.234406
       7A    -11.234342     8A    -11.234211     9A    -11.233978
      10A    -11.231993    11A    -11.231277    12A    -11.229100
      13A    -11.227045    14A     -1.169221    15A     -1.141873
      16A     -1.063415    17A     -1.020704    18A     -1.011380
      19A     -1.004023    20A     -0.928849    21A     -0.838534
      22A     -0.833393    23A     -0.809097    24A     -0.780957
      25A     -0.711606    26A     -0.666321    27A     -0.647731
      28A     -0.641275    29A     -0.614021    30A     -0.610606
      31A     -0.587769    32A     -0.580363    33A     -0.576570
      34A     -0.569314    35A     -0.542808    36A     -0.515154
      37A     -0.509384    38A     -0.495847    39A     -0.483601
      40A     -0.482964    41A     -0.473027    42A     -0.357514
      43A     -0.342851    44A     -0.336472    45A     -0.293559

  @DF-RHF Final Energy:  -499.44683433614040

   => Energetics <=

    Nuclear Repulsion Energy =            687.8316978371050254
    One-Electron Energy =               -2039.1546080260625331
    Two-Electron Energy =                 851.8760758528170527
    Total Energy =                       -499.4468343361403413
  Basis Set: (AUG-CC-PVTZ AUX)
    Blend: AUG-CC-PVTZ-RI
    Molecular point group: c1

    Geometry (in Angstrom), charge = 0, multiplicity = 1:

       Center              X                  Y                   Z               Mass
    ------------   -----------------  -----------------  -----------------  -----------------
         C           -0.306164522876     0.000743838050    -0.001048398374    12.000000000000
         C            1.170854477124    -0.000044161950     0.000423601626    12.000000000000
         C           -3.140597522876     0.005469838050    -0.013371398374    12.000000000000
         C           -1.025375522876    -1.114152161950    -0.458341398374    12.000000000000
         C           -1.025589522876     1.118693838050     0.448333601626    12.000000000000
         C           -2.419381522876    -1.110007161950    -0.458452398374    12.000000000000
         C           -2.369556222876     1.117225438050     0.441590501626    12.000000000000
         C            1.884473477124    -1.121098161950     0.453254601626    12.000000000000
         C            1.887760477124     1.119761838050    -0.450243398374    12.000000000000
         C           -4.646657522876    -0.008033161950     0.020168601626    12.000000000000
         C            3.279489477124    -1.122958161950     0.452625601626    12.000000000000
         C            3.282790477124     1.119170838050    -0.445291398374    12.000000000000
         C            3.983272477124    -0.002465161950     0.004801601626    12.000000000000
         H           -0.485826522876    -1.978243161950    -0.841545398374     1.007825032230
         H           -0.486339522876     1.983945838050     0.829354601626     1.007825032230
         H           -2.957166522876    -1.981668161950    -0.829210398374     1.007825032230
         H           -2.957555522876     1.994479838050     0.798252601626     1.007825032230
         H            1.338825477124    -1.983637161950     0.830669601626     1.007825032230
         H            1.344848477124     1.983133838050    -0.829647398374     1.007825032230
         H           -5.052468522876     0.998839838050    -0.113723398374     1.007825032230
         H           -5.051990522876    -0.645525161950    -0.770845398374     1.007825032230
         H           -5.017916522876    -0.390666161950     0.977370601626     1.007825032230
         H            3.818486477124    -1.996280161950     0.813014601626     1.007825032230
         H            3.824398477124     1.991536838050    -0.804074398374     1.007825032230
         H            5.070622477124    -0.003391161950     0.006470601626     1.007825032230

  Basis Set: AUG-CC-PVTZ
    Blend: AUG-CC-PVTZ
  Basis Set: (AUG-CC-PVTZ AUX)
    Blend: AUG-CC-PVTZ-JKFIT
	 Reference Energy          =    -499.4468343361403981 [Eh]
	 Singles Energy            =      -0.0000000000000000 [Eh]
	 Same-Spin Energy          =      -0.5653895195169601 [Eh]
	 Opposite-Spin Energy      =      -1.7795971244933013 [Eh]
	 Correlation Energy        =      -2.3449866440102616 [Eh]
	 Total Energy              =    -501.7918209801506464 [Eh]

	 ================> DF-SCS-MP2 Energies <==================
	-----------------------------------------------------------
	 SCS Same-Spin Scale       =       0.3333333333333333 [-]
	 SCS Opposite-Spin Scale   =       1.2000000000000000 [-]
	 SCS Same-Spin Energy      =      -0.1884631731723200 [Eh]
	 SCS Opposite-Spin Energy  =      -2.1355165493919617 [Eh]
	 SCS Correlation Energy    =      -2.3239797225642818 [Eh]
	 SCS Total Energy          =    -501.7708140587046728 [Eh]
	-----------------------------------------------------------

  Dipole Moment: [D]
     X:    -0.5176      Y:    -0.0271      Z:     0.0319     Total:     0.5193

*** Psi4 exiting successfully. Buy a developer a beer!
