                               Psi4 1.4a3.dev225

  ==> Input File <==

--------------------------------------------------------------------------
#psi4
#
memory 32 gb

molecule  {
0 1
  C       -0.2663850     0.0008990    -0.0013960
  C        1.2106340     0.0001110     0.0000760
  C       -3.1008180     0.0056250    -0.0137190
  C       -0.9855960    -1.1139970    -0.4586890
  C       -0.9858100     1.1188490     0.4479860
  C       -2.3796020    -1.1098520    -0.4588000
  C       -2.3797760     1.1173260     0.4409920
  C        1.9242530    -1.1209430     0.4529070
  C        1.9275400     1.1199170    -0.4505910
  C       -4.6068780    -0.0078780     0.0198210
  C        3.3192690    -1.1228030     0.4522780
  C        3.3225700     1.1193260    -0.4456390
  C        4.0230520    -0.0023100     0.0044540
  H       -0.4212606    -2.0177835    -0.8594970
  H       -0.4465600     1.9841010     0.8290070
  H       -2.9173870    -1.9815130    -0.8295580
  H       -2.9177760     1.9946350     0.7979050
  H        1.3786050    -1.9834820     0.8303220
  H        1.3846280     1.9832890    -0.8299950
  H       -5.0126890     0.9989950    -0.1140710
  H       -5.0122110    -0.6453700    -0.7711930
  H       -4.9781370    -0.3905110     0.9770230
  H        3.8582660    -1.9961250     0.8126670
  H        3.8641780     1.9916920    -0.8044220
  H        5.1104020    -0.0032360     0.0061230
units angstrom
no_reorient  #important for SAPT in psi4, default
symmetry c1  #important for SAPT in psi4, default
}

set PROPERTIES_ORIGIN ["COM"]
properties('MP2/aug-cc-pvtz', properties = ['dipole'])
--------------------------------------------------------------------------

    Molecular point group: c1
  Charge       = 0
  Multiplicity = 1
  Basis Set: AUG-CC-PVTZ
    Blend: AUG-CC-PVTZ
  Basis Set: (AUG-CC-PVTZ AUX)
    Blend: AUG-CC-PVTZ-JKFIT

    Orbital Energies [Eh]
    ---------------------

    Doubly Occupied:

       1A    -11.244925     2A    -11.242943     3A    -11.241980
       4A    -11.240602     5A    -11.237077     6A    -11.236825
       7A    -11.235631     8A    -11.234459     9A    -11.234266
      10A    -11.234041    11A    -11.232579    12A    -11.232274
      13A    -11.225715    14A     -1.167987    15A     -1.141359
      16A     -1.065273    17A     -1.016318    18A     -1.008146
      19A     -1.004050    20A     -0.929022    21A     -0.839899
      22A     -0.832343    23A     -0.810421    24A     -0.778635
      25A     -0.711414    26A     -0.665683    27A     -0.646150
      28A     -0.638748    29A     -0.613618    30A     -0.612197
      31A     -0.586911    32A     -0.578230    33A     -0.576113
      34A     -0.571048    35A     -0.541390    36A     -0.512353
      37A     -0.508567    38A     -0.497389    39A     -0.481998
      40A     -0.480718    41A     -0.477889    42A     -0.359165
      43A     -0.337592    44A     -0.335874    45A     -0.296254

  @DF-RHF Final Energy:  -499.44748868752589

   => Energetics <=

    Nuclear Repulsion Energy =            687.0924229615455943
    One-Electron Energy =               -2037.6876760690161063
    Two-Electron Energy =                 851.1477644199445649
    Total Energy =                       -499.4474886875258335
  Basis Set: (AUG-CC-PVTZ AUX)
    Blend: AUG-CC-PVTZ-RI
    Molecular point group: c1

    Geometry (in Angstrom), charge = 0, multiplicity = 1:

       Center              X                  Y                   Z               Mass
    ------------   -----------------  -----------------  -----------------  -----------------
         C           -0.302743748866     0.000985734504    -0.000924940284    12.000000000000
         C            1.174275251134     0.000197734504     0.000547059716    12.000000000000
         C           -3.137176748866     0.005711734504    -0.013247940284    12.000000000000
         C           -1.021954748866    -1.113910265496    -0.458217940284    12.000000000000
         C           -1.022168748866     1.118935734504     0.448457059716    12.000000000000
         C           -2.415960748866    -1.109765265496    -0.458328940284    12.000000000000
         C           -2.416134748866     1.117412734504     0.441463059716    12.000000000000
         C            1.887894251134    -1.120856265496     0.453378059716    12.000000000000
         C            1.891181251134     1.120003734504    -0.450119940284    12.000000000000
         C           -4.643236748866    -0.007791265496     0.020292059716    12.000000000000
         C            3.282910251134    -1.122716265496     0.452749059716    12.000000000000
         C            3.286211251134     1.119412734504    -0.445167940284    12.000000000000
         C            3.986693251134    -0.002223265496     0.004925059716    12.000000000000
         H           -0.457619348866    -2.017696765496    -0.859025940284     1.007825032230
         H           -0.482918748866     1.984187734504     0.829478059716     1.007825032230
         H           -2.953745748866    -1.981426265496    -0.829086940284     1.007825032230
         H           -2.954134748866     1.994721734504     0.798376059716     1.007825032230
         H            1.342246251134    -1.983395265496     0.830793059716     1.007825032230
         H            1.348269251134     1.983375734504    -0.829523940284     1.007825032230
         H           -5.049047748866     0.999081734504    -0.113599940284     1.007825032230
         H           -5.048569748866    -0.645283265496    -0.770721940284     1.007825032230
         H           -5.014495748866    -0.390424265496     0.977494059716     1.007825032230
         H            3.821907251134    -1.996038265496     0.813138059716     1.007825032230
         H            3.827819251134     1.991778734504    -0.803950940284     1.007825032230
         H            5.074043251134    -0.003149265496     0.006594059716     1.007825032230

  Basis Set: AUG-CC-PVTZ
    Blend: AUG-CC-PVTZ
  Basis Set: (AUG-CC-PVTZ AUX)
    Blend: AUG-CC-PVTZ-JKFIT
	 Reference Energy          =    -499.4474886875258903 [Eh]
	 Singles Energy            =      -0.0000000000000000 [Eh]
	 Same-Spin Energy          =      -0.5655312387574098 [Eh]
	 Opposite-Spin Energy      =      -1.7801018595260725 [Eh]
	 Correlation Energy        =      -2.3456330982834821 [Eh]
	 Total Energy              =    -501.7931217858093760 [Eh]

	 ================> DF-SCS-MP2 Energies <==================
	-----------------------------------------------------------
	 SCS Same-Spin Scale       =       0.3333333333333333 [-]
	 SCS Opposite-Spin Scale   =       1.2000000000000000 [-]
	 SCS Same-Spin Energy      =      -0.1885104129191366 [Eh]
	 SCS Opposite-Spin Energy  =      -2.1361222314312869 [Eh]
	 SCS Correlation Energy    =      -2.3246326443504235 [Eh]
	 SCS Total Energy          =    -501.7721213318762921 [Eh]
	-----------------------------------------------------------

  Dipole Moment: [D]
     X:    -0.4980      Y:    -0.0008      Z:     0.0430     Total:     0.4998

*** Psi4 exiting successfully. Buy a developer a beer!
