                               Psi4 1.4a3.dev225

  ==> Input File <==

--------------------------------------------------------------------------
#psi4
#
memory 32 gb

molecule  {
0 1
  C       -0.2663850     0.0008990    -0.0013960
  C        1.2106340     0.0001110     0.0000760
  C       -3.1008180     0.0056250    -0.0137190
  C       -0.9855960    -1.1139970    -0.4586890
  C       -0.9858100     1.1188490     0.4479860
  C       -2.3796020    -1.1098520    -0.4588000
  C       -2.3797760     1.1173260     0.4409920
  C        1.9242530    -1.1209430     0.4529070
  C        1.9275400     1.1199170    -0.4505910
  C       -4.6068780    -0.0078780     0.0198210
  C        3.3192690    -1.1228030     0.4522780
  C        3.3225700     1.1193260    -0.4456390
  C        4.1238147     0.1581143    -0.0596623
  H       -0.4460470    -1.9780880    -0.8418930
  H       -0.4465600     1.9841010     0.8290070
  H       -2.9173870    -1.9815130    -0.8295580
  H       -2.9177760     1.9946350     0.7979050
  H        1.3786050    -1.9834820     0.8303220
  H        1.3846280     1.9832890    -0.8299950
  H       -5.0126890     0.9989950    -0.1140710
  H       -5.0122110    -0.6453700    -0.7711930
  H       -4.9781370    -0.3905110     0.9770230
  H        3.8582660    -1.9961250     0.8126670
  H        3.8641780     1.9916920    -0.8044220
  H        5.1104020    -0.0032360     0.0061230
units angstrom
no_reorient  #important for SAPT in psi4, default
symmetry c1  #important for SAPT in psi4, default
}

set PROPERTIES_ORIGIN ["COM"]
properties('MP2/aug-cc-pvtz', properties = ['dipole'])
--------------------------------------------------------------------------

    Molecular point group: c1
  Charge       = 0
  Multiplicity = 1
  Basis Set: AUG-CC-PVTZ
    Blend: AUG-CC-PVTZ
  Basis Set: (AUG-CC-PVTZ AUX)
    Blend: AUG-CC-PVTZ-JKFIT

    Orbital Energies [Eh]
    ---------------------

    Doubly Occupied:

       1A    -11.252287     2A    -11.247833     3A    -11.243501
       4A    -11.241890     5A    -11.236544     6A    -11.236380
       7A    -11.235995     8A    -11.233935     9A    -11.233727
      10A    -11.232759    11A    -11.232557    12A    -11.228407
      13A    -11.226028    14A     -1.166864    15A     -1.137820
      16A     -1.066715    17A     -1.020369    18A     -1.012547
      19A     -0.993482    20A     -0.931170    21A     -0.844381
      22A     -0.834126    23A     -0.806266    24A     -0.781381
      25A     -0.710903    26A     -0.684711    27A     -0.646103
      28A     -0.641828    29A     -0.616240    30A     -0.611045
      31A     -0.590482    32A     -0.583357    33A     -0.576467
      34A     -0.564129    35A     -0.541594    36A     -0.527638
      37A     -0.505627    38A     -0.489461    39A     -0.484673
      40A     -0.480239    41A     -0.452538    42A     -0.365520
      43A     -0.337387    44A     -0.333376    45A     -0.293231

  @DF-RHF Final Energy:  -499.40871648534619

   => Energetics <=

    Nuclear Repulsion Energy =            685.4971566884072445
    One-Electron Energy =               -2034.3847195650898811
    Two-Electron Energy =                 849.4788463913365604
    Total Energy =                       -499.4087164853461900
  Basis Set: (AUG-CC-PVTZ AUX)
    Blend: AUG-CC-PVTZ-RI
    Molecular point group: c1

    Geometry (in Angstrom), charge = 0, multiplicity = 1:

       Center              X                  Y                   Z               Mass
    ------------   -----------------  -----------------  -----------------  -----------------
         C           -0.309788454491    -0.010704741557     0.003546690432    12.000000000000
         C            1.167230545509    -0.011492741557     0.005018690432    12.000000000000
         C           -3.144221454491    -0.005978741557    -0.008776309568    12.000000000000
         C           -1.028999454491    -1.125600741557    -0.453746309568    12.000000000000
         C           -1.029213454491     1.107245258443     0.452928690432    12.000000000000
         C           -2.423005454491    -1.121455741557    -0.453857309568    12.000000000000
         C           -2.423179454491     1.105722258443     0.445934690432    12.000000000000
         C            1.880849545509    -1.132546741557     0.457849690432    12.000000000000
         C            1.884136545509     1.108313258443    -0.445648309568    12.000000000000
         C           -4.650281454491    -0.019481741557     0.024763690432    12.000000000000
         C            3.275865545509    -1.134406741557     0.457220690432    12.000000000000
         C            3.279166545509     1.107722258443    -0.440696309568    12.000000000000
         C            4.080411245509     0.146510558443    -0.054719609568    12.000000000000
         H           -0.489450454491    -1.989691741557    -0.836950309568     1.007825032230
         H           -0.489963454491     1.972497258443     0.833949690432     1.007825032230
         H           -2.960790454491    -1.993116741557    -0.824615309568     1.007825032230
         H           -2.961179454491     1.983031258443     0.802847690432     1.007825032230
         H            1.335201545509    -1.995085741557     0.835264690432     1.007825032230
         H            1.341224545509     1.971685258443    -0.825052309568     1.007825032230
         H           -5.056092454491     0.987391258443    -0.109128309568     1.007825032230
         H           -5.055614454491    -0.656973741557    -0.766250309568     1.007825032230
         H           -5.021540454491    -0.402114741557     0.981965690432     1.007825032230
         H            3.814862545509    -2.007728741557     0.817609690432     1.007825032230
         H            3.820774545509     1.980088258443    -0.799479309568     1.007825032230
         H            5.066998545509    -0.014839741557     0.011065690432     1.007825032230

  Basis Set: AUG-CC-PVTZ
    Blend: AUG-CC-PVTZ
  Basis Set: (AUG-CC-PVTZ AUX)
    Blend: AUG-CC-PVTZ-JKFIT
	 Reference Energy          =    -499.4087164853461900 [Eh]
	 Singles Energy            =      -0.0000000000000000 [Eh]
	 Same-Spin Energy          =      -0.5649155183381691 [Eh]
	 Opposite-Spin Energy      =      -1.7820032638718946 [Eh]
	 Correlation Energy        =      -2.3469187822100634 [Eh]
	 Total Energy              =    -501.7556352675562721 [Eh]

	 ================> DF-SCS-MP2 Energies <==================
	-----------------------------------------------------------
	 SCS Same-Spin Scale       =       0.3333333333333333 [-]
	 SCS Opposite-Spin Scale   =       1.2000000000000000 [-]
	 SCS Same-Spin Energy      =      -0.1883051727793897 [Eh]
	 SCS Opposite-Spin Energy  =      -2.1384039166462734 [Eh]
	 SCS Correlation Energy    =      -2.3267090894256630 [Eh]
	 SCS Total Energy          =    -501.7354255747718526 [Eh]
	-----------------------------------------------------------

  Dipole Moment: [D]
     X:    -0.5112      Y:    -0.0344      Z:     0.0423     Total:     0.5141

*** Psi4 exiting successfully. Buy a developer a beer!
