                               Psi4 1.4a3.dev225

  ==> Input File <==

--------------------------------------------------------------------------
#psi4
#
memory 32 gb

molecule  {
0 1
  C       -0.2663850     0.0008990    -0.0013960
  C        1.2106340     0.0001110     0.0000760
  C       -3.1008180     0.0056250    -0.0137190
  C       -0.9855960    -1.1139970    -0.4586890
  C       -0.9858100     1.1188490     0.4479860
  C       -2.3796020    -1.1098520    -0.4588000
  C       -2.3797760     1.1173260     0.4409920
  C        1.9242530    -1.1209430     0.4529070
  C        1.9275400     1.1199170    -0.4505910
  C       -4.6068780    -0.0078780     0.0198210
  C        3.3192690    -1.1228030     0.4522780
  C        3.3225700     1.1193260    -0.4456390
  C        4.1233430    -0.1628995     0.0688958
  H       -0.4460470    -1.9780880    -0.8418930
  H       -0.4465600     1.9841010     0.8290070
  H       -2.9173870    -1.9815130    -0.8295580
  H       -2.9177760     1.9946350     0.7979050
  H        1.3786050    -1.9834820     0.8303220
  H        1.3846280     1.9832890    -0.8299950
  H       -5.0126890     0.9989950    -0.1140710
  H       -5.0122110    -0.6453700    -0.7711930
  H       -4.9781370    -0.3905110     0.9770230
  H        3.8582660    -1.9961250     0.8126670
  H        3.8641780     1.9916920    -0.8044220
  H        5.1104020    -0.0032360     0.0061230
units angstrom
no_reorient  #important for SAPT in psi4, default
symmetry c1  #important for SAPT in psi4, default
}

set PROPERTIES_ORIGIN ["COM"]
properties('MP2/aug-cc-pvtz', properties = ['dipole'])
--------------------------------------------------------------------------

    Molecular point group: c1
  Charge       = 0
  Multiplicity = 1
  Basis Set: AUG-CC-PVTZ
    Blend: AUG-CC-PVTZ
  Basis Set: (AUG-CC-PVTZ AUX)
    Blend: AUG-CC-PVTZ-JKFIT

    Orbital Energies [Eh]
    ---------------------

    Doubly Occupied:

       1A    -11.252292     2A    -11.247834     3A    -11.243494
       4A    -11.241891     5A    -11.236548     6A    -11.236390
       7A    -11.235976     8A    -11.233942     9A    -11.233721
      10A    -11.232789    11A    -11.232521    12A    -11.228410
      13A    -11.226026    14A     -1.166863    15A     -1.137820
      16A     -1.066712    17A     -1.020360    18A     -1.012552
      19A     -0.993490    20A     -0.931164    21A     -0.844337
      22A     -0.834158    23A     -0.806276    24A     -0.781377
      25A     -0.710901    26A     -0.684716    27A     -0.646109
      28A     -0.641817    29A     -0.616351    30A     -0.610988
      31A     -0.590374    32A     -0.583132    33A     -0.576770
      34A     -0.564126    35A     -0.541647    36A     -0.527419
      37A     -0.505742    38A     -0.489664    39A     -0.484504
      40A     -0.480235    41A     -0.452526    42A     -0.365488
      43A     -0.337383    44A     -0.333439    45A     -0.293195

  @DF-RHF Final Energy:  -499.40871156618334

   => Energetics <=

    Nuclear Repulsion Energy =            685.4971814461592885
    One-Electron Energy =               -2034.3848489540712308
    Two-Electron Energy =                 849.4789559417284863
    Total Energy =                       -499.4087115661833423
  Basis Set: (AUG-CC-PVTZ AUX)
    Blend: AUG-CC-PVTZ-RI
    Molecular point group: c1

    Geometry (in Angstrom), charge = 0, multiplicity = 1:

       Center              X                  Y                   Z               Mass
    ------------   -----------------  -----------------  -----------------  -----------------
         C           -0.309754780455     0.012212006707    -0.005630901357    12.000000000000
         C            1.167264219545     0.011424006707    -0.004158901357    12.000000000000
         C           -3.144187780455     0.016938006707    -0.017953901357    12.000000000000
         C           -1.028965780455    -1.102683993293    -0.462923901357    12.000000000000
         C           -1.029179780455     1.130162006707     0.443751098643    12.000000000000
         C           -2.422971780455    -1.098538993293    -0.463034901357    12.000000000000
         C           -2.423145780455     1.128639006707     0.436757098643    12.000000000000
         C            1.880883219545    -1.109629993293     0.448672098643    12.000000000000
         C            1.884170219545     1.131230006707    -0.454825901357    12.000000000000
         C           -4.650247780455     0.003435006707     0.015586098643    12.000000000000
         C            3.275899219545    -1.111489993293     0.448043098643    12.000000000000
         C            3.279200219545     1.130639006707    -0.449873901357    12.000000000000
         C            4.079973219545    -0.151586493293     0.064660898643    12.000000000000
         H           -0.489416780455    -1.966774993293    -0.846127901357     1.007825032230
         H           -0.489929780455     1.995414006707     0.824772098643     1.007825032230
         H           -2.960756780455    -1.970199993293    -0.833792901357     1.007825032230
         H           -2.961145780455     2.005948006707     0.793670098643     1.007825032230
         H            1.335235219545    -1.972168993293     0.826087098643     1.007825032230
         H            1.341258219545     1.994602006707    -0.834229901357     1.007825032230
         H           -5.056058780455     1.010308006707    -0.118305901357     1.007825032230
         H           -5.055580780455    -0.634056993293    -0.775427901357     1.007825032230
         H           -5.021506780455    -0.379197993293     0.972788098643     1.007825032230
         H            3.814896219545    -1.984811993293     0.808432098643     1.007825032230
         H            3.820808219545     2.003005006707    -0.808656901357     1.007825032230
         H            5.067032219545     0.008077006707     0.001888098643     1.007825032230

  Basis Set: AUG-CC-PVTZ
    Blend: AUG-CC-PVTZ
  Basis Set: (AUG-CC-PVTZ AUX)
    Blend: AUG-CC-PVTZ-JKFIT
	 Reference Energy          =    -499.4087115661833423 [Eh]
	 Singles Energy            =      -0.0000000000000000 [Eh]
	 Same-Spin Energy          =      -0.5649165759728818 [Eh]
	 Opposite-Spin Energy      =      -1.7820006726415640 [Eh]
	 Correlation Energy        =      -2.3469172486144458 [Eh]
	 Total Energy              =    -501.7556288147977739 [Eh]

	 ================> DF-SCS-MP2 Energies <==================
	-----------------------------------------------------------
	 SCS Same-Spin Scale       =       0.3333333333333333 [-]
	 SCS Opposite-Spin Scale   =       1.2000000000000000 [-]
	 SCS Same-Spin Energy      =      -0.1883055253242939 [Eh]
	 SCS Opposite-Spin Energy  =      -2.1384008071698766 [Eh]
	 SCS Correlation Energy    =      -2.3267063324941706 [Eh]
	 SCS Total Energy          =    -501.7354178986774969 [Eh]
	-----------------------------------------------------------

  Dipole Moment: [D]
     X:    -0.5109      Y:     0.0068      Z:     0.0313     Total:     0.5119

*** Psi4 exiting successfully. Buy a developer a beer!
