                               Psi4 1.4a3.dev225

  ==> Input File <==

--------------------------------------------------------------------------
#psi4
#
memory 32 gb

molecule  {
0 1
  C       -0.2663850     0.0008990    -0.0013960
  C        1.2106340     0.0001110     0.0000760
  C       -3.1008180     0.0056250    -0.0137190
  C       -0.9855960    -1.1139970    -0.4586890
  C       -0.9858100     1.1188490     0.4479860
  C       -2.3796020    -1.1098520    -0.4588000
  C       -2.3797760     1.1173260     0.4409920
  C        1.9242530    -1.1209430     0.4529070
  C        1.9275400     1.1199170    -0.4505910
  C       -4.6068780    -0.0078780     0.0198210
  C        3.3192690    -1.1228030     0.4522780
  C        3.5225687     1.1192413    -0.4449291
  C        4.0230520    -0.0023100     0.0044540
  H       -0.4460470    -1.9780880    -0.8418930
  H       -0.4465600     1.9841010     0.8290070
  H       -2.9173870    -1.9815130    -0.8295580
  H       -2.9177760     1.9946350     0.7979050
  H        1.3786050    -1.9834820     0.8303220
  H        1.3846280     1.9832890    -0.8299950
  H       -5.0126890     0.9989950    -0.1140710
  H       -5.0122110    -0.6453700    -0.7711930
  H       -4.9781370    -0.3905110     0.9770230
  H        3.8582660    -1.9961250     0.8126670
  H        3.8641780     1.9916920    -0.8044220
  H        5.1104020    -0.0032360     0.0061230
units angstrom
no_reorient  #important for SAPT in psi4, default
symmetry c1  #important for SAPT in psi4, default
}

set PROPERTIES_ORIGIN ["COM"]
properties('MP2/aug-cc-pvtz', properties = ['dipole'])
--------------------------------------------------------------------------

    Molecular point group: c1
  Charge       = 0
  Multiplicity = 1
  Basis Set: AUG-CC-PVTZ
    Blend: AUG-CC-PVTZ
  Basis Set: (AUG-CC-PVTZ AUX)
    Blend: AUG-CC-PVTZ-JKFIT

    Orbital Energies [Eh]
    ---------------------

    Doubly Occupied:

       1A    -11.249438     2A    -11.243713     3A    -11.242141
       4A    -11.241007     5A    -11.238993     6A    -11.238786
       7A    -11.237421     8A    -11.235049     9A    -11.234510
      10A    -11.231867    11A    -11.231580    12A    -11.227547
      13A    -11.225224    14A     -1.165304    15A     -1.138397
      16A     -1.070024    17A     -1.017230    18A     -1.011914
      19A     -0.993653    20A     -0.927238    21A     -0.848861
      22A     -0.824996    23A     -0.817095    24A     -0.779046
      25A     -0.713568    26A     -0.666939    27A     -0.655639
      28A     -0.642985    29A     -0.627849    30A     -0.610523
      31A     -0.583949    32A     -0.581090    33A     -0.575039
      34A     -0.564149    35A     -0.541343    36A     -0.517360
      37A     -0.504444    38A     -0.498796    39A     -0.482258
      40A     -0.481177    41A     -0.454276    42A     -0.370103
      43A     -0.336285    44A     -0.323333    45A     -0.298045

  @DF-RHF Final Energy:  -499.40860056041652

   => Energetics <=

    Nuclear Repulsion Energy =            684.9733105454449742
    One-Electron Energy =               -2033.3634571777795372
    Two-Electron Energy =                 848.9815460719180464
    Total Energy =                       -499.4086005604165166
  Basis Set: (AUG-CC-PVTZ AUX)
    Blend: AUG-CC-PVTZ-RI
    Molecular point group: c1

    Geometry (in Angstrom), charge = 0, multiplicity = 1:

       Center              X                  Y                   Z               Mass
    ------------   -----------------  -----------------  -----------------  -----------------
         C           -0.316872780557     0.000753782491    -0.001081165773    12.000000000000
         C            1.160146219443    -0.000034217509     0.000390834227    12.000000000000
         C           -3.151305780557     0.005479782491    -0.013404165773    12.000000000000
         C           -1.036083780557    -1.114142217509    -0.458374165773    12.000000000000
         C           -1.036297780557     1.118703782491     0.448300834227    12.000000000000
         C           -2.430089780557    -1.109997217509    -0.458485165773    12.000000000000
         C           -2.430263780557     1.117180782491     0.441306834227    12.000000000000
         C            1.873765219443    -1.121088217509     0.453221834227    12.000000000000
         C            1.877052219443     1.119771782491    -0.450276165773    12.000000000000
         C           -4.657365780557    -0.008023217509     0.020135834227    12.000000000000
         C            3.268781219443    -1.122948217509     0.452592834227    12.000000000000
         C            3.472080919443     1.119096082491    -0.444614265773    12.000000000000
         C            3.972564219443    -0.002455217509     0.004768834227    12.000000000000
         H           -0.496534780557    -1.978233217509    -0.841578165773     1.007825032230
         H           -0.497047780557     1.983955782491     0.829321834227     1.007825032230
         H           -2.967874780557    -1.981658217509    -0.829243165773     1.007825032230
         H           -2.968263780557     1.994489782491     0.798219834227     1.007825032230
         H            1.328117219443    -1.983627217509     0.830636834227     1.007825032230
         H            1.334140219443     1.983143782491    -0.829680165773     1.007825032230
         H           -5.063176780557     0.998849782491    -0.113756165773     1.007825032230
         H           -5.062698780557    -0.645515217509    -0.770878165773     1.007825032230
         H           -5.028624780557    -0.390656217509     0.977337834227     1.007825032230
         H            3.807778219443    -1.996270217509     0.812981834227     1.007825032230
         H            3.813690219443     1.991546782491    -0.804107165773     1.007825032230
         H            5.059914219443    -0.003381217509     0.006437834227     1.007825032230

  Basis Set: AUG-CC-PVTZ
    Blend: AUG-CC-PVTZ
  Basis Set: (AUG-CC-PVTZ AUX)
    Blend: AUG-CC-PVTZ-JKFIT
	 Reference Energy          =    -499.4086005604165166 [Eh]
	 Singles Energy            =      -0.0000000000000000 [Eh]
	 Same-Spin Energy          =      -0.5649452621804668 [Eh]
	 Opposite-Spin Energy      =      -1.7822198681936747 [Eh]
	 Correlation Energy        =      -2.3471651303741417 [Eh]
	 Total Energy              =    -501.7557656907906676 [Eh]

	 ================> DF-SCS-MP2 Energies <==================
	-----------------------------------------------------------
	 SCS Same-Spin Scale       =       0.3333333333333333 [-]
	 SCS Opposite-Spin Scale   =       1.2000000000000000 [-]
	 SCS Same-Spin Energy      =      -0.1883150873934889 [Eh]
	 SCS Opposite-Spin Energy  =      -2.1386638418324098 [Eh]
	 SCS Correlation Energy    =      -2.3269789292258989 [Eh]
	 SCS Total Energy          =    -501.7355794896424186 [Eh]
	-----------------------------------------------------------

  Dipole Moment: [D]
     X:    -0.4967      Y:     0.0202      Z:     0.0209     Total:     0.4976

*** Psi4 exiting successfully. Buy a developer a beer!
