                               Psi4 1.4a3.dev225

  ==> Input File <==

--------------------------------------------------------------------------
#psi4
#
memory 32 gb

molecule  {
0 1
  C       -0.2663850     0.0008990    -0.0013960
  C        1.2106340     0.0001110     0.0000760
  C       -3.1008180     0.0056250    -0.0137190
  C       -0.9855960    -1.1139970    -0.4586890
  C       -0.9858100     1.1188490     0.4479860
  C       -2.3796020    -1.1098520    -0.4588000
  C       -2.4827152     0.9586145     0.3760754
  C        1.9242530    -1.1209430     0.4529070
  C        1.9275400     1.1199170    -0.4505910
  C       -4.6068780    -0.0078780     0.0198210
  C        3.3192690    -1.1228030     0.4522780
  C        3.3225700     1.1193260    -0.4456390
  C        4.0230520    -0.0023100     0.0044540
  H       -0.4460470    -1.9780880    -0.8418930
  H       -0.4465600     1.9841010     0.8290070
  H       -2.9173870    -1.9815130    -0.8295580
  H       -2.9177760     1.9946350     0.7979050
  H        1.3786050    -1.9834820     0.8303220
  H        1.3846280     1.9832890    -0.8299950
  H       -5.0126890     0.9989950    -0.1140710
  H       -5.0122110    -0.6453700    -0.7711930
  H       -4.9781370    -0.3905110     0.9770230
  H        3.8582660    -1.9961250     0.8126670
  H        3.8641780     1.9916920    -0.8044220
  H        5.1104020    -0.0032360     0.0061230
units angstrom
no_reorient  #important for SAPT in psi4, default
symmetry c1  #important for SAPT in psi4, default
}

set PROPERTIES_ORIGIN ["COM"]
properties('MP2/aug-cc-pvtz', properties = ['dipole'])
--------------------------------------------------------------------------

    Molecular point group: c1
  Charge       = 0
  Multiplicity = 1
  Basis Set: AUG-CC-PVTZ
    Blend: AUG-CC-PVTZ
  Basis Set: (AUG-CC-PVTZ AUX)
    Blend: AUG-CC-PVTZ-JKFIT

    Orbital Energies [Eh]
    ---------------------

    Doubly Occupied:

       1A    -11.245217     2A    -11.244044     3A    -11.242218
       4A    -11.238095     5A    -11.237808     6A    -11.236322
       7A    -11.235578     8A    -11.235398     9A    -11.235141
      10A    -11.234546    11A    -11.226261    12A    -11.223373
      13A    -11.213535    14A     -1.178438    15A     -1.151737
      16A     -1.079201    17A     -1.015855    18A     -1.010160
      19A     -0.991524    20A     -0.935537    21A     -0.853319
      22A     -0.832777    23A     -0.816115    24A     -0.769628
      25A     -0.710112    26A     -0.666554    27A     -0.650867
      28A     -0.641034    29A     -0.616296    30A     -0.610861
      31A     -0.586910    32A     -0.581628    33A     -0.577671
      34A     -0.569264    35A     -0.534105    36A     -0.518655
      37A     -0.510098    38A     -0.500164    39A     -0.488499
      40A     -0.486169    41A     -0.445429    42A     -0.375461
      43A     -0.337684    44A     -0.330318    45A     -0.303627

  @DF-RHF Final Energy:  -499.38888504818226

   => Energetics <=

    Nuclear Repulsion Energy =            689.4551849088632025
    One-Electron Energy =               -2042.2416835738033569
    Two-Electron Energy =                 853.3976136167578943
    Total Energy =                       -499.3888850481822601
  Basis Set: (AUG-CC-PVTZ AUX)
    Blend: AUG-CC-PVTZ-RI
    Molecular point group: c1

    Geometry (in Angstrom), charge = 0, multiplicity = 1:

       Center              X                  Y                   Z               Mass
    ------------   -----------------  -----------------  -----------------  -----------------
         C           -0.295246446754     0.012077938785     0.003603822785    12.000000000000
         C            1.181772553246     0.011289938785     0.005075822785    12.000000000000
         C           -3.129679446754     0.016803938785    -0.008719177215    12.000000000000
         C           -1.014457446754    -1.102818061215    -0.453689177215    12.000000000000
         C           -1.014671446754     1.130027938785     0.452985822785    12.000000000000
         C           -2.408463446754    -1.098673061215    -0.453800177215    12.000000000000
         C           -2.511576646754     0.969793438785     0.381075222785    12.000000000000
         C            1.895391553246    -1.109764061215     0.457906822785    12.000000000000
         C            1.898678553246     1.131095938785    -0.445591177215    12.000000000000
         C           -4.635739446754     0.003300938785     0.024820822785    12.000000000000
         C            3.290407553246    -1.111624061215     0.457277822785    12.000000000000
         C            3.293708553246     1.130504938785    -0.440639177215    12.000000000000
         C            3.994190553246     0.008868938785     0.009453822785    12.000000000000
         H           -0.474908446754    -1.966909061215    -0.836893177215     1.007825032230
         H           -0.475421446754     1.995279938785     0.834006822785     1.007825032230
         H           -2.946248446754    -1.970334061215    -0.824558177215     1.007825032230
         H           -2.946637446754     2.005813938785     0.802904822785     1.007825032230
         H            1.349743553246    -1.972303061215     0.835321822785     1.007825032230
         H            1.355766553246     1.994467938785    -0.824995177215     1.007825032230
         H           -5.041550446754     1.010173938785    -0.109071177215     1.007825032230
         H           -5.041072446754    -0.634191061215    -0.766193177215     1.007825032230
         H           -5.006998446754    -0.379332061215     0.982022822785     1.007825032230
         H            3.829404553246    -1.984946061215     0.817666822785     1.007825032230
         H            3.835316553246     2.002870938785    -0.799422177215     1.007825032230
         H            5.081540553246     0.007942938785     0.011122822785     1.007825032230

  Basis Set: AUG-CC-PVTZ
    Blend: AUG-CC-PVTZ
  Basis Set: (AUG-CC-PVTZ AUX)
    Blend: AUG-CC-PVTZ-JKFIT
	 Reference Energy          =    -499.3888850481822601 [Eh]
	 Singles Energy            =      -0.0000000000000000 [Eh]
	 Same-Spin Energy          =      -0.5648360509746484 [Eh]
	 Opposite-Spin Energy      =      -1.7812583500696080 [Eh]
	 Correlation Energy        =      -2.3460944010442564 [Eh]
	 Total Energy              =    -501.7349794492265005 [Eh]

	 ================> DF-SCS-MP2 Energies <==================
	-----------------------------------------------------------
	 SCS Same-Spin Scale       =       0.3333333333333333 [-]
	 SCS Opposite-Spin Scale   =       1.2000000000000000 [-]
	 SCS Same-Spin Energy      =      -0.1882786836582161 [Eh]
	 SCS Opposite-Spin Energy  =      -2.1375100200835293 [Eh]
	 SCS Correlation Energy    =      -2.3257887037417455 [Eh]
	 SCS Total Energy          =    -501.7146737519240105 [Eh]
	-----------------------------------------------------------

  Dipole Moment: [D]
     X:    -0.2836      Y:    -0.0867      Z:     0.0049     Total:     0.2966

*** Psi4 exiting successfully. Buy a developer a beer!
