                               Psi4 1.4a3.dev225

  ==> Input File <==

--------------------------------------------------------------------------
#psi4
#
memory 32 gb

molecule  {
0 1
  C       -0.2663850     0.0008990    -0.0013960
  C        1.2106340     0.0001110     0.0000760
  C       -3.1008180     0.0056250    -0.0137190
  C       -0.9855960    -1.1139970    -0.4586890
  C       -0.9858100     1.1188490     0.4479860
  C       -2.3796020    -1.1098520    -0.4588000
  C       -2.3797760     1.1173260     0.4409920
  C        1.9242530    -1.1209430     0.4529070
  C        1.9275400     1.1199170    -0.4505910
  C       -4.6068780    -0.0078780     0.0198210
  C        3.3192690    -1.1228030     0.4522780
  C        3.3225700     1.1193260    -0.4456390
  C        4.0230520    -0.0023100     0.0044540
  H       -0.4460470    -1.9780880    -0.8418930
  H       -0.4465600     1.9841010     0.8290070
  H       -2.9173870    -1.9815130    -0.8295580
  H       -2.9177760     1.9946350     0.7979050
  H        1.3786050    -1.9834820     0.8303220
  H        1.3846280     1.9832890    -0.8299950
  H       -5.0126890     0.9989950    -0.1140710
  H       -5.0122110    -0.6453700    -0.7711930
  H       -4.9781370    -0.3905110     0.9770230
  H        3.8582660    -1.9961250     0.8126670
  H        3.8392810     1.9515905    -0.7879292
  H        5.1104020    -0.0032360     0.0061230
units angstrom
no_reorient  #important for SAPT in psi4, default
symmetry c1  #important for SAPT in psi4, default
}

set PROPERTIES_ORIGIN ["COM"]
properties('MP2/aug-cc-pvtz', properties = ['dipole'])
--------------------------------------------------------------------------

    Molecular point group: c1
  Charge       = 0
  Multiplicity = 1
  Basis Set: AUG-CC-PVTZ
    Blend: AUG-CC-PVTZ
  Basis Set: (AUG-CC-PVTZ AUX)
    Blend: AUG-CC-PVTZ-JKFIT

    Orbital Energies [Eh]
    ---------------------

    Doubly Occupied:

       1A    -11.244628     2A    -11.242485     3A    -11.241050
       4A    -11.236726     5A    -11.235190     6A    -11.235055
       7A    -11.234357     8A    -11.234120     9A    -11.233984
      10A    -11.231998    11A    -11.231919    12A    -11.230573
      13A    -11.225432    14A     -1.167929    15A     -1.141342
      16A     -1.065341    17A     -1.017521    18A     -1.009236
      19A     -1.004177    20A     -0.928745    21A     -0.841987
      22A     -0.833081    23A     -0.812823    24A     -0.780356
      25A     -0.713846    26A     -0.666039    27A     -0.645943
      28A     -0.643795    29A     -0.616453    30A     -0.613236
      31A     -0.589335    32A     -0.580798    33A     -0.576231
      34A     -0.570872    35A     -0.541276    36A     -0.512798
      37A     -0.508514    38A     -0.499063    39A     -0.481761
      40A     -0.480962    41A     -0.479511    42A     -0.358871
      43A     -0.337336    44A     -0.335636    45A     -0.295922

  @DF-RHF Final Energy:  -499.44925815756676

   => Energetics <=

    Nuclear Repulsion Energy =            687.6030170319180570
    One-Electron Energy =               -2038.6880390401765908
    Two-Electron Energy =                 851.6357638506916601
    Total Energy =                       -499.4492581575667600
  Basis Set: (AUG-CC-PVTZ AUX)
    Blend: AUG-CC-PVTZ-RI
    Molecular point group: c1

    Geometry (in Angstrom), charge = 0, multiplicity = 1:

       Center              X                  Y                   Z               Mass
    ------------   -----------------  -----------------  -----------------  -----------------
         C           -0.302445866705     0.000988168721    -0.001129371310    12.000000000000
         C            1.174573133295     0.000200168721     0.000342628690    12.000000000000
         C           -3.136878866705     0.005714168721    -0.013452371310    12.000000000000
         C           -1.021656866705    -1.113907831279    -0.458422371310    12.000000000000
         C           -1.021870866705     1.118938168721     0.448252628690    12.000000000000
         C           -2.415662866705    -1.109762831279    -0.458533371310    12.000000000000
         C           -2.415836866705     1.117415168721     0.441258628690    12.000000000000
         C            1.888192133295    -1.120853831279     0.453173628690    12.000000000000
         C            1.891479133295     1.120006168721    -0.450324371310    12.000000000000
         C           -4.642938866705    -0.007788831279     0.020087628690    12.000000000000
         C            3.283208133295    -1.122713831279     0.452544628690    12.000000000000
         C            3.286509133295     1.119415168721    -0.445372371310    12.000000000000
         C            3.986991133295    -0.002220831279     0.004720628690    12.000000000000
         H           -0.482107866705    -1.977998831279    -0.841626371310     1.007825032230
         H           -0.482620866705     1.984190168721     0.829273628690     1.007825032230
         H           -2.953447866705    -1.981423831279    -0.829291371310     1.007825032230
         H           -2.953836866705     1.994724168721     0.798171628690     1.007825032230
         H            1.342544133295    -1.983392831279     0.830588628690     1.007825032230
         H            1.348567133295     1.983378168721    -0.829728371310     1.007825032230
         H           -5.048749866705     0.999084168721    -0.113804371310     1.007825032230
         H           -5.048271866705    -0.645280831279    -0.770926371310     1.007825032230
         H           -5.014197866705    -0.390421831279     0.977289628690     1.007825032230
         H            3.822205133295    -1.996035831279     0.812933628690     1.007825032230
         H            3.803220133295     1.951679668721    -0.787662571310     1.007825032230
         H            5.074341133295    -0.003146831279     0.006389628690     1.007825032230

  Basis Set: AUG-CC-PVTZ
    Blend: AUG-CC-PVTZ
  Basis Set: (AUG-CC-PVTZ AUX)
    Blend: AUG-CC-PVTZ-JKFIT
	 Reference Energy          =    -499.4492581575667600 [Eh]
	 Singles Energy            =      -0.0000000000000000 [Eh]
	 Same-Spin Energy          =      -0.5652982083978874 [Eh]
	 Opposite-Spin Energy      =      -1.7793032287541943 [Eh]
	 Correlation Energy        =      -2.3446014371520816 [Eh]
	 Total Energy              =    -501.7938595947188674 [Eh]

	 ================> DF-SCS-MP2 Energies <==================
	-----------------------------------------------------------
	 SCS Same-Spin Scale       =       0.3333333333333333 [-]
	 SCS Opposite-Spin Scale   =       1.2000000000000000 [-]
	 SCS Same-Spin Energy      =      -0.1884327361326291 [Eh]
	 SCS Opposite-Spin Energy  =      -2.1351638745050332 [Eh]
	 SCS Correlation Energy    =      -2.3235966106376624 [Eh]
	 SCS Total Energy          =    -501.7728547682044109 [Eh]
	-----------------------------------------------------------

  Dipole Moment: [D]
     X:    -0.4697      Y:     0.0004      Z:     0.0310     Total:     0.4708

*** Psi4 exiting successfully. Buy a developer a beer!
