                               Psi4 1.4a3.dev225

  ==> Input File <==

--------------------------------------------------------------------------
#psi4
#
memory 32 gb

molecule  {
0 1
  C       -0.2663850     0.0008990    -0.0013960
  C        1.2106340     0.0001110     0.0000760
  C       -3.1008180     0.0056250    -0.0137190
  C       -0.9855960    -1.1139970    -0.4586890
  C       -0.9858100     1.1188490     0.4479860
  C       -2.3796020    -1.1098520    -0.4588000
  C       -2.3797760     1.1173260     0.4409920
  C        1.9242530    -1.1209430     0.4529070
  C        1.9275400     1.1199170    -0.4505910
  C       -4.6068780    -0.0078780     0.0198210
  C        3.3192690    -1.1228030     0.4522780
  C        3.3225700     1.1193260    -0.4456390
  C        4.0018868     0.0088229    -0.0002893
  H       -0.4460470    -1.9780880    -0.8418930
  H       -0.4465600     1.9841010     0.8290070
  H       -2.9173870    -1.9815130    -0.8295580
  H       -2.9177760     1.9946350     0.7979050
  H        1.3786050    -1.9834820     0.8303220
  H        1.3846280     1.9832890    -0.8299950
  H       -5.0126890     0.9989950    -0.1140710
  H       -5.0122110    -0.6453700    -0.7711930
  H       -4.9781370    -0.3905110     0.9770230
  H        3.8582660    -1.9961250     0.8126670
  H        3.8641780     1.9916920    -0.8044220
  H        5.1104020    -0.0032360     0.0061230
units angstrom
no_reorient  #important for SAPT in psi4, default
symmetry c1  #important for SAPT in psi4, default
}

set PROPERTIES_ORIGIN ["COM"]
properties('MP2/aug-cc-pvtz', properties = ['dipole'])
--------------------------------------------------------------------------

    Molecular point group: c1
  Charge       = 0
  Multiplicity = 1
  Basis Set: AUG-CC-PVTZ
    Blend: AUG-CC-PVTZ
  Basis Set: (AUG-CC-PVTZ AUX)
    Blend: AUG-CC-PVTZ-JKFIT

    Orbital Energies [Eh]
    ---------------------

    Doubly Occupied:

       1A    -11.244490     2A    -11.242447     3A    -11.241101
       4A    -11.236897     5A    -11.235195     6A    -11.235160
       7A    -11.235029     8A    -11.234440     9A    -11.234238
      10A    -11.233312    11A    -11.231988    12A    -11.231917
      13A    -11.225418    14A     -1.168650    15A     -1.142556
      16A     -1.065843    17A     -1.017492    18A     -1.009230
      19A     -1.004220    20A     -0.928569    21A     -0.841457
      22A     -0.831789    23A     -0.812258    24A     -0.779165
      25A     -0.712099    26A     -0.663193    27A     -0.646250
      28A     -0.642045    29A     -0.614668    30A     -0.614234
      31A     -0.588598    32A     -0.580638    33A     -0.576125
      34A     -0.568851    35A     -0.541343    36A     -0.510321
      37A     -0.509082    38A     -0.499577    39A     -0.482516
      40A     -0.480138    41A     -0.478829    42A     -0.359983
      43A     -0.337665    44A     -0.335881    45A     -0.296338

  @DF-RHF Final Energy:  -499.44940512520128

   => Energetics <=

    Nuclear Repulsion Energy =            687.7642319414701433
    One-Electron Energy =               -2039.0248080191115605
    Two-Electron Energy =                 851.8111709524400794
    Total Energy =                       -499.4494051252013378
  Basis Set: (AUG-CC-PVTZ AUX)
    Blend: AUG-CC-PVTZ-RI
    Molecular point group: c1

    Geometry (in Angstrom), charge = 0, multiplicity = 1:

       Center              X                  Y                   Z               Mass
    ------------   -----------------  -----------------  -----------------  -----------------
         C           -0.301084183862    -0.000047027054    -0.000691869078    12.000000000000
         C            1.175934816138    -0.000835027054     0.000780130922    12.000000000000
         C           -3.135517183862     0.004678972946    -0.013014869078    12.000000000000
         C           -1.020295183862    -1.114943027054    -0.457984869078    12.000000000000
         C           -1.020509183862     1.117902972946     0.448690130922    12.000000000000
         C           -2.414301183862    -1.110798027054    -0.458095869078    12.000000000000
         C           -2.414475183862     1.116379972946     0.441696130922    12.000000000000
         C            1.889553816138    -1.121889027054     0.453611130922    12.000000000000
         C            1.892840816138     1.118970972946    -0.449886869078    12.000000000000
         C           -4.641577183862    -0.008824027054     0.020525130922    12.000000000000
         C            3.284569816138    -1.123749027054     0.452982130922    12.000000000000
         C            3.287870816138     1.118379972946    -0.444934869078    12.000000000000
         C            3.967187616138     0.007876872946     0.000414830922    12.000000000000
         H           -0.480746183862    -1.979034027054    -0.841188869078     1.007825032230
         H           -0.481259183862     1.983154972946     0.829711130922     1.007825032230
         H           -2.952086183862    -1.982459027054    -0.828853869078     1.007825032230
         H           -2.952475183862     1.993688972946     0.798609130922     1.007825032230
         H            1.343905816138    -1.984428027054     0.831026130922     1.007825032230
         H            1.349928816138     1.982342972946    -0.829290869078     1.007825032230
         H           -5.047388183862     0.998048972946    -0.113366869078     1.007825032230
         H           -5.046910183862    -0.646316027054    -0.770488869078     1.007825032230
         H           -5.012836183862    -0.391457027054     0.977727130922     1.007825032230
         H            3.823566816138    -1.997071027054     0.813371130922     1.007825032230
         H            3.829478816138     1.990745972946    -0.803717869078     1.007825032230
         H            5.075702816138    -0.004182027054     0.006827130922     1.007825032230

  Basis Set: AUG-CC-PVTZ
    Blend: AUG-CC-PVTZ
  Basis Set: (AUG-CC-PVTZ AUX)
    Blend: AUG-CC-PVTZ-JKFIT
	 Reference Energy          =    -499.4494051252012810 [Eh]
	 Singles Energy            =      -0.0000000000000000 [Eh]
	 Same-Spin Energy          =      -0.5654112537990749 [Eh]
	 Opposite-Spin Energy      =      -1.7795667684017085 [Eh]
	 Correlation Energy        =      -2.3449780222007832 [Eh]
	 Total Energy              =    -501.7943831474020726 [Eh]

	 ================> DF-SCS-MP2 Energies <==================
	-----------------------------------------------------------
	 SCS Same-Spin Scale       =       0.3333333333333333 [-]
	 SCS Opposite-Spin Scale   =       1.2000000000000000 [-]
	 SCS Same-Spin Energy      =      -0.1884704179330249 [Eh]
	 SCS Opposite-Spin Energy  =      -2.1354801220820501 [Eh]
	 SCS Correlation Energy    =      -2.3239505400150748 [Eh]
	 SCS Total Energy          =    -501.7733556652163429 [Eh]
	-----------------------------------------------------------

  Dipole Moment: [D]
     X:    -0.4863      Y:    -0.0163      Z:     0.0377     Total:     0.4881

*** Psi4 exiting successfully. Buy a developer a beer!
