                               Psi4 1.4a3.dev225

  ==> Input File <==

--------------------------------------------------------------------------
#psi4
#
memory 32 gb

molecule  {
0 1
  C       -0.2663850     0.0008990    -0.0013960
  C        1.2106340     0.0001110     0.0000760
  C       -3.1008180     0.0056250    -0.0137190
  C       -0.9855960    -1.1139970    -0.4586890
  C       -0.9858100     1.1188490     0.4479860
  C       -2.2796024    -1.1101493    -0.4587920
  C       -2.3797760     1.1173260     0.4409920
  C        1.9242530    -1.1209430     0.4529070
  C        1.9275400     1.1199170    -0.4505910
  C       -4.6068780    -0.0078780     0.0198210
  C        3.3192690    -1.1228030     0.4522780
  C        3.3225700     1.1193260    -0.4456390
  C        4.0230520    -0.0023100     0.0044540
  H       -0.4460470    -1.9780880    -0.8418930
  H       -0.4465600     1.9841010     0.8290070
  H       -2.9173870    -1.9815130    -0.8295580
  H       -2.9177760     1.9946350     0.7979050
  H        1.3786050    -1.9834820     0.8303220
  H        1.3846280     1.9832890    -0.8299950
  H       -5.0126890     0.9989950    -0.1140710
  H       -5.0122110    -0.6453700    -0.7711930
  H       -4.9781370    -0.3905110     0.9770230
  H        3.8582660    -1.9961250     0.8126670
  H        3.8641780     1.9916920    -0.8044220
  H        5.1104020    -0.0032360     0.0061230
units angstrom
no_reorient  #important for SAPT in psi4, default
symmetry c1  #important for SAPT in psi4, default
}

set PROPERTIES_ORIGIN ["COM"]
properties('MP2/aug-cc-pvtz', properties = ['dipole'])
--------------------------------------------------------------------------

    Molecular point group: c1
  Charge       = 0
  Multiplicity = 1
  Basis Set: AUG-CC-PVTZ
    Blend: AUG-CC-PVTZ
  Basis Set: (AUG-CC-PVTZ AUX)
    Blend: AUG-CC-PVTZ-JKFIT

    Orbital Energies [Eh]
    ---------------------

    Doubly Occupied:

       1A    -11.247503     2A    -11.244612     3A    -11.240786
       4A    -11.236994     5A    -11.236698     6A    -11.234332
       7A    -11.234112     8A    -11.233838     9A    -11.233577
      10A    -11.231016    11A    -11.230572    12A    -11.228530
      13A    -11.222643    14A     -1.170987    15A     -1.142762
      16A     -1.061757    17A     -1.027611    18A     -1.012445
      19A     -1.003267    20A     -0.928668    21A     -0.837576
      22A     -0.832882    23A     -0.806020    24A     -0.782660
      25A     -0.711462    26A     -0.666816    27A     -0.649697
      28A     -0.640799    29A     -0.614621    30A     -0.607928
      31A     -0.587791    32A     -0.580736    33A     -0.577062
      34A     -0.567002    35A     -0.544309    36A     -0.516958
      37A     -0.510613    38A     -0.494759    39A     -0.485324
      40A     -0.484796    41A     -0.464011    42A     -0.356172
      43A     -0.349829    44A     -0.336454    45A     -0.290970

  @DF-RHF Final Energy:  -499.43617179327100

   => Energetics <=

    Nuclear Repulsion Energy =            688.3751266590074920
    One-Electron Energy =               -2040.2226829071669272
    Two-Electron Energy =                 852.4113844548884344
    Total Energy =                       -499.4361717932710008
  Basis Set: (AUG-CC-PVTZ AUX)
    Blend: AUG-CC-PVTZ-RI
    Molecular point group: c1

    Geometry (in Angstrom), charge = 0, multiplicity = 1:

       Center              X                  Y                   Z               Mass
    ------------   -----------------  -----------------  -----------------  -----------------
         C           -0.309733977797     0.000768959723    -0.001031058066    12.000000000000
         C            1.167285022203    -0.000019040277     0.000440941934    12.000000000000
         C           -3.144166977797     0.005494959723    -0.013354058066    12.000000000000
         C           -1.028944977797    -1.114127040277    -0.458324058066    12.000000000000
         C           -1.029158977797     1.118718959723     0.448350941934    12.000000000000
         C           -2.322951377797    -1.110279340277    -0.458427058066    12.000000000000
         C           -2.423124977797     1.117195959723     0.441356941934    12.000000000000
         C            1.880904022203    -1.121073040277     0.453271941934    12.000000000000
         C            1.884191022203     1.119786959723    -0.450226058066    12.000000000000
         C           -4.650226977797    -0.008008040277     0.020185941934    12.000000000000
         C            3.275920022203    -1.122933040277     0.452642941934    12.000000000000
         C            3.279221022203     1.119195959723    -0.445274058066    12.000000000000
         C            3.979703022203    -0.002440040277     0.004818941934    12.000000000000
         H           -0.489395977797    -1.978218040277    -0.841528058066     1.007825032230
         H           -0.489908977797     1.983970959723     0.829371941934     1.007825032230
         H           -2.960735977797    -1.981643040277    -0.829193058066     1.007825032230
         H           -2.961124977797     1.994504959723     0.798269941934     1.007825032230
         H            1.335256022203    -1.983612040277     0.830686941934     1.007825032230
         H            1.341279022203     1.983158959723    -0.829630058066     1.007825032230
         H           -5.056037977797     0.998864959723    -0.113706058066     1.007825032230
         H           -5.055559977797    -0.645500040277    -0.770828058066     1.007825032230
         H           -5.021485977797    -0.390641040277     0.977387941934     1.007825032230
         H            3.814917022203    -1.996255040277     0.813031941934     1.007825032230
         H            3.820829022203     1.991561959723    -0.804057058066     1.007825032230
         H            5.067053022203    -0.003366040277     0.006487941934     1.007825032230

  Basis Set: AUG-CC-PVTZ
    Blend: AUG-CC-PVTZ
  Basis Set: (AUG-CC-PVTZ AUX)
    Blend: AUG-CC-PVTZ-JKFIT
	 Reference Energy          =    -499.4361717932710008 [Eh]
	 Singles Energy            =      -0.0000000000000000 [Eh]
	 Same-Spin Energy          =      -0.5653323761117969 [Eh]
	 Opposite-Spin Energy      =      -1.7798649193075313 [Eh]
	 Correlation Energy        =      -2.3451972954193283 [Eh]
	 Total Energy              =    -501.7813690886903260 [Eh]

	 ================> DF-SCS-MP2 Energies <==================
	-----------------------------------------------------------
	 SCS Same-Spin Scale       =       0.3333333333333333 [-]
	 SCS Opposite-Spin Scale   =       1.2000000000000000 [-]
	 SCS Same-Spin Energy      =      -0.1884441253705990 [Eh]
	 SCS Opposite-Spin Energy  =      -2.1358379031690373 [Eh]
	 SCS Correlation Energy    =      -2.3242820285396362 [Eh]
	 SCS Total Energy          =    -501.7604538218106427 [Eh]
	-----------------------------------------------------------

  Dipole Moment: [D]
     X:    -0.5449      Y:     0.0143      Z:     0.0526     Total:     0.5476

*** Psi4 exiting successfully. Buy a developer a beer!
