                               Psi4 1.4a3.dev225

  ==> Input File <==

--------------------------------------------------------------------------
#psi4
#
memory 32 gb

molecule  {
0 1
  C       -0.2663850     0.0008990    -0.0013960
  C        1.2106340     0.0001110     0.0000760
  C       -3.1008180     0.0056250    -0.0137190
  C       -0.9855960    -1.1139970    -0.4586890
  C       -0.9858100     1.1188490     0.4479860
  C       -2.3796020    -1.1098520    -0.4588000
  C       -2.3283064     1.1966818     0.4734503
  C        1.9242530    -1.1209430     0.4529070
  C        1.9275400     1.1199170    -0.4505910
  C       -4.6068780    -0.0078780     0.0198210
  C        3.3192690    -1.1228030     0.4522780
  C        3.3225700     1.1193260    -0.4456390
  C        4.0230520    -0.0023100     0.0044540
  H       -0.4460470    -1.9780880    -0.8418930
  H       -0.4465600     1.9841010     0.8290070
  H       -2.9173870    -1.9815130    -0.8295580
  H       -2.9177760     1.9946350     0.7979050
  H        1.3786050    -1.9834820     0.8303220
  H        1.3846280     1.9832890    -0.8299950
  H       -5.0126890     0.9989950    -0.1140710
  H       -5.0122110    -0.6453700    -0.7711930
  H       -4.9781370    -0.3905110     0.9770230
  H        3.8582660    -1.9961250     0.8126670
  H        3.8641780     1.9916920    -0.8044220
  H        5.1104020    -0.0032360     0.0061230
units angstrom
no_reorient  #important for SAPT in psi4, default
symmetry c1  #important for SAPT in psi4, default
}

set PROPERTIES_ORIGIN ["COM"]
properties('MP2/aug-cc-pvtz', properties = ['dipole'])
--------------------------------------------------------------------------

    Molecular point group: c1
  Charge       = 0
  Multiplicity = 1
  Basis Set: AUG-CC-PVTZ
    Blend: AUG-CC-PVTZ
  Basis Set: (AUG-CC-PVTZ AUX)
    Blend: AUG-CC-PVTZ-JKFIT

    Orbital Energies [Eh]
    ---------------------

    Doubly Occupied:

       1A    -11.252439     2A    -11.244829     3A    -11.240737
       4A    -11.236678     5A    -11.236434     6A    -11.236050
       7A    -11.233958     8A    -11.233777     9A    -11.233593
      10A    -11.233565    11A    -11.230492    12A    -11.230448
      13A    -11.226744    14A     -1.166427    15A     -1.137992
      16A     -1.060206    17A     -1.022461    18A     -1.011434
      19A     -1.003157    20A     -0.927292    21A     -0.840130
      22A     -0.829585    23A     -0.809554    24A     -0.780154
      25A     -0.713116    26A     -0.667797    27A     -0.647945
      28A     -0.639993    29A     -0.617901    30A     -0.611399
      31A     -0.590378    32A     -0.582609    33A     -0.575401
      34A     -0.569087    35A     -0.545042    36A     -0.513272
      37A     -0.508501    38A     -0.494171    39A     -0.486891
      40A     -0.480194    41A     -0.466934    42A     -0.355261
      43A     -0.344804    44A     -0.336117    45A     -0.289800

  @DF-RHF Final Energy:  -499.43844661301733

   => Energetics <=

    Nuclear Repulsion Energy =            686.5013358729477204
    One-Electron Energy =               -2036.4900622191767070
    Two-Electron Energy =                 850.5502797332117098
    Total Energy =                       -499.4384466130172768
  Basis Set: (AUG-CC-PVTZ AUX)
    Blend: AUG-CC-PVTZ-RI
    Molecular point group: c1

    Geometry (in Angstrom), charge = 0, multiplicity = 1:

       Center              X                  Y                   Z               Mass
    ------------   -----------------  -----------------  -----------------  -----------------
         C           -0.306269485637    -0.004917369156    -0.003347641827    12.000000000000
         C            1.170749514363    -0.005705369156    -0.001875641827    12.000000000000
         C           -3.140702485637    -0.000191369156    -0.015670641827    12.000000000000
         C           -1.025480485637    -1.119813369156    -0.460640641827    12.000000000000
         C           -1.025694485637     1.113032630844     0.446034358173    12.000000000000
         C           -2.419486485637    -1.115668369156    -0.460751641827    12.000000000000
         C           -2.368190885637     1.190865430844     0.471498658173    12.000000000000
         C            1.884368514363    -1.126759369156     0.450955358173    12.000000000000
         C            1.887655514363     1.114100630844    -0.452542641827    12.000000000000
         C           -4.646762485637    -0.013694369156     0.017869358173    12.000000000000
         C            3.279384514363    -1.128619369156     0.450326358173    12.000000000000
         C            3.282685514363     1.113509630844    -0.447590641827    12.000000000000
         C            3.983167514363    -0.008126369156     0.002502358173    12.000000000000
         H           -0.485931485637    -1.983904369156    -0.843844641827     1.007825032230
         H           -0.486444485637     1.978284630844     0.827055358173     1.007825032230
         H           -2.957271485637    -1.987329369156    -0.831509641827     1.007825032230
         H           -2.957660485637     1.988818630844     0.795953358173     1.007825032230
         H            1.338720514363    -1.989298369156     0.828370358173     1.007825032230
         H            1.344743514363     1.977472630844    -0.831946641827     1.007825032230
         H           -5.052573485637     0.993178630844    -0.116022641827     1.007825032230
         H           -5.052095485637    -0.651186369156    -0.773144641827     1.007825032230
         H           -5.018021485637    -0.396327369156     0.975071358173     1.007825032230
         H            3.818381514363    -2.001941369156     0.810715358173     1.007825032230
         H            3.824293514363     1.985875630844    -0.806373641827     1.007825032230
         H            5.070517514363    -0.009052369156     0.004171358173     1.007825032230

  Basis Set: AUG-CC-PVTZ
    Blend: AUG-CC-PVTZ
  Basis Set: (AUG-CC-PVTZ AUX)
    Blend: AUG-CC-PVTZ-JKFIT
	 Reference Energy          =    -499.4384466130173337 [Eh]
	 Singles Energy            =      -0.0000000000000000 [Eh]
	 Same-Spin Energy          =      -0.5651903250943495 [Eh]
	 Opposite-Spin Energy      =      -1.7802277882376734 [Eh]
	 Correlation Energy        =      -2.3454181133320229 [Eh]
	 Total Energy              =    -501.7838647263493499 [Eh]

	 ================> DF-SCS-MP2 Energies <==================
	-----------------------------------------------------------
	 SCS Same-Spin Scale       =       0.3333333333333333 [-]
	 SCS Opposite-Spin Scale   =       1.2000000000000000 [-]
	 SCS Same-Spin Energy      =      -0.1883967750314498 [Eh]
	 SCS Opposite-Spin Energy  =      -2.1362733458852081 [Eh]
	 SCS Correlation Energy    =      -2.3246701209166578 [Eh]
	 SCS Total Energy          =    -501.7631167339339981 [Eh]
	-----------------------------------------------------------

  Dipole Moment: [D]
     X:    -0.5482      Y:     0.0026      Z:     0.0440     Total:     0.5500

*** Psi4 exiting successfully. Buy a developer a beer!
