                               Psi4 1.4a3.dev225

  ==> Input File <==

--------------------------------------------------------------------------
#psi4
#
memory 32 gb

molecule  {
0 1
  C       -0.2663850     0.0008990    -0.0013960
  C        1.2106340     0.0001110     0.0000760
  C       -3.1008180     0.0056250    -0.0137190
  C       -0.9855960    -1.1139970    -0.4586890
  C       -0.9858100     1.1188490     0.4479860
  C       -2.3796020    -1.1098520    -0.4588000
  C       -2.3797760     1.1173260     0.4409920
  C        1.9242530    -1.1209430     0.4529070
  C        1.9275400     1.1199170    -0.4505910
  C       -4.6068780    -0.0078780     0.0198210
  C        3.3192690    -1.1228030     0.4522780
  C        3.3225700     1.1193260    -0.4456390
  C        4.0230520    -0.0023100     0.0044540
  H       -0.4361325    -1.9939662    -0.8489346
  H       -0.4465600     1.9841010     0.8290070
  H       -2.9173870    -1.9815130    -0.8295580
  H       -2.9177760     1.9946350     0.7979050
  H        1.3786050    -1.9834820     0.8303220
  H        1.3846280     1.9832890    -0.8299950
  H       -5.0126890     0.9989950    -0.1140710
  H       -5.0122110    -0.6453700    -0.7711930
  H       -4.9781370    -0.3905110     0.9770230
  H        3.8582660    -1.9961250     0.8126670
  H        3.8641780     1.9916920    -0.8044220
  H        5.1104020    -0.0032360     0.0061230
units angstrom
no_reorient  #important for SAPT in psi4, default
symmetry c1  #important for SAPT in psi4, default
}

set PROPERTIES_ORIGIN ["COM"]
properties('MP2/aug-cc-pvtz', properties = ['dipole'])
--------------------------------------------------------------------------

    Molecular point group: c1
  Charge       = 0
  Multiplicity = 1
  Basis Set: AUG-CC-PVTZ
    Blend: AUG-CC-PVTZ
  Basis Set: (AUG-CC-PVTZ AUX)
    Blend: AUG-CC-PVTZ-JKFIT

    Orbital Energies [Eh]
    ---------------------

    Doubly Occupied:

       1A    -11.244932     2A    -11.242725     3A    -11.241431
       4A    -11.237463     5A    -11.237124     6A    -11.236876
       7A    -11.235395     8A    -11.234489     9A    -11.234304
      10A    -11.234083    11A    -11.232269    12A    -11.232136
      13A    -11.225583    14A     -1.168003    15A     -1.141326
      16A     -1.065257    17A     -1.016599    18A     -1.008455
      19A     -1.004123    20A     -0.928920    21A     -0.840371
      22A     -0.832664    23A     -0.811041    24A     -0.779151
      25A     -0.711657    26A     -0.665911    27A     -0.646025
      28A     -0.640641    29A     -0.613595    30A     -0.613050
      31A     -0.587370    32A     -0.579375    33A     -0.576293
      34A     -0.571000    35A     -0.541358    36A     -0.512549
      37A     -0.508622    38A     -0.497718    39A     -0.481929
      40A     -0.480700    41A     -0.478756    42A     -0.359103
      43A     -0.337525    44A     -0.335827    45A     -0.296156

  @DF-RHF Final Energy:  -499.44935485271861

   => Energetics <=

    Nuclear Repulsion Energy =            687.2367162333093802
    One-Electron Energy =               -2037.9723848098888084
    Two-Electron Energy =                 851.2863137238607578
    Total Energy =                       -499.4493548527186704
  Basis Set: (AUG-CC-PVTZ AUX)
    Blend: AUG-CC-PVTZ-RI
    Molecular point group: c1

    Geometry (in Angstrom), charge = 0, multiplicity = 1:

       Center              X                  Y                   Z               Mass
    ------------   -----------------  -----------------  -----------------  -----------------
         C           -0.302654582792     0.000842935324    -0.000988268287    12.000000000000
         C            1.174364417208     0.000054935324     0.000483731713    12.000000000000
         C           -3.137087582792     0.005568935324    -0.013311268287    12.000000000000
         C           -1.021865582792    -1.114053064676    -0.458281268287    12.000000000000
         C           -1.022079582792     1.118792935324     0.448393731713    12.000000000000
         C           -2.415871582792    -1.109908064676    -0.458392268287    12.000000000000
         C           -2.416045582792     1.117269935324     0.441399731713    12.000000000000
         C            1.887983417208    -1.120999064676     0.453314731713    12.000000000000
         C            1.891270417208     1.119860935324    -0.450183268287    12.000000000000
         C           -4.643147582792    -0.007934064676     0.020228731713    12.000000000000
         C            3.282999417208    -1.122859064676     0.452685731713    12.000000000000
         C            3.286300417208     1.119269935324    -0.445231268287    12.000000000000
         C            3.986782417208    -0.002366064676     0.004861731713    12.000000000000
         H           -0.472402082792    -1.994022264676    -0.848526868287     1.007825032230
         H           -0.482829582792     1.984044935324     0.829414731713     1.007825032230
         H           -2.953656582792    -1.981569064676    -0.829150268287     1.007825032230
         H           -2.954045582792     1.994578935324     0.798312731713     1.007825032230
         H            1.342335417208    -1.983538064676     0.830729731713     1.007825032230
         H            1.348358417208     1.983232935324    -0.829587268287     1.007825032230
         H           -5.048958582792     0.998938935324    -0.113663268287     1.007825032230
         H           -5.048480582792    -0.645426064676    -0.770785268287     1.007825032230
         H           -5.014406582792    -0.390567064676     0.977430731713     1.007825032230
         H            3.821996417208    -1.996181064676     0.813074731713     1.007825032230
         H            3.827908417208     1.991635935324    -0.804014268287     1.007825032230
         H            5.074132417208    -0.003292064676     0.006530731713     1.007825032230

  Basis Set: AUG-CC-PVTZ
    Blend: AUG-CC-PVTZ
  Basis Set: (AUG-CC-PVTZ AUX)
    Blend: AUG-CC-PVTZ-JKFIT
	 Reference Energy          =    -499.4493548527186135 [Eh]
	 Singles Energy            =      -0.0000000000000000 [Eh]
	 Same-Spin Energy          =      -0.5654364938124509 [Eh]
	 Opposite-Spin Energy      =      -1.7797917927325004 [Eh]
	 Correlation Energy        =      -2.3452282865449514 [Eh]
	 Total Energy              =    -501.7945831392635796 [Eh]

	 ================> DF-SCS-MP2 Energies <==================
	-----------------------------------------------------------
	 SCS Same-Spin Scale       =       0.3333333333333333 [-]
	 SCS Opposite-Spin Scale   =       1.2000000000000000 [-]
	 SCS Same-Spin Energy      =      -0.1884788312708169 [Eh]
	 SCS Opposite-Spin Energy  =      -2.1357501512790003 [Eh]
	 SCS Correlation Energy    =      -2.3242289825498172 [Eh]
	 SCS Total Energy          =    -501.7735838352684254 [Eh]
	-----------------------------------------------------------

  Dipole Moment: [D]
     X:    -0.4898      Y:    -0.0089      Z:     0.0391     Total:     0.4914

*** Psi4 exiting successfully. Buy a developer a beer!
