                               Psi4 1.4a3.dev225

  ==> Input File <==

--------------------------------------------------------------------------
#psi4
#
memory 32 gb

molecule  {
0 1
  C       -0.2663850     0.0008990    -0.0013960
  C        1.2106340     0.0001110     0.0000760
  C       -3.1008180     0.0056250    -0.0137190
  C       -0.9855960    -1.1139970    -0.4586890
  C       -0.9858100     1.1188490     0.4479860
  C       -2.3796020    -1.1098520    -0.4588000
  C       -2.3797760     1.1173260     0.4409920
  C        1.9242530    -1.1209430     0.4529070
  C        1.9275400     1.1199170    -0.4505910
  C       -4.6068780    -0.0078780     0.0198210
  C        3.3192690    -1.1228030     0.4522780
  C        3.3225700     1.1193260    -0.4456390
  C        4.0330811    -0.0183689     0.0108982
  H       -0.4460470    -1.9780880    -0.8418930
  H       -0.4465600     1.9841010     0.8290070
  H       -2.9173870    -1.9815130    -0.8295580
  H       -2.9177760     1.9946350     0.7979050
  H        1.3786050    -1.9834820     0.8303220
  H        1.3846280     1.9832890    -0.8299950
  H       -5.0126890     0.9989950    -0.1140710
  H       -5.0122110    -0.6453700    -0.7711930
  H       -4.9781370    -0.3905110     0.9770230
  H        3.8582660    -1.9961250     0.8126670
  H        3.8641780     1.9916920    -0.8044220
  H        5.1104020    -0.0032360     0.0061230
units angstrom
no_reorient  #important for SAPT in psi4, default
symmetry c1  #important for SAPT in psi4, default
}

set PROPERTIES_ORIGIN ["COM"]
properties('MP2/aug-cc-pvtz', properties = ['dipole'])
--------------------------------------------------------------------------

    Molecular point group: c1
  Charge       = 0
  Multiplicity = 1
  Basis Set: AUG-CC-PVTZ
    Blend: AUG-CC-PVTZ
  Basis Set: (AUG-CC-PVTZ AUX)
    Blend: AUG-CC-PVTZ-JKFIT

    Orbital Energies [Eh]
    ---------------------

    Doubly Occupied:

       1A    -11.245168     2A    -11.242660     3A    -11.241255
       4A    -11.239061     5A    -11.236248     6A    -11.235388
       7A    -11.235243     8A    -11.234636     9A    -11.234367
      10A    -11.234053    11A    -11.232145    12A    -11.232054
      13A    -11.225542    14A     -1.167785    15A     -1.140758
      16A     -1.065044    17A     -1.016659    18A     -1.008710
      19A     -1.003768    20A     -0.929016    21A     -0.840557
      22A     -0.833382    23A     -0.811067    24A     -0.779687
      25A     -0.711727    26A     -0.667595    27A     -0.645836
      28A     -0.642036    29A     -0.613504    30A     -0.613017
      31A     -0.587415    32A     -0.579874    33A     -0.576472
      34A     -0.571726    35A     -0.541343    36A     -0.514240
      37A     -0.508235    38A     -0.496936    39A     -0.481734
      40A     -0.481315    41A     -0.478564    42A     -0.358803
      43A     -0.337422    44A     -0.335719    45A     -0.295947

  @DF-RHF Final Energy:  -499.44946799179911

   => Energetics <=

    Nuclear Repulsion Energy =            687.1358266082625050
    One-Electron Energy =               -2037.7631624701025430
    Two-Electron Energy =                 851.1778678700409273
    Total Energy =                       -499.4494679917991107
  Basis Set: (AUG-CC-PVTZ AUX)
    Blend: AUG-CC-PVTZ-RI
    Molecular point group: c1

    Geometry (in Angstrom), charge = 0, multiplicity = 1:

       Center              X                  Y                   Z               Mass
    ------------   -----------------  -----------------  -----------------  -----------------
         C           -0.303311103454     0.001894159385    -0.001490529824    12.000000000000
         C            1.173707896546     0.001106159385    -0.000018529824    12.000000000000
         C           -3.137744103454     0.006620159385    -0.013813529824    12.000000000000
         C           -1.022522103454    -1.113001840615    -0.458783529824    12.000000000000
         C           -1.022736103454     1.119844159385     0.447891470176    12.000000000000
         C           -2.416528103454    -1.108856840615    -0.458894529824    12.000000000000
         C           -2.416702103454     1.118321159385     0.440897470176    12.000000000000
         C            1.887326896546    -1.119947840615     0.452812470176    12.000000000000
         C            1.890613896546     1.120912159385    -0.450685529824    12.000000000000
         C           -4.643804103454    -0.006882840615     0.019726470176    12.000000000000
         C            3.282342896546    -1.121807840615     0.452183470176    12.000000000000
         C            3.285643896546     1.120321159385    -0.445733529824    12.000000000000
         C            3.996154996546    -0.017373740615     0.010803670176    12.000000000000
         H           -0.482973103454    -1.977092840615    -0.841987529824     1.007825032230
         H           -0.483486103454     1.985096159385     0.828912470176     1.007825032230
         H           -2.954313103454    -1.980517840615    -0.829652529824     1.007825032230
         H           -2.954702103454     1.995630159385     0.797810470176     1.007825032230
         H            1.341678896546    -1.982486840615     0.830227470176     1.007825032230
         H            1.347701896546     1.984284159385    -0.830089529824     1.007825032230
         H           -5.049615103454     0.999990159385    -0.114165529824     1.007825032230
         H           -5.049137103454    -0.644374840615    -0.771287529824     1.007825032230
         H           -5.015063103454    -0.389515840615     0.976928470176     1.007825032230
         H            3.821339896546    -1.995129840615     0.812572470176     1.007825032230
         H            3.827251896546     1.992687159385    -0.804516529824     1.007825032230
         H            5.073475896546    -0.002240840615     0.006028470176     1.007825032230

  Basis Set: AUG-CC-PVTZ
    Blend: AUG-CC-PVTZ
  Basis Set: (AUG-CC-PVTZ AUX)
    Blend: AUG-CC-PVTZ-JKFIT
	 Reference Energy          =    -499.4494679917991107 [Eh]
	 Singles Energy            =      -0.0000000000000000 [Eh]
	 Same-Spin Energy          =      -0.5653574448320517 [Eh]
	 Opposite-Spin Energy      =      -1.7796664107732183 [Eh]
	 Correlation Energy        =      -2.3450238556052700 [Eh]
	 Total Energy              =    -501.7944918474044016 [Eh]

	 ================> DF-SCS-MP2 Energies <==================
	-----------------------------------------------------------
	 SCS Same-Spin Scale       =       0.3333333333333333 [-]
	 SCS Opposite-Spin Scale   =       1.2000000000000000 [-]
	 SCS Same-Spin Energy      =      -0.1884524816106839 [Eh]
	 SCS Opposite-Spin Energy  =      -2.1355996929278618 [Eh]
	 SCS Correlation Energy    =      -2.3240521745385458 [Eh]
	 SCS Total Energy          =    -501.7735201663376756 [Eh]
	-----------------------------------------------------------

  Dipole Moment: [D]
     X:    -0.4851      Y:    -0.0103      Z:     0.0356     Total:     0.4865

*** Psi4 exiting successfully. Buy a developer a beer!
