                               Psi4 1.4a3.dev225

  ==> Input File <==

--------------------------------------------------------------------------
#psi4
#
memory 32 gb

molecule  {
0 1
  C       -0.2663850     0.0008990    -0.0013960
  C        1.2106340     0.0001110     0.0000760
  C       -3.1008180     0.0056250    -0.0137190
  C       -0.9855960    -1.1139970    -0.4586890
  C       -0.9858100     1.1188490     0.4479860
  C       -2.3796020    -1.1098520    -0.4588000
  C       -2.4797747     1.1172167     0.4404903
  C        1.9242530    -1.1209430     0.4529070
  C        1.9275400     1.1199170    -0.4505910
  C       -4.6068780    -0.0078780     0.0198210
  C        3.3192690    -1.1228030     0.4522780
  C        3.3225700     1.1193260    -0.4456390
  C        4.0230520    -0.0023100     0.0044540
  H       -0.4460470    -1.9780880    -0.8418930
  H       -0.4465600     1.9841010     0.8290070
  H       -2.9173870    -1.9815130    -0.8295580
  H       -2.9177760     1.9946350     0.7979050
  H        1.3786050    -1.9834820     0.8303220
  H        1.3846280     1.9832890    -0.8299950
  H       -5.0126890     0.9989950    -0.1140710
  H       -5.0122110    -0.6453700    -0.7711930
  H       -4.9781370    -0.3905110     0.9770230
  H        3.8582660    -1.9961250     0.8126670
  H        3.8641780     1.9916920    -0.8044220
  H        5.1104020    -0.0032360     0.0061230
units angstrom
no_reorient  #important for SAPT in psi4, default
symmetry c1  #important for SAPT in psi4, default
}

set PROPERTIES_ORIGIN ["COM"]
properties('MP2/aug-cc-pvtz', properties = ['dipole'])
--------------------------------------------------------------------------

    Molecular point group: c1
  Charge       = 0
  Multiplicity = 1
  Basis Set: AUG-CC-PVTZ
    Blend: AUG-CC-PVTZ
  Basis Set: (AUG-CC-PVTZ AUX)
    Blend: AUG-CC-PVTZ-JKFIT

    Orbital Energies [Eh]
    ---------------------

    Doubly Occupied:

       1A    -11.245278     2A    -11.244539     3A    -11.241439
       4A    -11.237820     5A    -11.237367     6A    -11.237260
       7A    -11.237075     8A    -11.234762     9A    -11.234544
      10A    -11.234275    11A    -11.233459    12A    -11.232250
      13A    -11.222428    14A     -1.166682    15A     -1.141101
      16A     -1.069333    17A     -1.015399    18A     -1.008419
      19A     -0.995803    20A     -0.928319    21A     -0.846094
      22A     -0.831373    23A     -0.814735    24A     -0.777805
      25A     -0.712474    26A     -0.666782    27A     -0.646331
      28A     -0.643452    29A     -0.619746    30A     -0.612456
      31A     -0.587214    32A     -0.579221    33A     -0.576041
      34A     -0.572286    35A     -0.539102    36A     -0.508914
      37A     -0.506368    38A     -0.504566    39A     -0.486495
      40A     -0.478462    41A     -0.470214    42A     -0.362782
      43A     -0.336936    44A     -0.327663    45A     -0.300144

  @DF-RHF Final Energy:  -499.43827980337619

   => Energetics <=

    Nuclear Repulsion Energy =            686.4600542008814728
    One-Electron Energy =               -2036.3862521562689381
    Two-Electron Energy =                 850.4879181520113889
    Total Energy =                       -499.4382798033761901
  Basis Set: (AUG-CC-PVTZ AUX)
    Blend: AUG-CC-PVTZ-RI
    Molecular point group: c1

    Geometry (in Angstrom), charge = 0, multiplicity = 1:

       Center              X                  Y                   Z               Mass
    ------------   -----------------  -----------------  -----------------  -----------------
         C           -0.295456365138     0.000755538653    -0.000994671261    12.000000000000
         C            1.181562634862    -0.000032461347     0.000477328739    12.000000000000
         C           -3.129889365138     0.005481538653    -0.013317671261    12.000000000000
         C           -1.014667365138    -1.114140461347    -0.458287671261    12.000000000000
         C           -1.014881365138     1.118705538653     0.448387328739    12.000000000000
         C           -2.408673365138    -1.109995461347    -0.458398671261    12.000000000000
         C           -2.508846065138     1.117073238653     0.440891628739    12.000000000000
         C            1.895181634862    -1.121086461347     0.453308328739    12.000000000000
         C            1.898468634862     1.119773538653    -0.450189671261    12.000000000000
         C           -4.635949365138    -0.008021461347     0.020222328739    12.000000000000
         C            3.290197634862    -1.122946461347     0.452679328739    12.000000000000
         C            3.293498634862     1.119182538653    -0.445237671261    12.000000000000
         C            3.993980634862    -0.002453461347     0.004855328739    12.000000000000
         H           -0.475118365138    -1.978231461347    -0.841491671261     1.007825032230
         H           -0.475631365138     1.983957538653     0.829408328739     1.007825032230
         H           -2.946458365138    -1.981656461347    -0.829156671261     1.007825032230
         H           -2.946847365138     1.994491538653     0.798306328739     1.007825032230
         H            1.349533634862    -1.983625461347     0.830723328739     1.007825032230
         H            1.355556634862     1.983145538653    -0.829593671261     1.007825032230
         H           -5.041760365138     0.998851538653    -0.113669671261     1.007825032230
         H           -5.041282365138    -0.645513461347    -0.770791671261     1.007825032230
         H           -5.007208365138    -0.390654461347     0.977424328739     1.007825032230
         H            3.829194634862    -1.996268461347     0.813068328739     1.007825032230
         H            3.835106634862     1.991548538653    -0.804020671261     1.007825032230
         H            5.081330634862    -0.003379461347     0.006524328739     1.007825032230

  Basis Set: AUG-CC-PVTZ
    Blend: AUG-CC-PVTZ
  Basis Set: (AUG-CC-PVTZ AUX)
    Blend: AUG-CC-PVTZ-JKFIT
	 Reference Energy          =    -499.4382798033761901 [Eh]
	 Singles Energy            =      -0.0000000000000000 [Eh]
	 Same-Spin Energy          =      -0.5651720180140859 [Eh]
	 Opposite-Spin Energy      =      -1.7804601192941221 [Eh]
	 Correlation Energy        =      -2.3456321373082081 [Eh]
	 Total Energy              =    -501.7839119406843906 [Eh]

	 ================> DF-SCS-MP2 Energies <==================
	-----------------------------------------------------------
	 SCS Same-Spin Scale       =       0.3333333333333333 [-]
	 SCS Opposite-Spin Scale   =       1.2000000000000000 [-]
	 SCS Same-Spin Energy      =      -0.1883906726713619 [Eh]
	 SCS Opposite-Spin Energy  =      -2.1365521431529464 [Eh]
	 SCS Correlation Energy    =      -2.3249428158243082 [Eh]
	 SCS Total Energy          =    -501.7632226192005191 [Eh]
	-----------------------------------------------------------

  Dipole Moment: [D]
     X:    -0.4130      Y:     0.0039      Z:     0.0424     Total:     0.4152

*** Psi4 exiting successfully. Buy a developer a beer!
