                               Psi4 1.4a3.dev225

  ==> Input File <==

--------------------------------------------------------------------------
#psi4
#
memory 32 gb

molecule  {
0 1
  C       -0.2663850     0.0008990    -0.0013960
  C        1.2106340     0.0001110     0.0000760
  C       -3.1008180     0.0056250    -0.0137190
  C       -0.9855960    -1.1139970    -0.4586890
  C       -0.9858100     1.1188490     0.4479860
  C       -2.3796020    -1.1098520    -0.4588000
  C       -2.3797760     1.1173260     0.4409920
  C        1.9242530    -1.1209430     0.4529070
  C        1.9275400     1.1199170    -0.4505910
  C       -4.6068780    -0.0078780     0.0198210
  C        3.3192690    -1.1228030     0.4522780
  C        3.3225700     1.1193260    -0.4456390
  C        4.0230520    -0.0023100     0.0044540
  H       -0.4460470    -1.9780880    -0.8418930
  H       -0.4465600     1.9841010     0.8290070
  H       -2.9173870    -1.9815130    -0.8295580
  H       -2.9177760     1.9946350     0.7979050
  H        1.3786050    -1.9834820     0.8303220
  H        1.3596819     2.0229599    -0.8474281
  H       -5.0126890     0.9989950    -0.1140710
  H       -5.0122110    -0.6453700    -0.7711930
  H       -4.9781370    -0.3905110     0.9770230
  H        3.8582660    -1.9961250     0.8126670
  H        3.8641780     1.9916920    -0.8044220
  H        5.1104020    -0.0032360     0.0061230
units angstrom
no_reorient  #important for SAPT in psi4, default
symmetry c1  #important for SAPT in psi4, default
}

set PROPERTIES_ORIGIN ["COM"]
properties('MP2/aug-cc-pvtz', properties = ['dipole'])
--------------------------------------------------------------------------

    Molecular point group: c1
  Charge       = 0
  Multiplicity = 1
  Basis Set: AUG-CC-PVTZ
    Blend: AUG-CC-PVTZ
  Basis Set: (AUG-CC-PVTZ AUX)
    Blend: AUG-CC-PVTZ-JKFIT

    Orbital Energies [Eh]
    ---------------------

    Doubly Occupied:

       1A    -11.245509     2A    -11.242544     3A    -11.241191
       4A    -11.240257     5A    -11.237402     6A    -11.237121
       7A    -11.235256     8A    -11.235107     9A    -11.234846
      10A    -11.234545    11A    -11.232006    12A    -11.231937
      13A    -11.225462    14A     -1.167977    15A     -1.141342
      16A     -1.065316    17A     -1.016222    18A     -1.008295
      19A     -1.004022    20A     -0.928713    21A     -0.840042
      22A     -0.832499    23A     -0.810199    24A     -0.779329
      25A     -0.710555    26A     -0.663884    27A     -0.645977
      28A     -0.641398    29A     -0.613692    30A     -0.612350
      31A     -0.586125    32A     -0.579299    33A     -0.575863
      34A     -0.570543    35A     -0.541297    36A     -0.512251
      37A     -0.508566    38A     -0.496615    39A     -0.481994
      40A     -0.480757    41A     -0.478359    42A     -0.359228
      43A     -0.337620    44A     -0.335864    45A     -0.296214

  @DF-RHF Final Energy:  -499.44749067389660

   => Energetics <=

    Nuclear Repulsion Energy =            687.1008041274294555
    One-Electron Energy =               -2037.7054145458632775
    Two-Electron Energy =                 851.1571197445372263
    Total Energy =                       -499.4474906738965956
  Basis Set: (AUG-CC-PVTZ AUX)
    Blend: AUG-CC-PVTZ-RI
    Molecular point group: c1

    Geometry (in Angstrom), charge = 0, multiplicity = 1:

       Center              X                  Y                   Z               Mass
    ------------   -----------------  -----------------  -----------------  -----------------
         C           -0.302445572321     0.000509884729    -0.000925964933    12.000000000000
         C            1.174573427679    -0.000278115271     0.000546035067    12.000000000000
         C           -3.136878572321     0.005235884729    -0.013248964933    12.000000000000
         C           -1.021656572321    -1.114386115271    -0.458218964933    12.000000000000
         C           -1.021870572321     1.118459884729     0.448456035067    12.000000000000
         C           -2.415662572321    -1.110241115271    -0.458329964933    12.000000000000
         C           -2.415836572321     1.116936884729     0.441462035067    12.000000000000
         C            1.888192427679    -1.121332115271     0.453377035067    12.000000000000
         C            1.891479427679     1.119527884729    -0.450120964933    12.000000000000
         C           -4.642938572321    -0.008267115271     0.020291035067    12.000000000000
         C            3.283208427679    -1.123192115271     0.452748035067    12.000000000000
         C            3.286509427679     1.118936884729    -0.445168964933    12.000000000000
         C            3.986991427679    -0.002699115271     0.004924035067    12.000000000000
         H           -0.482107572321    -1.978477115271    -0.841422964933     1.007825032230
         H           -0.482620572321     1.983711884729     0.829477035067     1.007825032230
         H           -2.953447572321    -1.981902115271    -0.829087964933     1.007825032230
         H           -2.953836572321     1.994245884729     0.798375035067     1.007825032230
         H            1.342544427679    -1.983871115271     0.830792035067     1.007825032230
         H            1.323621327679     2.022570784729    -0.846958064933     1.007825032230
         H           -5.048749572321     0.998605884729    -0.113600964933     1.007825032230
         H           -5.048271572321    -0.645759115271    -0.770722964933     1.007825032230
         H           -5.014197572321    -0.390900115271     0.977493035067     1.007825032230
         H            3.822205427679    -1.996514115271     0.813137035067     1.007825032230
         H            3.828117427679     1.991302884729    -0.803951964933     1.007825032230
         H            5.074341427679    -0.003625115271     0.006593035067     1.007825032230

  Basis Set: AUG-CC-PVTZ
    Blend: AUG-CC-PVTZ
  Basis Set: (AUG-CC-PVTZ AUX)
    Blend: AUG-CC-PVTZ-JKFIT
	 Reference Energy          =    -499.4474906738965956 [Eh]
	 Singles Energy            =      -0.0000000000000000 [Eh]
	 Same-Spin Energy          =      -0.5655280840944648 [Eh]
	 Opposite-Spin Energy      =      -1.7800760063838053 [Eh]
	 Correlation Energy        =      -2.3456040904782700 [Eh]
	 Total Energy              =    -501.7930947643748709 [Eh]

	 ================> DF-SCS-MP2 Energies <==================
	-----------------------------------------------------------
	 SCS Same-Spin Scale       =       0.3333333333333333 [-]
	 SCS Opposite-Spin Scale   =       1.2000000000000000 [-]
	 SCS Same-Spin Energy      =      -0.1885093613648216 [Eh]
	 SCS Opposite-Spin Energy  =      -2.1360912076605660 [Eh]
	 SCS Correlation Energy    =      -2.3246005690253875 [Eh]
	 SCS Total Energy          =    -501.7720912429219879 [Eh]
	-----------------------------------------------------------

  Dipole Moment: [D]
     X:    -0.4738      Y:    -0.0262      Z:     0.0427     Total:     0.4764

*** Psi4 exiting successfully. Buy a developer a beer!
