                               Psi4 1.4a3.dev225

  ==> Input File <==

--------------------------------------------------------------------------
#psi4
#
memory 32 gb

molecule  {
0 1
  C       -0.2663850     0.0008990    -0.0013960
  C        1.2106340     0.0001110     0.0000760
  C       -3.1008180     0.0056250    -0.0137190
  C       -0.9855960    -1.1139970    -0.4586890
  C       -0.9858100     1.1188490     0.4479860
  C       -2.3796020    -1.1098520    -0.4588000
  C       -2.3797760     1.1173260     0.4409920
  C        1.9242530    -1.1209430     0.4529070
  C        1.9275400     1.1199170    -0.4505910
  C       -4.6068780    -0.0078780     0.0198210
  C        3.3192690    -1.1228030     0.4522780
  C        3.3225700     1.1193260    -0.4456390
  C        4.0230520    -0.0023100     0.0044540
  H       -0.4460470    -1.9780880    -0.8418930
  H       -0.4465600     1.9841010     0.8290070
  H       -2.9173870    -1.9815130    -0.8295580
  H       -2.9177760     1.9946350     0.7979050
  H        1.4036765    -1.9438500     0.8129805
  H        1.3846280     1.9832890    -0.8299950
  H       -5.0126890     0.9989950    -0.1140710
  H       -5.0122110    -0.6453700    -0.7711930
  H       -4.9781370    -0.3905110     0.9770230
  H        3.8582660    -1.9961250     0.8126670
  H        3.8641780     1.9916920    -0.8044220
  H        5.1104020    -0.0032360     0.0061230
units angstrom
no_reorient  #important for SAPT in psi4, default
symmetry c1  #important for SAPT in psi4, default
}

set PROPERTIES_ORIGIN ["COM"]
properties('MP2/aug-cc-pvtz', properties = ['dipole'])
--------------------------------------------------------------------------

    Molecular point group: c1
  Charge       = 0
  Multiplicity = 1
  Basis Set: AUG-CC-PVTZ
    Blend: AUG-CC-PVTZ
  Basis Set: (AUG-CC-PVTZ AUX)
    Blend: AUG-CC-PVTZ-JKFIT

    Orbital Energies [Eh]
    ---------------------

    Doubly Occupied:

       1A    -11.244463     2A    -11.242634     3A    -11.241218
       4A    -11.236887     5A    -11.236481     6A    -11.235374
       7A    -11.235228     8A    -11.234113     9A    -11.233845
      10A    -11.232157    11A    -11.232087    12A    -11.228506
      13A    -11.225536    14A     -1.168136    15A     -1.141344
      16A     -1.065220    17A     -1.017723    18A     -1.009236
      19A     -1.004267    20A     -0.929056    21A     -0.841893
      22A     -0.833344    23A     -0.812966    24A     -0.779723
      25A     -0.713451    26A     -0.668778    27A     -0.645945
      28A     -0.642686    29A     -0.615343    30A     -0.613268
      31A     -0.589441    32A     -0.580815    33A     -0.576333
      34A     -0.571258    35A     -0.541380    36A     -0.513158
      37A     -0.508857    38A     -0.498956    39A     -0.481920
      40A     -0.480736    41A     -0.479651    42A     -0.358926
      43A     -0.337427    44A     -0.335708    45A     -0.295997

  @DF-RHF Final Energy:  -499.44934677204884

   => Energetics <=

    Nuclear Repulsion Energy =            687.5842665386403496
    One-Electron Energy =               -2038.6442867112716613
    Two-Electron Energy =                 851.6106734005825274
    Total Energy =                       -499.4493467720487843
  Basis Set: (AUG-CC-PVTZ AUX)
    Blend: AUG-CC-PVTZ-RI
    Molecular point group: c1

    Geometry (in Angstrom), charge = 0, multiplicity = 1:

       Center              X                  Y                   Z               Mass
    ------------   -----------------  -----------------  -----------------  -----------------
         C           -0.302745458214     0.000510117959    -0.000926514131    12.000000000000
         C            1.174273541786    -0.000277882041     0.000545485869    12.000000000000
         C           -3.137178458214     0.005236117959    -0.013249514131    12.000000000000
         C           -1.021956458214    -1.114385882041    -0.458219514131    12.000000000000
         C           -1.022170458214     1.118460117959     0.448455485869    12.000000000000
         C           -2.415962458214    -1.110240882041    -0.458330514131    12.000000000000
         C           -2.416136458214     1.116937117959     0.441461485869    12.000000000000
         C            1.887892541786    -1.121331882041     0.453376485869    12.000000000000
         C            1.891179541786     1.119528117959    -0.450121514131    12.000000000000
         C           -4.643238458214    -0.008266882041     0.020290485869    12.000000000000
         C            3.282908541786    -1.123191882041     0.452747485869    12.000000000000
         C            3.286209541786     1.118937117959    -0.445169514131    12.000000000000
         C            3.986691541786    -0.002698882041     0.004923485869    12.000000000000
         H           -0.482407458214    -1.978476882041    -0.841423514131     1.007825032230
         H           -0.482920458214     1.983712117959     0.829476485869     1.007825032230
         H           -2.953747458214    -1.981901882041    -0.829088514131     1.007825032230
         H           -2.954136458214     1.994246117959     0.798374485869     1.007825032230
         H            1.367316041786    -1.944238882041     0.813449985869     1.007825032230
         H            1.348267541786     1.982900117959    -0.829525514131     1.007825032230
         H           -5.049049458214     0.998606117959    -0.113601514131     1.007825032230
         H           -5.048571458214    -0.645758882041    -0.770723514131     1.007825032230
         H           -5.014497458214    -0.390899882041     0.977492485869     1.007825032230
         H            3.821905541786    -1.996513882041     0.813136485869     1.007825032230
         H            3.827817541786     1.991303117959    -0.803952514131     1.007825032230
         H            5.074041541786    -0.003624882041     0.006592485869     1.007825032230

  Basis Set: AUG-CC-PVTZ
    Blend: AUG-CC-PVTZ
  Basis Set: (AUG-CC-PVTZ AUX)
    Blend: AUG-CC-PVTZ-JKFIT
	 Reference Energy          =    -499.4493467720488411 [Eh]
	 Singles Energy            =      -0.0000000000000000 [Eh]
	 Same-Spin Energy          =      -0.5652458355641579 [Eh]
	 Opposite-Spin Energy      =      -1.7792472232005898 [Eh]
	 Correlation Energy        =      -2.3444930587647477 [Eh]
	 Total Energy              =    -501.7938398308135675 [Eh]

	 ================> DF-SCS-MP2 Energies <==================
	-----------------------------------------------------------
	 SCS Same-Spin Scale       =       0.3333333333333333 [-]
	 SCS Opposite-Spin Scale   =       1.2000000000000000 [-]
	 SCS Same-Spin Energy      =      -0.1884152785213860 [Eh]
	 SCS Opposite-Spin Energy  =      -2.1350966678407075 [Eh]
	 SCS Correlation Energy    =      -2.3235119463620935 [Eh]
	 SCS Total Energy          =    -501.7728587184109301 [Eh]
	-----------------------------------------------------------

  Dipole Moment: [D]
     X:    -0.4941      Y:    -0.0234      Z:     0.0414     Total:     0.4963

*** Psi4 exiting successfully. Buy a developer a beer!
