                               Psi4 1.4a3.dev225

  ==> Input File <==

--------------------------------------------------------------------------
#psi4
#
memory 32 gb

molecule  {
0 1
  C       -0.2663850     0.0008990    -0.0013960
  C        1.2106340     0.0001110     0.0000760
  C       -3.1008180     0.0056250    -0.0137190
  C       -0.9855960    -1.1139970    -0.4586890
  C       -0.9858100     1.1188490     0.4479860
  C       -2.3796020    -1.1098520    -0.4588000
  C       -2.4055108     1.0776481     0.4247628
  C        1.9242530    -1.1209430     0.4529070
  C        1.9275400     1.1199170    -0.4505910
  C       -4.6068780    -0.0078780     0.0198210
  C        3.3192690    -1.1228030     0.4522780
  C        3.3225700     1.1193260    -0.4456390
  C        4.0230520    -0.0023100     0.0044540
  H       -0.4460470    -1.9780880    -0.8418930
  H       -0.4465600     1.9841010     0.8290070
  H       -2.9173870    -1.9815130    -0.8295580
  H       -2.9177760     1.9946350     0.7979050
  H        1.3786050    -1.9834820     0.8303220
  H        1.3846280     1.9832890    -0.8299950
  H       -5.0126890     0.9989950    -0.1140710
  H       -5.0122110    -0.6453700    -0.7711930
  H       -4.9781370    -0.3905110     0.9770230
  H        3.8582660    -1.9961250     0.8126670
  H        3.8641780     1.9916920    -0.8044220
  H        5.1104020    -0.0032360     0.0061230
units angstrom
no_reorient  #important for SAPT in psi4, default
symmetry c1  #important for SAPT in psi4, default
}

set PROPERTIES_ORIGIN ["COM"]
properties('MP2/aug-cc-pvtz', properties = ['dipole'])
--------------------------------------------------------------------------

    Molecular point group: c1
  Charge       = 0
  Multiplicity = 1
  Basis Set: AUG-CC-PVTZ
    Blend: AUG-CC-PVTZ
  Basis Set: (AUG-CC-PVTZ AUX)
    Blend: AUG-CC-PVTZ-JKFIT

    Orbital Energies [Eh]
    ---------------------

    Doubly Occupied:

       1A    -11.245002     2A    -11.241512     3A    -11.237463
       4A    -11.237397     5A    -11.237145     6A    -11.236553
       7A    -11.235011     8A    -11.234787     9A    -11.234608
      10A    -11.234380    11A    -11.232781    12A    -11.231106
      13A    -11.224830    14A     -1.169338    15A     -1.143554
      16A     -1.068330    17A     -1.015920    18A     -1.007424
      19A     -1.002907    20A     -0.930061    21A     -0.842764
      22A     -0.833716    23A     -0.812780    24A     -0.778004
      25A     -0.711280    26A     -0.665795    27A     -0.647170
      28A     -0.641970    29A     -0.614455    30A     -0.612192
      31A     -0.587049    32A     -0.578066    33A     -0.576454
      34A     -0.572280    35A     -0.539073    36A     -0.513267
      37A     -0.508873    38A     -0.499614    39A     -0.484040
      40A     -0.481565    41A     -0.475009    42A     -0.361852
      43A     -0.337119    44A     -0.333271    45A     -0.299110

  @DF-RHF Final Energy:  -499.44704246576015

   => Energetics <=

    Nuclear Repulsion Energy =            687.7992667820118413
    One-Electron Energy =               -2039.0788638213887225
    Two-Electron Energy =                 851.8325545736165623
    Total Energy =                       -499.4470424657602052
  Basis Set: (AUG-CC-PVTZ AUX)
    Blend: AUG-CC-PVTZ-RI
    Molecular point group: c1

    Geometry (in Angstrom), charge = 0, multiplicity = 1:

       Center              X                  Y                   Z               Mass
    ------------   -----------------  -----------------  -----------------  -----------------
         C           -0.300757966196     0.003580288384     0.000128094048    12.000000000000
         C            1.176261033804     0.002792288384     0.001600094048    12.000000000000
         C           -3.135190966196     0.008306288384    -0.012194905952    12.000000000000
         C           -1.019968966196    -1.111315711616    -0.457164905952    12.000000000000
         C           -1.020182966196     1.121530288384     0.449510094048    12.000000000000
         C           -2.413974966196    -1.107170711616    -0.457275905952    12.000000000000
         C           -2.439883766196     1.080329388384     0.426286894048    12.000000000000
         C            1.889880033804    -1.118261711616     0.454431094048    12.000000000000
         C            1.893167033804     1.122598288384    -0.449066905952    12.000000000000
         C           -4.641250966196    -0.005196711616     0.021345094048    12.000000000000
         C            3.284896033804    -1.120121711616     0.453802094048    12.000000000000
         C            3.288197033804     1.122007288384    -0.444114905952    12.000000000000
         C            3.988679033804     0.000371288384     0.005978094048    12.000000000000
         H           -0.480419966196    -1.975406711616    -0.840368905952     1.007825032230
         H           -0.480932966196     1.986782288384     0.830531094048     1.007825032230
         H           -2.951759966196    -1.978831711616    -0.828033905952     1.007825032230
         H           -2.952148966196     1.997316288384     0.799429094048     1.007825032230
         H            1.344232033804    -1.980800711616     0.831846094048     1.007825032230
         H            1.350255033804     1.985970288384    -0.828470905952     1.007825032230
         H           -5.047061966196     1.001676288384    -0.112546905952     1.007825032230
         H           -5.046583966196    -0.642688711616    -0.769668905952     1.007825032230
         H           -5.012509966196    -0.387829711616     0.978547094048     1.007825032230
         H            3.823893033804    -1.993443711616     0.814191094048     1.007825032230
         H            3.829805033804     1.994373288384    -0.802897905952     1.007825032230
         H            5.076029033804    -0.000554711616     0.007647094048     1.007825032230

  Basis Set: AUG-CC-PVTZ
    Blend: AUG-CC-PVTZ
  Basis Set: (AUG-CC-PVTZ AUX)
    Blend: AUG-CC-PVTZ-JKFIT
	 Reference Energy          =    -499.4470424657601484 [Eh]
	 Singles Energy            =      -0.0000000000000000 [Eh]
	 Same-Spin Energy          =      -0.5653536256380239 [Eh]
	 Opposite-Spin Energy      =      -1.7796911716213968 [Eh]
	 Correlation Energy        =      -2.3450447972594208 [Eh]
	 Total Energy              =    -501.7920872630195959 [Eh]

	 ================> DF-SCS-MP2 Energies <==================
	-----------------------------------------------------------
	 SCS Same-Spin Scale       =       0.3333333333333333 [-]
	 SCS Opposite-Spin Scale   =       1.2000000000000000 [-]
	 SCS Same-Spin Energy      =      -0.1884512085460080 [Eh]
	 SCS Opposite-Spin Energy  =      -2.1356294059456760 [Eh]
	 SCS Correlation Energy    =      -2.3240806144916841 [Eh]
	 SCS Total Energy          =    -501.7711230802518116 [Eh]
	-----------------------------------------------------------

  Dipole Moment: [D]
     X:    -0.4423      Y:    -0.0249      Z:     0.0319     Total:     0.4442

*** Psi4 exiting successfully. Buy a developer a beer!
