                               Psi4 1.4a3.dev225

  ==> Input File <==

--------------------------------------------------------------------------
#psi4
#
memory 32 gb

molecule  {
0 1
  C       -0.2663850     0.0008990    -0.0013960
  C        1.2106340     0.0001110     0.0000760
  C       -3.1008180     0.0056250    -0.0137190
  C       -0.9855960    -1.1139970    -0.4586890
  C       -0.9858100     1.1188490     0.4479860
  C       -2.3796020    -1.1098520    -0.4588000
  C       -2.3797760     1.1173260     0.4409920
  C        1.9242530    -1.1209430     0.4529070
  C        1.9275400     1.1199170    -0.4505910
  C       -4.6068780    -0.0078780     0.0198210
  C        3.3192690    -1.1228030     0.4522780
  C        3.2225706     1.1193684    -0.4459940
  C        4.0230520    -0.0023100     0.0044540
  H       -0.4460470    -1.9780880    -0.8418930
  H       -0.4465600     1.9841010     0.8290070
  H       -2.9173870    -1.9815130    -0.8295580
  H       -2.9177760     1.9946350     0.7979050
  H        1.3786050    -1.9834820     0.8303220
  H        1.3846280     1.9832890    -0.8299950
  H       -5.0126890     0.9989950    -0.1140710
  H       -5.0122110    -0.6453700    -0.7711930
  H       -4.9781370    -0.3905110     0.9770230
  H        3.8582660    -1.9961250     0.8126670
  H        3.8641780     1.9916920    -0.8044220
  H        5.1104020    -0.0032360     0.0061230
units angstrom
no_reorient  #important for SAPT in psi4, default
symmetry c1  #important for SAPT in psi4, default
}

set PROPERTIES_ORIGIN ["COM"]
properties('MP2/aug-cc-pvtz', properties = ['dipole'])
--------------------------------------------------------------------------

    Molecular point group: c1
  Charge       = 0
  Multiplicity = 1
  Basis Set: AUG-CC-PVTZ
    Blend: AUG-CC-PVTZ
  Basis Set: (AUG-CC-PVTZ AUX)
    Blend: AUG-CC-PVTZ-JKFIT

    Orbital Energies [Eh]
    ---------------------

    Doubly Occupied:

       1A    -11.245471     2A    -11.242784     3A    -11.241290
       4A    -11.238993     5A    -11.236195     6A    -11.235620
       7A    -11.235279     8A    -11.234501     9A    -11.232881
      10A    -11.232318    11A    -11.232099    12A    -11.225629
      13A    -11.222293    14A     -1.171183    15A     -1.144480
      16A     -1.063605    17A     -1.027664    18A     -1.011526
      19A     -0.999295    20A     -0.928714    21A     -0.839376
      22A     -0.836278    23A     -0.805579    24A     -0.780955
      25A     -0.711753    26A     -0.666867    27A     -0.648115
      28A     -0.639686    29A     -0.617893    30A     -0.607658
      31A     -0.589839    32A     -0.580797    33A     -0.576492
      34A     -0.567582    35A     -0.541485    36A     -0.519533
      37A     -0.511593    38A     -0.490086    39A     -0.484163
      40A     -0.483129    41A     -0.468466    42A     -0.355390
      43A     -0.350068    44A     -0.336723    45A     -0.292515

  @DF-RHF Final Energy:  -499.43645153352361

   => Energetics <=

    Nuclear Repulsion Energy =            688.7092965271087905
    One-Electron Energy =               -2040.8838155880275735
    Two-Electron Energy =                 852.7380675273951738
    Total Energy =                       -499.4364515335236092
  Basis Set: (AUG-CC-PVTZ AUX)
    Blend: AUG-CC-PVTZ-RI
    Molecular point group: c1

    Geometry (in Angstrom), charge = 0, multiplicity = 1:

       Center              X                  Y                   Z               Mass
    ------------   -----------------  -----------------  -----------------  -----------------
         C           -0.295456315166     0.000744708991    -0.001005143979    12.000000000000
         C            1.181562684834    -0.000043291009     0.000466856021    12.000000000000
         C           -3.129889315166     0.005470708991    -0.013328143979    12.000000000000
         C           -1.014667315166    -1.114151291009    -0.458298143979    12.000000000000
         C           -1.014881315166     1.118694708991     0.448376856021    12.000000000000
         C           -2.408673315166    -1.110006291009    -0.458409143979    12.000000000000
         C           -2.408847315166     1.117171708991     0.441382856021    12.000000000000
         C            1.895181684834    -1.121097291009     0.453297856021    12.000000000000
         C            1.898468684834     1.119762708991    -0.450200143979    12.000000000000
         C           -4.635949315166    -0.008032291009     0.020211856021    12.000000000000
         C            3.290197684834    -1.122957291009     0.452668856021    12.000000000000
         C            3.193499284834     1.119214108991    -0.445603143979    12.000000000000
         C            3.993980684834    -0.002464291009     0.004844856021    12.000000000000
         H           -0.475118315166    -1.978242291009    -0.841502143979     1.007825032230
         H           -0.475631315166     1.983946708991     0.829397856021     1.007825032230
         H           -2.946458315166    -1.981667291009    -0.829167143979     1.007825032230
         H           -2.946847315166     1.994480708991     0.798295856021     1.007825032230
         H            1.349533684834    -1.983636291009     0.830712856021     1.007825032230
         H            1.355556684834     1.983134708991    -0.829604143979     1.007825032230
         H           -5.041760315166     0.998840708991    -0.113680143979     1.007825032230
         H           -5.041282315166    -0.645524291009    -0.770802143979     1.007825032230
         H           -5.007208315166    -0.390665291009     0.977413856021     1.007825032230
         H            3.829194684834    -1.996279291009     0.813057856021     1.007825032230
         H            3.835106684834     1.991537708991    -0.804031143979     1.007825032230
         H            5.081330684834    -0.003390291009     0.006513856021     1.007825032230

  Basis Set: AUG-CC-PVTZ
    Blend: AUG-CC-PVTZ
  Basis Set: (AUG-CC-PVTZ AUX)
    Blend: AUG-CC-PVTZ-JKFIT
	 Reference Energy          =    -499.4364515335236092 [Eh]
	 Singles Energy            =      -0.0000000000000000 [Eh]
	 Same-Spin Energy          =      -0.5652893705250175 [Eh]
	 Opposite-Spin Energy      =      -1.7798985339053139 [Eh]
	 Correlation Energy        =      -2.3451879044303316 [Eh]
	 Total Energy              =    -501.7816394379539133 [Eh]

	 ================> DF-SCS-MP2 Energies <==================
	-----------------------------------------------------------
	 SCS Same-Spin Scale       =       0.3333333333333333 [-]
	 SCS Opposite-Spin Scale   =       1.2000000000000000 [-]
	 SCS Same-Spin Energy      =      -0.1884297901750058 [Eh]
	 SCS Opposite-Spin Energy  =      -2.1358782406863766 [Eh]
	 SCS Correlation Energy    =      -2.3243080308613822 [Eh]
	 SCS Total Energy          =    -501.7607595643850118 [Eh]
	-----------------------------------------------------------

  Dipole Moment: [D]
     X:    -0.4814      Y:    -0.0481      Z:     0.0525     Total:     0.4866

*** Psi4 exiting successfully. Buy a developer a beer!
