                               Psi4 1.4a3.dev225

  ==> Input File <==

--------------------------------------------------------------------------
#psi4
#
memory 32 gb

molecule  {
0 1
  C       -0.2663850     0.0008990    -0.0013960
  C        1.2106340     0.0001110     0.0000760
  C       -3.1008180     0.0056250    -0.0137190
  C       -0.9855960    -1.1139970    -0.4586890
  C       -0.9858100     1.1188490     0.4479860
  C       -2.3796020    -1.1098520    -0.4588000
  C       -2.3797760     1.1173260     0.4409920
  C        1.9242530    -1.1209430     0.4529070
  C        1.9275400     1.1199170    -0.4505910
  C       -4.6068780    -0.0078780     0.0198210
  C        3.3192690    -1.1228030     0.4522780
  C        3.3225700     1.1193260    -0.4456390
  C        4.0230520    -0.0023100     0.0044540
  H       -0.4460470    -1.9780880    -0.8418930
  H       -0.4465600     1.9841010     0.8290070
  H       -2.9173870    -1.9815130    -0.8295580
  H       -2.9177760     1.9946350     0.7979050
  H        1.3786050    -1.9834820     0.8303220
  H        1.2848435     2.1419724    -0.8997275
  H       -5.0126890     0.9989950    -0.1140710
  H       -5.0122110    -0.6453700    -0.7711930
  H       -4.9781370    -0.3905110     0.9770230
  H        3.8582660    -1.9961250     0.8126670
  H        3.8641780     1.9916920    -0.8044220
  H        5.1104020    -0.0032360     0.0061230
units angstrom
no_reorient  #important for SAPT in psi4, default
symmetry c1  #important for SAPT in psi4, default
}

set PROPERTIES_ORIGIN ["COM"]
properties('MP2/aug-cc-pvtz', properties = ['dipole'])
--------------------------------------------------------------------------

    Molecular point group: c1
  Charge       = 0
  Multiplicity = 1
  Basis Set: AUG-CC-PVTZ
    Blend: AUG-CC-PVTZ
  Basis Set: (AUG-CC-PVTZ AUX)
    Blend: AUG-CC-PVTZ-JKFIT

    Orbital Energies [Eh]
    ---------------------

    Doubly Occupied:

       1A    -11.255968     2A    -11.247425     3A    -11.242436
       4A    -11.241192     5A    -11.239197     6A    -11.238244
       7A    -11.236254     8A    -11.235885     9A    -11.235234
      10A    -11.234825    11A    -11.231778    12A    -11.231669
      13A    -11.225354    14A     -1.168144    15A     -1.141735
      16A     -1.065611    17A     -1.015401    18A     -1.008000
      19A     -1.003555    20A     -0.928517    21A     -0.839181
      22A     -0.831796    23A     -0.807576    24A     -0.778991
      25A     -0.708201    26A     -0.659822    27A     -0.646188
      28A     -0.639722    29A     -0.614627    30A     -0.609777
      31A     -0.583602    32A     -0.577795    33A     -0.574039
      34A     -0.565440    35A     -0.541181    36A     -0.511900
      37A     -0.508494    38A     -0.491685    39A     -0.482315
      40A     -0.481193    41A     -0.472347    42A     -0.359856
      43A     -0.338479    44A     -0.335903    45A     -0.296689

  @DF-RHF Final Energy:  -499.42758568198724

   => Energetics <=

    Nuclear Repulsion Energy =            686.4653008753316499
    One-Electron Energy =               -2036.4193342767537160
    Two-Electron Energy =                 850.5264477194348274
    Total Energy =                       -499.4275856819872388
  Basis Set: (AUG-CC-PVTZ AUX)
    Blend: AUG-CC-PVTZ-RI
    Molecular point group: c1

    Geometry (in Angstrom), charge = 0, multiplicity = 1:

       Center              X                  Y                   Z               Mass
    ------------   -----------------  -----------------  -----------------  -----------------
         C           -0.301996870657    -0.000203667496    -0.000612398264    12.000000000000
         C            1.175022129343    -0.000991667496     0.000859601736    12.000000000000
         C           -3.136429870657     0.004522332504    -0.012935398264    12.000000000000
         C           -1.021207870657    -1.115099667496    -0.457905398264    12.000000000000
         C           -1.021421870657     1.117746332504     0.448769601736    12.000000000000
         C           -2.415213870657    -1.110954667496    -0.458016398264    12.000000000000
         C           -2.415387870657     1.116223332504     0.441775601736    12.000000000000
         C            1.888641129343    -1.122045667496     0.453690601736    12.000000000000
         C            1.891928129343     1.118814332504    -0.449807398264    12.000000000000
         C           -4.642489870657    -0.008980667496     0.020604601736    12.000000000000
         C            3.283657129343    -1.123905667496     0.453061601736    12.000000000000
         C            3.286958129343     1.118223332504    -0.444855398264    12.000000000000
         C            3.987440129343    -0.003412667496     0.005237601736    12.000000000000
         H           -0.481658870657    -1.979190667496    -0.841109398264     1.007825032230
         H           -0.482171870657     1.982998332504     0.829790601736     1.007825032230
         H           -2.952998870657    -1.982615667496    -0.828774398264     1.007825032230
         H           -2.953387870657     1.993532332504     0.798688601736     1.007825032230
         H            1.342993129343    -1.984584667496     0.831105601736     1.007825032230
         H            1.249231629343     2.140869732504    -0.898943898264     1.007825032230
         H           -5.048300870657     0.997892332504    -0.113287398264     1.007825032230
         H           -5.047822870657    -0.646472667496    -0.770409398264     1.007825032230
         H           -5.013748870657    -0.391613667496     0.977806601736     1.007825032230
         H            3.822654129343    -1.997227667496     0.813450601736     1.007825032230
         H            3.828566129343     1.990589332504    -0.803638398264     1.007825032230
         H            5.074790129343    -0.004338667496     0.006906601736     1.007825032230

  Basis Set: AUG-CC-PVTZ
    Blend: AUG-CC-PVTZ
  Basis Set: (AUG-CC-PVTZ AUX)
    Blend: AUG-CC-PVTZ-JKFIT
	 Reference Energy          =    -499.4275856819872388 [Eh]
	 Singles Energy            =      -0.0000000000000000 [Eh]
	 Same-Spin Energy          =      -0.5660634331348876 [Eh]
	 Opposite-Spin Energy      =      -1.7820073202510853 [Eh]
	 Correlation Energy        =      -2.3480707533859730 [Eh]
	 Total Energy              =    -501.7756564353732074 [Eh]

	 ================> DF-SCS-MP2 Energies <==================
	-----------------------------------------------------------
	 SCS Same-Spin Scale       =       0.3333333333333333 [-]
	 SCS Opposite-Spin Scale   =       1.2000000000000000 [-]
	 SCS Same-Spin Energy      =      -0.1886878110449625 [Eh]
	 SCS Opposite-Spin Energy  =      -2.1384087843013022 [Eh]
	 SCS Correlation Energy    =      -2.3270965953462648 [Eh]
	 SCS Total Energy          =    -501.7546822773335293 [Eh]
	-----------------------------------------------------------

  Dipole Moment: [D]
     X:    -0.4325      Y:    -0.0800      Z:     0.0687     Total:     0.4452

*** Psi4 exiting successfully. Buy a developer a beer!
