                               Psi4 1.4a3.dev225

  ==> Input File <==

--------------------------------------------------------------------------
#psi4
#
memory 32 gb

molecule  {
0 1
  C       -0.2663850     0.0008990    -0.0013960
  C        1.2106340     0.0001110     0.0000760
  C       -3.1008180     0.0056250    -0.0137190
  C       -0.9855960    -1.1139970    -0.4586890
  C       -0.9858100     1.1188490     0.4479860
  C       -2.3796020    -1.1098520    -0.4588000
  C       -2.3797760     1.1173260     0.4409920
  C        1.9242530    -1.1209430     0.4529070
  C        1.9275400     1.1199170    -0.4505910
  C       -4.6068780    -0.0078780     0.0198210
  C        3.3192690    -1.1228030     0.4522780
  C        3.3225700     1.1193260    -0.4456390
  C        4.0230520    -0.0023100     0.0044540
  H       -0.4460470    -1.9780880    -0.8418930
  H       -0.4465600     1.9841010     0.8290070
  H       -2.9173870    -1.9815130    -0.8295580
  H       -2.9177760     1.9946350     0.7979050
  H        1.3786050    -1.9834820     0.8303220
  H        1.3846280     1.9832890    -0.8299950
  H       -5.0126890     0.9989950    -0.1140710
  H       -5.0122110    -0.6453700    -0.7711930
  H       -4.9781370    -0.3905110     0.9770230
  H        3.8582660    -1.9961250     0.8126670
  H        3.7645901     1.8312861    -0.7384509
  H        5.1104020    -0.0032360     0.0061230
units angstrom
no_reorient  #important for SAPT in psi4, default
symmetry c1  #important for SAPT in psi4, default
}

set PROPERTIES_ORIGIN ["COM"]
properties('MP2/aug-cc-pvtz', properties = ['dipole'])
--------------------------------------------------------------------------

    Molecular point group: c1
  Charge       = 0
  Multiplicity = 1
  Basis Set: AUG-CC-PVTZ
    Blend: AUG-CC-PVTZ
  Basis Set: (AUG-CC-PVTZ AUX)
    Blend: AUG-CC-PVTZ-JKFIT

    Orbital Energies [Eh]
    ---------------------

    Doubly Occupied:

       1A    -11.243937     2A    -11.242273     3A    -11.240734
       4A    -11.236046     5A    -11.234954     6A    -11.234809
       7A    -11.233971     8A    -11.233311     9A    -11.233263
      10A    -11.231823    11A    -11.231737    12A    -11.225296
      13A    -11.212652    14A     -1.168000    15A     -1.142049
      16A     -1.066298    17A     -1.022546    18A     -1.010858
      19A     -1.004101    20A     -0.928555    21A     -0.850396
      22A     -0.833739    23A     -0.817475    24A     -0.783178
      25A     -0.721370    26A     -0.666349    27A     -0.652322
      28A     -0.645292    29A     -0.623261    30A     -0.612860
      31A     -0.592483    32A     -0.581444    33A     -0.576079
      34A     -0.570582    35A     -0.541159    36A     -0.513518
      37A     -0.508295    38A     -0.501518    39A     -0.481933
      40A     -0.481390    41A     -0.479490    42A     -0.358497
      43A     -0.337094    44A     -0.335388    45A     -0.295562

  @DF-RHF Final Energy:  -499.41544253771474

   => Energetics <=

    Nuclear Repulsion Energy =            688.5180029947304092
    One-Electron Energy =               -2040.3911186588477449
    Two-Electron Energy =                 852.4576731264027103
    Total Energy =                       -499.4154425377147390
  Basis Set: (AUG-CC-PVTZ AUX)
    Blend: AUG-CC-PVTZ-RI
    Molecular point group: c1

    Geometry (in Angstrom), charge = 0, multiplicity = 1:

       Center              X                  Y                   Z               Mass
    ------------   -----------------  -----------------  -----------------  -----------------
         C           -0.301998049393     0.001709466671    -0.001426023771    12.000000000000
         C            1.175020950607     0.000921466671     0.000045976229    12.000000000000
         C           -3.136431049393     0.006435466671    -0.013749023771    12.000000000000
         C           -1.021209049393    -1.113186533329    -0.458719023771    12.000000000000
         C           -1.021423049393     1.119659466671     0.447955976229    12.000000000000
         C           -2.415215049393    -1.109041533329    -0.458830023771    12.000000000000
         C           -2.415389049393     1.118136466671     0.440961976229    12.000000000000
         C            1.888639950607    -1.120132533329     0.452876976229    12.000000000000
         C            1.891926950607     1.120727466671    -0.450621023771    12.000000000000
         C           -4.642491049393    -0.007067533329     0.019790976229    12.000000000000
         C            3.283655950607    -1.121992533329     0.452247976229    12.000000000000
         C            3.286956950607     1.120136466671    -0.445669023771    12.000000000000
         C            3.987438950607    -0.001499533329     0.004423976229    12.000000000000
         H           -0.481660049393    -1.977277533329    -0.841923023771     1.007825032230
         H           -0.482173049393     1.984911466671     0.828976976229     1.007825032230
         H           -2.953000049393    -1.980702533329    -0.829588023771     1.007825032230
         H           -2.953389049393     1.995445466671     0.797874976229     1.007825032230
         H            1.342991950607    -1.982671533329     0.830291976229     1.007825032230
         H            1.349014950607     1.984099466671    -0.830025023771     1.007825032230
         H           -5.048302049393     0.999805466671    -0.114101023771     1.007825032230
         H           -5.047824049393    -0.644559533329    -0.771223023771     1.007825032230
         H           -5.013750049393    -0.389700533329     0.976992976229     1.007825032230
         H            3.822652950607    -1.995314533329     0.812636976229     1.007825032230
         H            3.728977050607     1.832096566671    -0.738480923771     1.007825032230
         H            5.074788950607    -0.002425533329     0.006092976229     1.007825032230

  Basis Set: AUG-CC-PVTZ
    Blend: AUG-CC-PVTZ
  Basis Set: (AUG-CC-PVTZ AUX)
    Blend: AUG-CC-PVTZ-JKFIT
	 Reference Energy          =    -499.4154425377147390 [Eh]
	 Singles Energy            =      -0.0000000000000000 [Eh]
	 Same-Spin Energy          =      -0.5652178516018850 [Eh]
	 Opposite-Spin Energy      =      -1.7791387918819177 [Eh]
	 Correlation Energy        =      -2.3443566434838026 [Eh]
	 Total Energy              =    -501.7597991811985594 [Eh]

	 ================> DF-SCS-MP2 Energies <==================
	-----------------------------------------------------------
	 SCS Same-Spin Scale       =       0.3333333333333333 [-]
	 SCS Opposite-Spin Scale   =       1.2000000000000000 [-]
	 SCS Same-Spin Energy      =      -0.1884059505339616 [Eh]
	 SCS Opposite-Spin Energy  =      -2.1349665502583011 [Eh]
	 SCS Correlation Energy    =      -2.3233725007922628 [Eh]
	 SCS Total Energy          =    -501.7388150385070276 [Eh]
	-----------------------------------------------------------

  Dipole Moment: [D]
     X:    -0.4438      Y:     0.0219      Z:     0.0221     Total:     0.4449

*** Psi4 exiting successfully. Buy a developer a beer!
