                               Psi4 1.4a3.dev225

  ==> Input File <==

--------------------------------------------------------------------------
#psi4
#
memory 32 gb

molecule  {
0 1
  C       -0.2663850     0.0008990    -0.0013960
  C        1.2106340     0.0001110     0.0000760
  C       -3.1008180     0.0056250    -0.0137190
  C       -0.9855960    -1.1139970    -0.4586890
  C       -0.9858100     1.1188490     0.4479860
  C       -2.3796020    -1.1098520    -0.4588000
  C       -2.3797760     1.1173260     0.4409920
  C        1.9242530    -1.1209430     0.4529070
  C        1.9275400     1.1199170    -0.4505910
  C       -4.6068780    -0.0078780     0.0198210
  C        3.2775856    -1.0993361     0.4428317
  C        3.3225700     1.1193260    -0.4456390
  C        4.0230520    -0.0023100     0.0044540
  H       -0.4460470    -1.9780880    -0.8418930
  H       -0.4465600     1.9841010     0.8290070
  H       -2.9173870    -1.9815130    -0.8295580
  H       -2.9177760     1.9946350     0.7979050
  H        1.3786050    -1.9834820     0.8303220
  H        1.3846280     1.9832890    -0.8299950
  H       -5.0126890     0.9989950    -0.1140710
  H       -5.0122110    -0.6453700    -0.7711930
  H       -4.9781370    -0.3905110     0.9770230
  H        3.8582660    -1.9961250     0.8126670
  H        3.8641780     1.9916920    -0.8044220
  H        5.1104020    -0.0032360     0.0061230
units angstrom
no_reorient  #important for SAPT in psi4, default
symmetry c1  #important for SAPT in psi4, default
}

set PROPERTIES_ORIGIN ["COM"]
properties('MP2/aug-cc-pvtz', properties = ['dipole'])
--------------------------------------------------------------------------

    Molecular point group: c1
  Charge       = 0
  Multiplicity = 1
  Basis Set: AUG-CC-PVTZ
    Blend: AUG-CC-PVTZ
  Basis Set: (AUG-CC-PVTZ AUX)
    Blend: AUG-CC-PVTZ-JKFIT

    Orbital Energies [Eh]
    ---------------------

    Doubly Occupied:

       1A    -11.245137     2A    -11.242758     3A    -11.241175
       4A    -11.236907     5A    -11.235797     6A    -11.235506
       7A    -11.235311     8A    -11.233802     9A    -11.233234
      10A    -11.232230    11A    -11.232148    12A    -11.229474
      13A    -11.225611    14A     -1.169902    15A     -1.143718
      16A     -1.065416    17A     -1.019721    18A     -1.010281
      19A     -1.003638    20A     -0.929441    21A     -0.839339
      22A     -0.835230    23A     -0.809476    24A     -0.779514
      25A     -0.711554    26A     -0.667071    27A     -0.647219
      28A     -0.640173    29A     -0.615839    30A     -0.609800
      31A     -0.587107    32A     -0.579686    33A     -0.576090
      34A     -0.571368    35A     -0.541487    36A     -0.516302
      37A     -0.510682    38A     -0.493856    39A     -0.483077
      40A     -0.482130    41A     -0.474994    42A     -0.358373
      43A     -0.341467    44A     -0.336600    45A     -0.295534

  @DF-RHF Final Energy:  -499.44717435994198

   => Energetics <=

    Nuclear Repulsion Energy =            688.2632342143039068
    One-Electron Energy =               -2040.0104615073055356
    Two-Electron Energy =                 852.3000529330597601
    Total Energy =                       -499.4471743599419824
  Basis Set: (AUG-CC-PVTZ AUX)
    Blend: AUG-CC-PVTZ-RI
    Molecular point group: c1

    Geometry (in Angstrom), charge = 0, multiplicity = 1:

       Center              X                  Y                   Z               Mass
    ------------   -----------------  -----------------  -----------------  -----------------
         C           -0.299619416852    -0.000927534911    -0.000356128162    12.000000000000
         C            1.177399583148    -0.001715534911     0.001115871838    12.000000000000
         C           -3.134052416852     0.003798465089    -0.012679128162    12.000000000000
         C           -1.018830416852    -1.115823534911    -0.457649128162    12.000000000000
         C           -1.019044416852     1.117022465089     0.449025871838    12.000000000000
         C           -2.412836416852    -1.111678534911    -0.457760128162    12.000000000000
         C           -2.413010416852     1.115499465089     0.442031871838    12.000000000000
         C            1.891018583148    -1.122769534911     0.453946871838    12.000000000000
         C            1.894305583148     1.118090465089    -0.449551128162    12.000000000000
         C           -4.640112416852    -0.009704534911     0.020860871838    12.000000000000
         C            3.244351183148    -1.101162634911     0.443871571838    12.000000000000
         C            3.289335583148     1.117499465089    -0.444599128162    12.000000000000
         C            3.989817583148    -0.004136534911     0.005493871838    12.000000000000
         H           -0.479281416852    -1.979914534911    -0.840853128162     1.007825032230
         H           -0.479794416852     1.982274465089     0.830046871838     1.007825032230
         H           -2.950621416852    -1.983339534911    -0.828518128162     1.007825032230
         H           -2.951010416852     1.992808465089     0.798944871838     1.007825032230
         H            1.345370583148    -1.985308534911     0.831361871838     1.007825032230
         H            1.351393583148     1.981462465089    -0.828955128162     1.007825032230
         H           -5.045923416852     0.997168465089    -0.113031128162     1.007825032230
         H           -5.045445416852    -0.647196534911    -0.770153128162     1.007825032230
         H           -5.011371416852    -0.392337534911     0.978062871838     1.007825032230
         H            3.825031583148    -1.997951534911     0.813706871838     1.007825032230
         H            3.830943583148     1.989865465089    -0.803382128162     1.007825032230
         H            5.077167583148    -0.005062534911     0.007162871838     1.007825032230

  Basis Set: AUG-CC-PVTZ
    Blend: AUG-CC-PVTZ
  Basis Set: (AUG-CC-PVTZ AUX)
    Blend: AUG-CC-PVTZ-JKFIT
	 Reference Energy          =    -499.4471743599419824 [Eh]
	 Singles Energy            =      -0.0000000000000000 [Eh]
	 Same-Spin Energy          =      -0.5654555519394648 [Eh]
	 Opposite-Spin Energy      =      -1.7795273587078519 [Eh]
	 Correlation Energy        =      -2.3449829106473166 [Eh]
	 Total Energy              =    -501.7921572705893141 [Eh]

	 ================> DF-SCS-MP2 Energies <==================
	-----------------------------------------------------------
	 SCS Same-Spin Scale       =       0.3333333333333333 [-]
	 SCS Opposite-Spin Scale   =       1.2000000000000000 [-]
	 SCS Same-Spin Energy      =      -0.1884851839798216 [Eh]
	 SCS Opposite-Spin Energy  =      -2.1354328304494223 [Eh]
	 SCS Correlation Energy    =      -2.3239180144292440 [Eh]
	 SCS Total Energy          =    -501.7710923743712215 [Eh]
	-----------------------------------------------------------

  Dipole Moment: [D]
     X:    -0.4913      Y:     0.0112      Z:     0.0264     Total:     0.4921

*** Psi4 exiting successfully. Buy a developer a beer!
