                               Psi4 1.4a3.dev225

  ==> Input File <==

--------------------------------------------------------------------------
#psi4
#
memory 32 gb

molecule  {
0 1
  C       -0.2663850     0.0008990    -0.0013960
  C        1.2106340     0.0001110     0.0000760
  C       -3.1008180     0.0056250    -0.0137190
  C       -0.9855960    -1.1139970    -0.4586890
  C       -0.9858100     1.1188490     0.4479860
  C       -2.3796020    -1.1098520    -0.4588000
  C       -2.3797760     1.1173260     0.4409920
  C        1.9242530    -1.1209430     0.4529070
  C        1.9275400     1.1199170    -0.4505910
  C       -4.6068780    -0.0078780     0.0198210
  C        3.3192690    -1.1228030     0.4522780
  C        3.3225700     1.1193260    -0.4456390
  C        4.0230520    -0.0023100     0.0044540
  H       -0.4460470    -1.9780880    -0.8418930
  H       -0.5456498     1.8251067     0.7589925
  H       -2.9173870    -1.9815130    -0.8295580
  H       -2.9177760     1.9946350     0.7979050
  H        1.3786050    -1.9834820     0.8303220
  H        1.3846280     1.9832890    -0.8299950
  H       -5.0126890     0.9989950    -0.1140710
  H       -5.0122110    -0.6453700    -0.7711930
  H       -4.9781370    -0.3905110     0.9770230
  H        3.8582660    -1.9961250     0.8126670
  H        3.8641780     1.9916920    -0.8044220
  H        5.1104020    -0.0032360     0.0061230
units angstrom
no_reorient  #important for SAPT in psi4, default
symmetry c1  #important for SAPT in psi4, default
}

set PROPERTIES_ORIGIN ["COM"]
properties('MP2/aug-cc-pvtz', properties = ['dipole'])
--------------------------------------------------------------------------

    Molecular point group: c1
  Charge       = 0
  Multiplicity = 1
  Basis Set: AUG-CC-PVTZ
    Blend: AUG-CC-PVTZ
  Basis Set: (AUG-CC-PVTZ AUX)
    Blend: AUG-CC-PVTZ-JKFIT

    Orbital Energies [Eh]
    ---------------------

    Doubly Occupied:

       1A    -11.245068     2A    -11.241531     3A    -11.239798
       4A    -11.237439     5A    -11.237187     6A    -11.234805
       7A    -11.234583     8A    -11.234320     9A    -11.234083
      10A    -11.231604    11A    -11.231040    12A    -11.224881
      13A    -11.211280    14A     -1.168989    15A     -1.141603
      16A     -1.066037    17A     -1.022502    18A     -1.011618
      19A     -1.004386    20A     -0.928618    21A     -0.851388
      22A     -0.834792    23A     -0.816836    24A     -0.783394
      25A     -0.714563    26A     -0.672737    27A     -0.657078
      28A     -0.645477    29A     -0.618347    30A     -0.613313
      31A     -0.591271    32A     -0.583471    33A     -0.575933
      34A     -0.570630    35A     -0.541217    36A     -0.514378
      37A     -0.508720    38A     -0.499526    39A     -0.484079
      40A     -0.480656    41A     -0.479815    42A     -0.358815
      43A     -0.337499    44A     -0.335542    45A     -0.295696

  @DF-RHF Final Energy:  -499.41591878259601

   => Energetics <=

    Nuclear Repulsion Energy =            688.4699732118499469
    One-Electron Energy =               -2040.2786869222361474
    Two-Electron Energy =                 852.3927949277901917
    Total Energy =                       -499.4159187825960089
  Basis Set: (AUG-CC-PVTZ AUX)
    Blend: AUG-CC-PVTZ-RI
    Molecular point group: c1

    Geometry (in Angstrom), charge = 0, multiplicity = 1:

       Center              X                  Y                   Z               Mass
    ------------   -----------------  -----------------  -----------------  -----------------
         C           -0.302001035805     0.001701003272    -0.000610707503    12.000000000000
         C            1.175017964195     0.000913003272     0.000861292497    12.000000000000
         C           -3.136434035805     0.006427003272    -0.012933707503    12.000000000000
         C           -1.021212035805    -1.113194996728    -0.457903707503    12.000000000000
         C           -1.021426035805     1.119651003272     0.448771292497    12.000000000000
         C           -2.415218035805    -1.109049996728    -0.458014707503    12.000000000000
         C           -2.415392035805     1.118128003272     0.441777292497    12.000000000000
         C            1.888636964195    -1.120140996728     0.453692292497    12.000000000000
         C            1.891923964195     1.120719003272    -0.449805707503    12.000000000000
         C           -4.642494035805    -0.007075996728     0.020606292497    12.000000000000
         C            3.283652964195    -1.122000996728     0.453063292497    12.000000000000
         C            3.286953964195     1.120128003272    -0.444853707503    12.000000000000
         C            3.987435964195    -0.001507996728     0.005239292497    12.000000000000
         H           -0.481663035805    -1.977285996728    -0.841107707503     1.007825032230
         H           -0.581265835805     1.825908703272     0.759777792497     1.007825032230
         H           -2.953003035805    -1.980710996728    -0.828772707503     1.007825032230
         H           -2.953392035805     1.995437003272     0.798690292497     1.007825032230
         H            1.342988964195    -1.982679996728     0.831107292497     1.007825032230
         H            1.349011964195     1.984091003272    -0.829209707503     1.007825032230
         H           -5.048305035805     0.999797003272    -0.113285707503     1.007825032230
         H           -5.047827035805    -0.644567996728    -0.770407707503     1.007825032230
         H           -5.013753035805    -0.389708996728     0.977808292497     1.007825032230
         H            3.822649964195    -1.995322996728     0.813452292497     1.007825032230
         H            3.828561964195     1.992494003272    -0.803636707503     1.007825032230
         H            5.074785964195    -0.002433996728     0.006908292497     1.007825032230

  Basis Set: AUG-CC-PVTZ
    Blend: AUG-CC-PVTZ
  Basis Set: (AUG-CC-PVTZ AUX)
    Blend: AUG-CC-PVTZ-JKFIT
	 Reference Energy          =    -499.4159187825960089 [Eh]
	 Singles Energy            =      -0.0000000000000000 [Eh]
	 Same-Spin Energy          =      -0.5650070321246039 [Eh]
	 Opposite-Spin Energy      =      -1.7788333112089885 [Eh]
	 Correlation Energy        =      -2.3438403433335924 [Eh]
	 Total Energy              =    -501.7597591259295768 [Eh]

	 ================> DF-SCS-MP2 Energies <==================
	-----------------------------------------------------------
	 SCS Same-Spin Scale       =       0.3333333333333333 [-]
	 SCS Opposite-Spin Scale   =       1.2000000000000000 [-]
	 SCS Same-Spin Energy      =      -0.1883356773748679 [Eh]
	 SCS Opposite-Spin Energy  =      -2.1345999734507859 [Eh]
	 SCS Correlation Energy    =      -2.3229356508256540 [Eh]
	 SCS Total Energy          =    -501.7388544334216363 [Eh]
	-----------------------------------------------------------

  Dipole Moment: [D]
     X:    -0.4501      Y:     0.0102      Z:     0.0482     Total:     0.4528

*** Psi4 exiting successfully. Buy a developer a beer!
