                               Psi4 1.4a3.dev225

  ==> Input File <==

--------------------------------------------------------------------------
#psi4
#
memory 32 gb

molecule  {
0 1
  C       -0.2663850     0.0008990    -0.0013960
  C        1.2106340     0.0001110     0.0000760
  C       -3.1008180     0.0056250    -0.0137190
  C       -0.9855960    -1.1139970    -0.4586890
  C       -0.9858100     1.1188490     0.4479860
  C       -2.3796020    -1.1098520    -0.4588000
  C       -2.3797760     1.1173260     0.4409920
  C        1.9242530    -1.1209430     0.4529070
  C        1.9275400     1.1199170    -0.4505910
  C       -4.6068780    -0.0078780     0.0198210
  C        3.3192690    -1.1228030     0.4522780
  C        3.3025701     1.1193345    -0.4457100
  C        4.0230520    -0.0023100     0.0044540
  H       -0.4460470    -1.9780880    -0.8418930
  H       -0.4465600     1.9841010     0.8290070
  H       -2.9173870    -1.9815130    -0.8295580
  H       -2.9177760     1.9946350     0.7979050
  H        1.3786050    -1.9834820     0.8303220
  H        1.3846280     1.9832890    -0.8299950
  H       -5.0126890     0.9989950    -0.1140710
  H       -5.0122110    -0.6453700    -0.7711930
  H       -4.9781370    -0.3905110     0.9770230
  H        3.8582660    -1.9961250     0.8126670
  H        3.8641780     1.9916920    -0.8044220
  H        5.1104020    -0.0032360     0.0061230
units angstrom
no_reorient  #important for SAPT in psi4, default
symmetry c1  #important for SAPT in psi4, default
}

set PROPERTIES_ORIGIN ["COM"]
properties('MP2/aug-cc-pvtz', properties = ['dipole'])
--------------------------------------------------------------------------

    Molecular point group: c1
  Charge       = 0
  Multiplicity = 1
  Basis Set: AUG-CC-PVTZ
    Blend: AUG-CC-PVTZ
  Basis Set: (AUG-CC-PVTZ AUX)
    Blend: AUG-CC-PVTZ-JKFIT

    Orbital Energies [Eh]
    ---------------------

    Doubly Occupied:

       1A    -11.245032     2A    -11.242624     3A    -11.241212
       4A    -11.237092     5A    -11.236628     6A    -11.235354
       7A    -11.235202     8A    -11.235060     9A    -11.233971
      10A    -11.232164    11A    -11.232125    12A    -11.232028
      13A    -11.225522    14A     -1.168498    15A     -1.141843
      16A     -1.064876    17A     -1.018237    18A     -1.009606
      19A     -1.003308    20A     -0.928891    21A     -0.840043
      22A     -0.833909    23A     -0.810503    24A     -0.779767
      25A     -0.711761    26A     -0.666267    27A     -0.646322
      28A     -0.641441    29A     -0.614221    30A     -0.612244
      31A     -0.588145    32A     -0.580126    33A     -0.576426
      34A     -0.570661    35A     -0.541351    36A     -0.514209
      37A     -0.509034    38A     -0.495929    39A     -0.482126
      40A     -0.481694    41A     -0.478046    42A     -0.358203
      43A     -0.339324    44A     -0.336365    45A     -0.295439

  @DF-RHF Final Energy:  -499.44959985458047

   => Energetics <=

    Nuclear Repulsion Energy =            687.5970982845553863
    One-Electron Energy =               -2038.6877318348351764
    Two-Electron Energy =                 851.6410336956993206
    Total Energy =                       -499.4495998545804696
  Basis Set: (AUG-CC-PVTZ AUX)
    Blend: AUG-CC-PVTZ-RI
    Molecular point group: c1

    Geometry (in Angstrom), charge = 0, multiplicity = 1:

       Center              X                  Y                   Z               Mass
    ------------   -----------------  -----------------  -----------------  -----------------
         C           -0.301167373080     0.000747129067    -0.001025418361    12.000000000000
         C            1.175851626920    -0.000040870933     0.000446581639    12.000000000000
         C           -3.135600373080     0.005473129067    -0.013348418361    12.000000000000
         C           -1.020378373080    -1.114148870933    -0.458318418361    12.000000000000
         C           -1.020592373080     1.118697129067     0.448356581639    12.000000000000
         C           -2.414384373080    -1.110003870933    -0.458429418361    12.000000000000
         C           -2.414558373080     1.117174129067     0.441362581639    12.000000000000
         C            1.889470626920    -1.121094870933     0.453277581639    12.000000000000
         C            1.892757626920     1.119765129067    -0.450220418361    12.000000000000
         C           -4.641660373080    -0.008029870933     0.020191581639    12.000000000000
         C            3.284486626920    -1.122954870933     0.452648581639    12.000000000000
         C            3.267787726920     1.119182629067    -0.445339418361    12.000000000000
         C            3.988269626920    -0.002461870933     0.004824581639    12.000000000000
         H           -0.480829373080    -1.978239870933    -0.841522418361     1.007825032230
         H           -0.481342373080     1.983949129067     0.829377581639     1.007825032230
         H           -2.952169373080    -1.981664870933    -0.829187418361     1.007825032230
         H           -2.952558373080     1.994483129067     0.798275581639     1.007825032230
         H            1.343822626920    -1.983633870933     0.830692581639     1.007825032230
         H            1.349845626920     1.983137129067    -0.829624418361     1.007825032230
         H           -5.047471373080     0.998843129067    -0.113700418361     1.007825032230
         H           -5.046993373080    -0.645521870933    -0.770822418361     1.007825032230
         H           -5.012919373080    -0.390662870933     0.977393581639     1.007825032230
         H            3.823483626920    -1.996276870933     0.813037581639     1.007825032230
         H            3.829395626920     1.991540129067    -0.804051418361     1.007825032230
         H            5.075619626920    -0.003387870933     0.006493581639     1.007825032230

  Basis Set: AUG-CC-PVTZ
    Blend: AUG-CC-PVTZ
  Basis Set: (AUG-CC-PVTZ AUX)
    Blend: AUG-CC-PVTZ-JKFIT
	 Reference Energy          =    -499.4495998545804696 [Eh]
	 Singles Energy            =      -0.0000000000000000 [Eh]
	 Same-Spin Energy          =      -0.5653849078924419 [Eh]
	 Opposite-Spin Energy      =      -1.7795762599144493 [Eh]
	 Correlation Energy        =      -2.3449611678068911 [Eh]
	 Total Energy              =    -501.7945610223873700 [Eh]

	 ================> DF-SCS-MP2 Energies <==================
	-----------------------------------------------------------
	 SCS Same-Spin Scale       =       0.3333333333333333 [-]
	 SCS Opposite-Spin Scale   =       1.2000000000000000 [-]
	 SCS Same-Spin Energy      =      -0.1884616359641473 [Eh]
	 SCS Opposite-Spin Energy  =      -2.1354915118973392 [Eh]
	 SCS Correlation Energy    =      -2.3239531478614865 [Eh]
	 SCS Total Energy          =    -501.7735530024419290 [Eh]
	-----------------------------------------------------------

  Dipole Moment: [D]
     X:    -0.4830      Y:    -0.0195      Z:     0.0394     Total:     0.4850

*** Psi4 exiting successfully. Buy a developer a beer!
