                               Psi4 1.4a3.dev225

  ==> Input File <==

--------------------------------------------------------------------------
#psi4
#
memory 32 gb

molecule  {
0 1
  C       -0.2663850     0.0008990    -0.0013960
  C        1.2106340     0.0001110     0.0000760
  C       -3.1008180     0.0056250    -0.0137190
  C       -0.9855960    -1.1139970    -0.4586890
  C       -0.9858100     1.1188490     0.4479860
  C       -2.3596021    -1.1099115    -0.4587984
  C       -2.3797760     1.1173260     0.4409920
  C        1.9242530    -1.1209430     0.4529070
  C        1.9275400     1.1199170    -0.4505910
  C       -4.6068780    -0.0078780     0.0198210
  C        3.3192690    -1.1228030     0.4522780
  C        3.3225700     1.1193260    -0.4456390
  C        4.0230520    -0.0023100     0.0044540
  H       -0.4460470    -1.9780880    -0.8418930
  H       -0.4465600     1.9841010     0.8290070
  H       -2.9173870    -1.9815130    -0.8295580
  H       -2.9177760     1.9946350     0.7979050
  H        1.3786050    -1.9834820     0.8303220
  H        1.3846280     1.9832890    -0.8299950
  H       -5.0126890     0.9989950    -0.1140710
  H       -5.0122110    -0.6453700    -0.7711930
  H       -4.9781370    -0.3905110     0.9770230
  H        3.8582660    -1.9961250     0.8126670
  H        3.8641780     1.9916920    -0.8044220
  H        5.1104020    -0.0032360     0.0061230
units angstrom
no_reorient  #important for SAPT in psi4, default
symmetry c1  #important for SAPT in psi4, default
}

set PROPERTIES_ORIGIN ["COM"]
properties('MP2/aug-cc-pvtz', properties = ['dipole'])
--------------------------------------------------------------------------

    Molecular point group: c1
  Charge       = 0
  Multiplicity = 1
  Basis Set: AUG-CC-PVTZ
    Blend: AUG-CC-PVTZ
  Basis Set: (AUG-CC-PVTZ AUX)
    Blend: AUG-CC-PVTZ-JKFIT

    Orbital Energies [Eh]
    ---------------------

    Doubly Occupied:

       1A    -11.244868     2A    -11.243586     3A    -11.241097
       4A    -11.237116     5A    -11.236866     6A    -11.234882
       7A    -11.234465     8A    -11.234282     9A    -11.234060
      10A    -11.233254    11A    -11.231771    12A    -11.231652
      13A    -11.226120    14A     -1.168448    15A     -1.141497
      16A     -1.064502    17A     -1.017926    18A     -1.009914
      19A     -1.004306    20A     -0.928876    21A     -0.839796
      22A     -0.833145    23A     -0.810607    24A     -0.780051
      25A     -0.711735    26A     -0.666156    27A     -0.646618
      28A     -0.641683    29A     -0.613761    30A     -0.612362
      31A     -0.587744    32A     -0.580200    33A     -0.576446
      34A     -0.570368    35A     -0.541894    36A     -0.513632
      37A     -0.508997    38A     -0.496974    39A     -0.482178
      40A     -0.481978    41A     -0.477208    42A     -0.358416
      43A     -0.339213    44A     -0.336365    45A     -0.295100

  @DF-RHF Final Energy:  -499.44957181921518

   => Energetics <=

    Nuclear Repulsion Energy =            687.5287680386247757
    One-Electron Energy =               -2038.5524453047974021
    Two-Electron Energy =                 851.5741054469574465
    Total Energy =                       -499.4495718192151799
  Basis Set: (AUG-CC-PVTZ AUX)
    Blend: AUG-CC-PVTZ-RI
    Molecular point group: c1

    Geometry (in Angstrom), charge = 0, multiplicity = 1:

       Center              X                  Y                   Z               Mass
    ------------   -----------------  -----------------  -----------------  -----------------
         C           -0.304022905606     0.000751983497    -0.001030601178    12.000000000000
         C            1.172996094394    -0.000036016503     0.000441398822    12.000000000000
         C           -3.138455905606     0.005477983497    -0.013353601178    12.000000000000
         C           -1.023233905606    -1.114144016503    -0.458323601178    12.000000000000
         C           -1.023447905606     1.118701983497     0.448351398822    12.000000000000
         C           -2.397240005606    -1.110058516503    -0.458433001178    12.000000000000
         C           -2.417413905606     1.117178983497     0.441357398822    12.000000000000
         C            1.886615094394    -1.121090016503     0.453272398822    12.000000000000
         C            1.889902094394     1.119769983497    -0.450225601178    12.000000000000
         C           -4.644515905606    -0.008025016503     0.020186398822    12.000000000000
         C            3.281631094394    -1.122950016503     0.452643398822    12.000000000000
         C            3.284932094394     1.119178983497    -0.445273601178    12.000000000000
         C            3.985414094394    -0.002457016503     0.004819398822    12.000000000000
         H           -0.483684905606    -1.978235016503    -0.841527601178     1.007825032230
         H           -0.484197905606     1.983953983497     0.829372398822     1.007825032230
         H           -2.955024905606    -1.981660016503    -0.829192601178     1.007825032230
         H           -2.955413905606     1.994487983497     0.798270398822     1.007825032230
         H            1.340967094394    -1.983629016503     0.830687398822     1.007825032230
         H            1.346990094394     1.983141983497    -0.829629601178     1.007825032230
         H           -5.050326905606     0.998847983497    -0.113705601178     1.007825032230
         H           -5.049848905606    -0.645517016503    -0.770827601178     1.007825032230
         H           -5.015774905606    -0.390658016503     0.977388398822     1.007825032230
         H            3.820628094394    -1.996272016503     0.813032398822     1.007825032230
         H            3.826540094394     1.991544983497    -0.804056601178     1.007825032230
         H            5.072764094394    -0.003383016503     0.006488398822     1.007825032230

  Basis Set: AUG-CC-PVTZ
    Blend: AUG-CC-PVTZ
  Basis Set: (AUG-CC-PVTZ AUX)
    Blend: AUG-CC-PVTZ-JKFIT
	 Reference Energy          =    -499.4495718192151799 [Eh]
	 Singles Energy            =      -0.0000000000000000 [Eh]
	 Same-Spin Energy          =      -0.5653912813249582 [Eh]
	 Opposite-Spin Energy      =      -1.7795672245943432 [Eh]
	 Correlation Energy        =      -2.3449585059193012 [Eh]
	 Total Energy              =    -501.7945303251344740 [Eh]

	 ================> DF-SCS-MP2 Energies <==================
	-----------------------------------------------------------
	 SCS Same-Spin Scale       =       0.3333333333333333 [-]
	 SCS Opposite-Spin Scale   =       1.2000000000000000 [-]
	 SCS Same-Spin Energy      =      -0.1884637604416527 [Eh]
	 SCS Opposite-Spin Energy  =      -2.1354806695132118 [Eh]
	 SCS Correlation Energy    =      -2.3239444299548646 [Eh]
	 SCS Total Energy          =    -501.7735162491700294 [Eh]
	-----------------------------------------------------------

  Dipole Moment: [D]
     X:    -0.4982      Y:    -0.0092      Z:     0.0395     Total:     0.4999

*** Psi4 exiting successfully. Buy a developer a beer!
