                               Psi4 1.4a3.dev225

  ==> Input File <==

--------------------------------------------------------------------------
#psi4
#
memory 32 gb

molecule  {
0 1
  C       -0.2663850     0.0008990    -0.0013960
  C        1.2106340     0.0001110     0.0000760
  C       -3.1008180     0.0056250    -0.0137190
  C       -0.9855960    -1.1139970    -0.4586890
  C       -0.9858100     1.1188490     0.4479860
  C       -2.3796020    -1.1098520    -0.4588000
  C       -2.3797760     1.1173260     0.4409920
  C        1.9242530    -1.1209430     0.4529070
  C        1.9275400     1.1199170    -0.4505910
  C       -4.6068780    -0.0078780     0.0198210
  C        3.3192690    -1.1228030     0.4522780
  C        3.3225700     1.1193260    -0.4456390
  C        4.0482427     0.0377961    -0.0115751
  H       -0.4460470    -1.9780880    -0.8418930
  H       -0.4465600     1.9841010     0.8290070
  H       -2.9173870    -1.9815130    -0.8295580
  H       -2.9177760     1.9946350     0.7979050
  H        1.3786050    -1.9834820     0.8303220
  H        1.3846280     1.9832890    -0.8299950
  H       -5.0126890     0.9989950    -0.1140710
  H       -5.0122110    -0.6453700    -0.7711930
  H       -4.9781370    -0.3905110     0.9770230
  H        3.8582660    -1.9961250     0.8126670
  H        3.8641780     1.9916920    -0.8044220
  H        5.1104020    -0.0032360     0.0061230
units angstrom
no_reorient  #important for SAPT in psi4, default
symmetry c1  #important for SAPT in psi4, default
}

set PROPERTIES_ORIGIN ["COM"]
properties('MP2/aug-cc-pvtz', properties = ['dipole'])
--------------------------------------------------------------------------

    Molecular point group: c1
  Charge       = 0
  Multiplicity = 1
  Basis Set: AUG-CC-PVTZ
    Blend: AUG-CC-PVTZ
  Basis Set: (AUG-CC-PVTZ AUX)
    Blend: AUG-CC-PVTZ-JKFIT

    Orbital Energies [Eh]
    ---------------------

    Doubly Occupied:

       1A    -11.245537     2A    -11.242779     3A    -11.241988
       4A    -11.241343     5A    -11.235574     6A    -11.235519
       7A    -11.235360     8A    -11.234595     9A    -11.234376
      10A    -11.233555    11A    -11.232219    12A    -11.232144
      13A    -11.225611    14A     -1.167496    15A     -1.140028
      16A     -1.064907    17A     -1.016713    18A     -1.009346
      19A     -1.002340    20A     -0.929291    21A     -0.840606
      22A     -0.833887    23A     -0.810300    24A     -0.779937
      25A     -0.711576    26A     -0.669999    27A     -0.645721
      28A     -0.642011    29A     -0.613151    30A     -0.612608
      31A     -0.587266    32A     -0.580450    33A     -0.576140
      34A     -0.572110    35A     -0.541352    36A     -0.517031
      37A     -0.507462    38A     -0.495032    39A     -0.482494
      40A     -0.481248    41A     -0.476771    42A     -0.358918
      43A     -0.337312    44A     -0.335499    45A     -0.295650

  @DF-RHF Final Energy:  -499.44688927536112

   => Energetics <=

    Nuclear Repulsion Energy =            686.8445919852244970
    One-Electron Energy =               -2037.1724577886711813
    Two-Electron Energy =                 850.8809765280856254
    Total Energy =                       -499.4468892753610589
  Basis Set: (AUG-CC-PVTZ AUX)
    Blend: AUG-CC-PVTZ-RI
    Molecular point group: c1

    Geometry (in Angstrom), charge = 0, multiplicity = 1:

       Center              X                  Y                   Z               Mass
    ------------   -----------------  -----------------  -----------------  -----------------
         C           -0.304393469915    -0.002115385271     0.000113809175    12.000000000000
         C            1.172625530085    -0.002903385271     0.001585809175    12.000000000000
         C           -3.138826469915     0.002610614729    -0.012209190825    12.000000000000
         C           -1.023604469915    -1.117011385271    -0.457179190825    12.000000000000
         C           -1.023818469915     1.115834614729     0.449495809175    12.000000000000
         C           -2.417610469915    -1.112866385271    -0.457290190825    12.000000000000
         C           -2.417784469915     1.114311614729     0.442501809175    12.000000000000
         C            1.886244530085    -1.123957385271     0.454416809175    12.000000000000
         C            1.889531530085     1.116902614729    -0.449081190825    12.000000000000
         C           -4.644886469915    -0.010892385271     0.021330809175    12.000000000000
         C            3.281260530085    -1.125817385271     0.453787809175    12.000000000000
         C            3.284561530085     1.116311614729    -0.444129190825    12.000000000000
         C            4.010234230085     0.034781714729    -0.010065290825    12.000000000000
         H           -0.484055469915    -1.981102385271    -0.840383190825     1.007825032230
         H           -0.484568469915     1.981086614729     0.830516809175     1.007825032230
         H           -2.955395469915    -1.984527385271    -0.828048190825     1.007825032230
         H           -2.955784469915     1.991620614729     0.799414809175     1.007825032230
         H            1.340596530085    -1.986496385271     0.831831809175     1.007825032230
         H            1.346619530085     1.980274614729    -0.828485190825     1.007825032230
         H           -5.050697469915     0.995980614729    -0.112561190825     1.007825032230
         H           -5.050219469915    -0.648384385271    -0.769683190825     1.007825032230
         H           -5.016145469915    -0.393525385271     0.978532809175     1.007825032230
         H            3.820257530085    -1.999139385271     0.814176809175     1.007825032230
         H            3.826169530085     1.988677614729    -0.802912190825     1.007825032230
         H            5.072393530085    -0.006250385271     0.007632809175     1.007825032230

  Basis Set: AUG-CC-PVTZ
    Blend: AUG-CC-PVTZ
  Basis Set: (AUG-CC-PVTZ AUX)
    Blend: AUG-CC-PVTZ-JKFIT
	 Reference Energy          =    -499.4468892753611158 [Eh]
	 Singles Energy            =      -0.0000000000000000 [Eh]
	 Same-Spin Energy          =      -0.5653055941970849 [Eh]
	 Opposite-Spin Energy      =      -1.7798387442910295 [Eh]
	 Correlation Energy        =      -2.3451443384881143 [Eh]
	 Total Energy              =    -501.7920336138492416 [Eh]

	 ================> DF-SCS-MP2 Energies <==================
	-----------------------------------------------------------
	 SCS Same-Spin Scale       =       0.3333333333333333 [-]
	 SCS Opposite-Spin Scale   =       1.2000000000000000 [-]
	 SCS Same-Spin Energy      =      -0.1884351980656950 [Eh]
	 SCS Opposite-Spin Energy  =      -2.1358064931492353 [Eh]
	 SCS Correlation Energy    =      -2.3242416912149304 [Eh]
	 SCS Total Energy          =    -501.7711309665760382 [Eh]
	-----------------------------------------------------------

  Dipole Moment: [D]
     X:    -0.4870      Y:    -0.0222      Z:     0.0395     Total:     0.4891

*** Psi4 exiting successfully. Buy a developer a beer!
