                               Psi4 1.4a3.dev225

  ==> Input File <==

--------------------------------------------------------------------------
#psi4
#
memory 32 gb

molecule  {
0 1
  C       -0.2663850     0.0008990    -0.0013960
  C        1.2106340     0.0001110     0.0000760
  C       -3.1008180     0.0056250    -0.0137190
  C       -0.9855960    -1.1139970    -0.4586890
  C       -0.9858100     1.1188490     0.4479860
  C       -2.3796020    -1.1098520    -0.4588000
  C       -2.3797760     1.1173260     0.4409920
  C        1.9344189    -1.1369130     0.4593578
  C        1.9275400     1.1199170    -0.4505910
  C       -4.6068780    -0.0078780     0.0198210
  C        3.3192690    -1.1228030     0.4522780
  C        3.3225700     1.1193260    -0.4456390
  C        4.0230520    -0.0023100     0.0044540
  H       -0.4460470    -1.9780880    -0.8418930
  H       -0.4465600     1.9841010     0.8290070
  H       -2.9173870    -1.9815130    -0.8295580
  H       -2.9177760     1.9946350     0.7979050
  H        1.3786050    -1.9834820     0.8303220
  H        1.3846280     1.9832890    -0.8299950
  H       -5.0126890     0.9989950    -0.1140710
  H       -5.0122110    -0.6453700    -0.7711930
  H       -4.9781370    -0.3905110     0.9770230
  H        3.8582660    -1.9961250     0.8126670
  H        3.8641780     1.9916920    -0.8044220
  H        5.1104020    -0.0032360     0.0061230
units angstrom
no_reorient  #important for SAPT in psi4, default
symmetry c1  #important for SAPT in psi4, default
}

set PROPERTIES_ORIGIN ["COM"]
properties('MP2/aug-cc-pvtz', properties = ['dipole'])
--------------------------------------------------------------------------

    Molecular point group: c1
  Charge       = 0
  Multiplicity = 1
  Basis Set: AUG-CC-PVTZ
    Blend: AUG-CC-PVTZ
  Basis Set: (AUG-CC-PVTZ AUX)
    Blend: AUG-CC-PVTZ-JKFIT

    Orbital Energies [Eh]
    ---------------------

    Doubly Occupied:

       1A    -11.246990     2A    -11.242702     3A    -11.241381
       4A    -11.237192     5A    -11.236188     6A    -11.235430
       7A    -11.235297     8A    -11.234564     9A    -11.234187
      10A    -11.233970    11A    -11.232183    12A    -11.232113
      13A    -11.225576    14A     -1.167265    15A     -1.140972
      16A     -1.065040    17A     -1.017684    18A     -1.009413
      19A     -1.002805    20A     -0.928783    21A     -0.840344
      22A     -0.833574    23A     -0.811139    24A     -0.779340
      25A     -0.711645    26A     -0.667176    27A     -0.645908
      28A     -0.642164    29A     -0.614161    30A     -0.612164
      31A     -0.588892    32A     -0.580589    33A     -0.576357
      34A     -0.570454    35A     -0.541356    36A     -0.513703
      37A     -0.508304    38A     -0.497386    39A     -0.482065
      40A     -0.481411    41A     -0.478052    42A     -0.358241
      43A     -0.338448    44A     -0.336296    45A     -0.295013

  @DF-RHF Final Energy:  -499.44944811106450

   => Energetics <=

    Nuclear Repulsion Energy =            687.0439252773257977
    One-Electron Energy =               -2037.5789090341079373
    Two-Electron Energy =                 851.0855356457176413
    Total Energy =                       -499.4494481110644983
  Basis Set: (AUG-CC-PVTZ AUX)
    Blend: AUG-CC-PVTZ-RI
    Molecular point group: c1

    Geometry (in Angstrom), charge = 0, multiplicity = 1:

       Center              X                  Y                   Z               Mass
    ------------   -----------------  -----------------  -----------------  -----------------
         C           -0.303320869424     0.001887812932    -0.001491000990    12.000000000000
         C            1.173698130576     0.001099812932    -0.000019000990    12.000000000000
         C           -3.137753869424     0.006613812932    -0.013814000990    12.000000000000
         C           -1.022531869424    -1.113008187068    -0.458784000990    12.000000000000
         C           -1.022745869424     1.119837812932     0.447890999010    12.000000000000
         C           -2.416537869424    -1.108863187068    -0.458895000990    12.000000000000
         C           -2.416711869424     1.118314812932     0.440896999010    12.000000000000
         C            1.897483030576    -1.135924187068     0.459262799010    12.000000000000
         C            1.890604130576     1.120905812932    -0.450686000990    12.000000000000
         C           -4.643813869424    -0.006889187068     0.019725999010    12.000000000000
         C            3.282333130576    -1.121814187068     0.452182999010    12.000000000000
         C            3.285634130576     1.120314812932    -0.445734000990    12.000000000000
         C            3.986116130576    -0.001321187068     0.004358999010    12.000000000000
         H           -0.482982869424    -1.977099187068    -0.841988000990     1.007825032230
         H           -0.483495869424     1.985089812932     0.828911999010     1.007825032230
         H           -2.954322869424    -1.980524187068    -0.829653000990     1.007825032230
         H           -2.954711869424     1.995623812932     0.797809999010     1.007825032230
         H            1.341669130576    -1.982493187068     0.830226999010     1.007825032230
         H            1.347692130576     1.984277812932    -0.830090000990     1.007825032230
         H           -5.049624869424     0.999983812932    -0.114166000990     1.007825032230
         H           -5.049146869424    -0.644381187068    -0.771288000990     1.007825032230
         H           -5.015072869424    -0.389522187068     0.976927999010     1.007825032230
         H            3.821330130576    -1.995136187068     0.812571999010     1.007825032230
         H            3.827242130576     1.992680812932    -0.804517000990     1.007825032230
         H            5.073466130576    -0.002247187068     0.006027999010     1.007825032230

  Basis Set: AUG-CC-PVTZ
    Blend: AUG-CC-PVTZ
  Basis Set: (AUG-CC-PVTZ AUX)
    Blend: AUG-CC-PVTZ-JKFIT
	 Reference Energy          =    -499.4494481110644983 [Eh]
	 Singles Energy            =      -0.0000000000000000 [Eh]
	 Same-Spin Energy          =      -0.5653691936415799 [Eh]
	 Opposite-Spin Energy      =      -1.7796476159361880 [Eh]
	 Correlation Energy        =      -2.3450168095777677 [Eh]
	 Total Energy              =    -501.7944649206422696 [Eh]

	 ================> DF-SCS-MP2 Energies <==================
	-----------------------------------------------------------
	 SCS Same-Spin Scale       =       0.3333333333333333 [-]
	 SCS Opposite-Spin Scale   =       1.2000000000000000 [-]
	 SCS Same-Spin Energy      =      -0.1884563978805266 [Eh]
	 SCS Opposite-Spin Energy  =      -2.1355771391234257 [Eh]
	 SCS Correlation Energy    =      -2.3240335370039524 [Eh]
	 SCS Total Energy          =    -501.7734816480684685 [Eh]
	-----------------------------------------------------------

  Dipole Moment: [D]
     X:    -0.4951      Y:    -0.0120      Z:     0.0368     Total:     0.4967

*** Psi4 exiting successfully. Buy a developer a beer!
