                               Psi4 1.4a3.dev225

  ==> Input File <==

--------------------------------------------------------------------------
#psi4
#
memory 32 gb

molecule  {
0 1
  C       -0.2663850     0.0008990    -0.0013960
  C        1.2106340     0.0001110     0.0000760
  C       -3.1008180     0.0056250    -0.0137190
  C       -0.9855960    -1.1139970    -0.4586890
  C       -0.9858100     1.1188490     0.4479860
  C       -2.3796020    -1.1098520    -0.4588000
  C       -2.3797760     1.1173260     0.4409920
  C        1.9242530    -1.1209430     0.4529070
  C        1.9311083     1.2098479    -0.4877538
  C       -4.6068780    -0.0078780     0.0198210
  C        3.3192690    -1.1228030     0.4522780
  C        3.3225700     1.1193260    -0.4456390
  C        4.0230520    -0.0023100     0.0044540
  H       -0.4460470    -1.9780880    -0.8418930
  H       -0.4465600     1.9841010     0.8290070
  H       -2.9173870    -1.9815130    -0.8295580
  H       -2.9177760     1.9946350     0.7979050
  H        1.3786050    -1.9834820     0.8303220
  H        1.3846280     1.9832890    -0.8299950
  H       -5.0126890     0.9989950    -0.1140710
  H       -5.0122110    -0.6453700    -0.7711930
  H       -4.9781370    -0.3905110     0.9770230
  H        3.8582660    -1.9961250     0.8126670
  H        3.8641780     1.9916920    -0.8044220
  H        5.1104020    -0.0032360     0.0061230
units angstrom
no_reorient  #important for SAPT in psi4, default
symmetry c1  #important for SAPT in psi4, default
}

set PROPERTIES_ORIGIN ["COM"]
properties('MP2/aug-cc-pvtz', properties = ['dipole'])
--------------------------------------------------------------------------

    Molecular point group: c1
  Charge       = 0
  Multiplicity = 1
  Basis Set: AUG-CC-PVTZ
    Blend: AUG-CC-PVTZ
  Basis Set: (AUG-CC-PVTZ AUX)
    Blend: AUG-CC-PVTZ-JKFIT

    Orbital Energies [Eh]
    ---------------------

    Doubly Occupied:

       1A    -11.254011     2A    -11.242658     3A    -11.241011
       4A    -11.239062     5A    -11.238624     6A    -11.236677
       7A    -11.235440     8A    -11.235087     9A    -11.234456
      10A    -11.233930    11A    -11.232288    12A    -11.232095
      13A    -11.225582    14A     -1.164476    15A     -1.137368
      16A     -1.064147    17A     -1.018555    18A     -1.009774
      19A     -0.999385    20A     -0.928295    21A     -0.843018
      22A     -0.833082    23A     -0.812690    24A     -0.776960
      25A     -0.711421    26A     -0.674932    27A     -0.646059
      28A     -0.642778    29A     -0.618680    30A     -0.605803
      31A     -0.592561    32A     -0.581257    33A     -0.576656
      34A     -0.568862    35A     -0.541200    36A     -0.518774
      37A     -0.505785    38A     -0.497276    39A     -0.483278
      40A     -0.480840    41A     -0.470469    42A     -0.356678
      43A     -0.338402    44A     -0.336310    45A     -0.292171

  @DF-RHF Final Energy:  -499.43682794899075

   => Energetics <=

    Nuclear Repulsion Energy =            685.7485611380486716
    One-Electron Energy =               -2034.9530566641972200
    Two-Electron Energy =                 849.7676675771577948
    Total Energy =                       -499.4368279489907536
  Basis Set: (AUG-CC-PVTZ AUX)
    Blend: AUG-CC-PVTZ-RI
    Molecular point group: c1

    Geometry (in Angstrom), charge = 0, multiplicity = 1:

       Center              X                  Y                   Z               Mass
    ------------   -----------------  -----------------  -----------------  -----------------
         C           -0.302849875534    -0.005672311481     0.001622515913    12.000000000000
         C            1.174169124466    -0.006460311481     0.003094515913    12.000000000000
         C           -3.137282875534    -0.000946311481    -0.010700484087    12.000000000000
         C           -1.022060875534    -1.120568311481    -0.455670484087    12.000000000000
         C           -1.022274875534     1.112277688519     0.451004515913    12.000000000000
         C           -2.416066875534    -1.116423311481    -0.455781484087    12.000000000000
         C           -2.416240875534     1.110754688519     0.444010515913    12.000000000000
         C            1.887788124466    -1.127514311481     0.455925515913    12.000000000000
         C            1.894643424466     1.203276588519    -0.484735284087    12.000000000000
         C           -4.643342875534    -0.014449311481     0.022839515913    12.000000000000
         C            3.282804124466    -1.129374311481     0.455296515913    12.000000000000
         C            3.286105124466     1.112754688519    -0.442620484087    12.000000000000
         C            3.986587124466    -0.008881311481     0.007472515913    12.000000000000
         H           -0.482511875534    -1.984659311481    -0.838874484087     1.007825032230
         H           -0.483024875534     1.977529688519     0.832025515913     1.007825032230
         H           -2.953851875534    -1.988084311481    -0.826539484087     1.007825032230
         H           -2.954240875534     1.988063688519     0.800923515913     1.007825032230
         H            1.342140124466    -1.990053311481     0.833340515913     1.007825032230
         H            1.348163124466     1.976717688519    -0.826976484087     1.007825032230
         H           -5.049153875534     0.992423688519    -0.111052484087     1.007825032230
         H           -5.048675875534    -0.651941311481    -0.768174484087     1.007825032230
         H           -5.014601875534    -0.397082311481     0.980041515913     1.007825032230
         H            3.821801124466    -2.002696311481     0.815685515913     1.007825032230
         H            3.827713124466     1.985120688519    -0.801403484087     1.007825032230
         H            5.073937124466    -0.009807311481     0.009141515913     1.007825032230

  Basis Set: AUG-CC-PVTZ
    Blend: AUG-CC-PVTZ
  Basis Set: (AUG-CC-PVTZ AUX)
    Blend: AUG-CC-PVTZ-JKFIT
	 Reference Energy          =    -499.4368279489907536 [Eh]
	 Singles Energy            =      -0.0000000000000000 [Eh]
	 Same-Spin Energy          =      -0.5654715814875817 [Eh]
	 Opposite-Spin Energy      =      -1.7806433617074346 [Eh]
	 Correlation Energy        =      -2.3461149431950163 [Eh]
	 Total Energy              =    -501.7829428921857584 [Eh]

	 ================> DF-SCS-MP2 Energies <==================
	-----------------------------------------------------------
	 SCS Same-Spin Scale       =       0.3333333333333333 [-]
	 SCS Opposite-Spin Scale   =       1.2000000000000000 [-]
	 SCS Same-Spin Energy      =      -0.1884905271625272 [Eh]
	 SCS Opposite-Spin Energy  =      -2.1367720340489216 [Eh]
	 SCS Correlation Energy    =      -2.3252625612114488 [Eh]
	 SCS Total Energy          =    -501.7620905102021993 [Eh]
	-----------------------------------------------------------

  Dipole Moment: [D]
     X:    -0.4907      Y:    -0.0271      Z:     0.0361     Total:     0.4928

*** Psi4 exiting successfully. Buy a developer a beer!
