                               Psi4 1.4a3.dev225

  ==> Input File <==

--------------------------------------------------------------------------
#psi4
#
memory 32 gb

molecule  {
0 1
  C       -0.2663850     0.0008990    -0.0013960
  C        1.2106340     0.0001110     0.0000760
  C       -3.1008180     0.0056250    -0.0137190
  C       -0.9855960    -1.1139970    -0.4586890
  C       -0.9858100     1.1188490     0.4479860
  C       -2.3796020    -1.1098520    -0.4588000
  C       -2.3797760     1.1173260     0.4409920
  C        1.9242530    -1.1209430     0.4529070
  C        1.9277950     1.1424171    -0.4598910
  C       -4.6068780    -0.0078780     0.0198210
  C        3.3192690    -1.1228030     0.4522780
  C        3.3225700     1.1193260    -0.4456390
  C        4.0230520    -0.0023100     0.0044540
  H       -0.4460470    -1.9780880    -0.8418930
  H       -0.4465600     1.9841010     0.8290070
  H       -2.9173870    -1.9815130    -0.8295580
  H       -2.9177760     1.9946350     0.7979050
  H        1.3786050    -1.9834820     0.8303220
  H        1.3846280     1.9832890    -0.8299950
  H       -5.0126890     0.9989950    -0.1140710
  H       -5.0122110    -0.6453700    -0.7711930
  H       -4.9781370    -0.3905110     0.9770230
  H        3.8582660    -1.9961250     0.8126670
  H        3.8641780     1.9916920    -0.8044220
  H        5.1104020    -0.0032360     0.0061230
units angstrom
no_reorient  #important for SAPT in psi4, default
symmetry c1  #important for SAPT in psi4, default
}

set PROPERTIES_ORIGIN ["COM"]
properties('MP2/aug-cc-pvtz', properties = ['dipole'])
--------------------------------------------------------------------------

    Molecular point group: c1
  Charge       = 0
  Multiplicity = 1
  Basis Set: AUG-CC-PVTZ
    Blend: AUG-CC-PVTZ
  Basis Set: (AUG-CC-PVTZ AUX)
    Blend: AUG-CC-PVTZ-JKFIT

    Orbital Energies [Eh]
    ---------------------

    Doubly Occupied:

       1A    -11.247293     2A    -11.242598     3A    -11.241139
       4A    -11.237531     5A    -11.237249     6A    -11.235322
       7A    -11.235153     8A    -11.234886     9A    -11.234373
      10A    -11.234114    11A    -11.232134    12A    -11.232033
      13A    -11.225517    14A     -1.166935    15A     -1.140301
      16A     -1.064931    17A     -1.017186    18A     -1.008978
      19A     -1.002852    20A     -0.928658    21A     -0.840820
      22A     -0.833145    23A     -0.811667    24A     -0.778947
      25A     -0.711639    26A     -0.667821    27A     -0.645671
      28A     -0.642445    29A     -0.614790    30A     -0.611539
      31A     -0.589148    32A     -0.580555    33A     -0.576436
      34A     -0.570475    35A     -0.541280    36A     -0.513710
      37A     -0.507859    38A     -0.498206    39A     -0.481647
      40A     -0.481429    41A     -0.477900    42A     -0.358289
      43A     -0.337715    44A     -0.335948    45A     -0.295094

  @DF-RHF Final Energy:  -499.44902808440753

   => Energetics <=

    Nuclear Repulsion Energy =            686.9333200524170024
    One-Electron Energy =               -2037.3579787206203946
    Two-Electron Energy =                 850.9756305837958053
    Total Energy =                       -499.4490280844075869
  Basis Set: (AUG-CC-PVTZ AUX)
    Blend: AUG-CC-PVTZ-RI
    Molecular point group: c1

    Geometry (in Angstrom), charge = 0, multiplicity = 1:

       Center              X                  Y                   Z               Mass
    ------------   -----------------  -----------------  -----------------  -----------------
         C           -0.302613343454    -0.000858516345    -0.000366572325    12.000000000000
         C            1.174405656546    -0.001646516345     0.001105427675    12.000000000000
         C           -3.137046343454     0.003867483655    -0.012689572325    12.000000000000
         C           -1.021824343454    -1.115754516345    -0.457659572325    12.000000000000
         C           -1.022038343454     1.117091483655     0.449015427675    12.000000000000
         C           -2.415830343454    -1.111609516345    -0.457770572325    12.000000000000
         C           -2.416004343454     1.115568483655     0.442021427675    12.000000000000
         C            1.888024656546    -1.122700516345     0.453936427675    12.000000000000
         C            1.891566656546     1.140659583655    -0.458861572325    12.000000000000
         C           -4.643106343454    -0.009635516345     0.020850427675    12.000000000000
         C            3.283040656546    -1.124560516345     0.453307427675    12.000000000000
         C            3.286341656546     1.117568483655    -0.444609572325    12.000000000000
         C            3.986823656546    -0.004067516345     0.005483427675    12.000000000000
         H           -0.482275343454    -1.979845516345    -0.840863572325     1.007825032230
         H           -0.482788343454     1.982343483655     0.830036427675     1.007825032230
         H           -2.953615343454    -1.983270516345    -0.828528572325     1.007825032230
         H           -2.954004343454     1.992877483655     0.798934427675     1.007825032230
         H            1.342376656546    -1.985239516345     0.831351427675     1.007825032230
         H            1.348399656546     1.981531483655    -0.828965572325     1.007825032230
         H           -5.048917343454     0.997237483655    -0.113041572325     1.007825032230
         H           -5.048439343454    -0.647127516345    -0.770163572325     1.007825032230
         H           -5.014365343454    -0.392268516345     0.978052427675     1.007825032230
         H            3.822037656546    -1.997882516345     0.813696427675     1.007825032230
         H            3.827949656546     1.989934483655    -0.803392572325     1.007825032230
         H            5.074173656546    -0.004993516345     0.007152427675     1.007825032230

  Basis Set: AUG-CC-PVTZ
    Blend: AUG-CC-PVTZ
  Basis Set: (AUG-CC-PVTZ AUX)
    Blend: AUG-CC-PVTZ-JKFIT
	 Reference Energy          =    -499.4490280844075301 [Eh]
	 Singles Energy            =      -0.0000000000000000 [Eh]
	 Same-Spin Energy          =      -0.5653774120252228 [Eh]
	 Opposite-Spin Energy      =      -1.7797322629277410 [Eh]
	 Correlation Energy        =      -2.3451096749529636 [Eh]
	 Total Energy              =    -501.7941377593604670 [Eh]

	 ================> DF-SCS-MP2 Energies <==================
	-----------------------------------------------------------
	 SCS Same-Spin Scale       =       0.3333333333333333 [-]
	 SCS Opposite-Spin Scale   =       1.2000000000000000 [-]
	 SCS Same-Spin Energy      =      -0.1884591373417409 [Eh]
	 SCS Opposite-Spin Energy  =      -2.1356787155132890 [Eh]
	 SCS Correlation Energy    =      -2.3241378528550301 [Eh]
	 SCS Total Energy          =    -501.7731659372625472 [Eh]
	-----------------------------------------------------------

  Dipole Moment: [D]
     X:    -0.4883      Y:    -0.0147      Z:     0.0355     Total:     0.4898

*** Psi4 exiting successfully. Buy a developer a beer!
