                               Psi4 1.4a3.dev225

  ==> Input File <==

--------------------------------------------------------------------------
#psi4
#
memory 32 gb

molecule  {
0 1
  C       -0.2663850     0.0008990    -0.0013960
  C        1.2106340     0.0001110     0.0000760
  C       -3.1008180     0.0056250    -0.0137190
  C       -0.9855960    -1.1139970    -0.4586890
  C       -0.9858100     1.1188490     0.4479860
  C       -2.3796020    -1.1098520    -0.4588000
  C       -2.3797760     1.1173260     0.4409920
  C        1.9242530    -1.1209430     0.4529070
  C        1.9275400     1.1199170    -0.4505910
  C       -4.5868838    -0.0076987     0.0193757
  C        3.3192690    -1.1228030     0.4522780
  C        3.3225700     1.1193260    -0.4456390
  C        4.0230520    -0.0023100     0.0044540
  H       -0.4460470    -1.9780880    -0.8418930
  H       -0.4465600     1.9841010     0.8290070
  H       -2.9173870    -1.9815130    -0.8295580
  H       -2.9177760     1.9946350     0.7979050
  H        1.3786050    -1.9834820     0.8303220
  H        1.3846280     1.9832890    -0.8299950
  H       -5.0126890     0.9989950    -0.1140710
  H       -5.0122110    -0.6453700    -0.7711930
  H       -4.9781370    -0.3905110     0.9770230
  H        3.8582660    -1.9961250     0.8126670
  H        3.8641780     1.9916920    -0.8044220
  H        5.1104020    -0.0032360     0.0061230
units angstrom
no_reorient  #important for SAPT in psi4, default
symmetry c1  #important for SAPT in psi4, default
}

set PROPERTIES_ORIGIN ["COM"]
properties('MP2/aug-cc-pvtz', properties = ['dipole'])
--------------------------------------------------------------------------

    Molecular point group: c1
  Charge       = 0
  Multiplicity = 1
  Basis Set: AUG-CC-PVTZ
    Blend: AUG-CC-PVTZ
  Basis Set: (AUG-CC-PVTZ AUX)
    Blend: AUG-CC-PVTZ-JKFIT

    Orbital Energies [Eh]
    ---------------------

    Doubly Occupied:

       1A    -11.244986     2A    -11.241677     3A    -11.241284
       4A    -11.237193     5A    -11.236946     6A    -11.235371
       7A    -11.235238     8A    -11.234552     9A    -11.234374
      10A    -11.234150    11A    -11.232130    12A    -11.232047
      13A    -11.226179    14A     -1.168310    15A     -1.141844
      16A     -1.066695    17A     -1.016905    18A     -1.008794
      19A     -1.005087    20A     -0.928193    21A     -0.840985
      22A     -0.832556    23A     -0.811711    24A     -0.779584
      25A     -0.711912    26A     -0.666512    27A     -0.646288
      28A     -0.643502    29A     -0.613825    30A     -0.613517
      31A     -0.587762    32A     -0.580070    33A     -0.574734
      34A     -0.572214    35A     -0.537893    36A     -0.515228
      37A     -0.508314    38A     -0.497497    39A     -0.481983
      40A     -0.481330    41A     -0.478848    42A     -0.358814
      43A     -0.337563    44A     -0.335865    45A     -0.295901

  @DF-RHF Final Energy:  -499.44934458030610

   => Energetics <=

    Nuclear Repulsion Energy =            687.6891858565712710
    One-Electron Energy =               -2038.8643287974603027
    Two-Electron Energy =                 851.7257983605829850
    Total Energy =                       -499.4493445803061604
  Basis Set: (AUG-CC-PVTZ AUX)
    Blend: AUG-CC-PVTZ-RI
    Molecular point group: c1

    Geometry (in Angstrom), charge = 0, multiplicity = 1:

       Center              X                  Y                   Z               Mass
    ------------   -----------------  -----------------  -----------------  -----------------
         C           -0.304022498690     0.000734935882    -0.000998697582    12.000000000000
         C            1.172996501310    -0.000053064118     0.000473302418    12.000000000000
         C           -3.138455498690     0.005460935882    -0.013321697582    12.000000000000
         C           -1.023233498690    -1.114161064118    -0.458291697582    12.000000000000
         C           -1.023447498690     1.118684935882     0.448383302418    12.000000000000
         C           -2.417239498690    -1.110016064118    -0.458402697582    12.000000000000
         C           -2.417413498690     1.117161935882     0.441389302418    12.000000000000
         C            1.886615501310    -1.121107064118     0.453304302418    12.000000000000
         C            1.889902501310     1.119752935882    -0.450193697582    12.000000000000
         C           -4.624521298690    -0.007862764118     0.019773002418    12.000000000000
         C            3.281631501310    -1.122967064118     0.452675302418    12.000000000000
         C            3.284932501310     1.119161935882    -0.445241697582    12.000000000000
         C            3.985414501310    -0.002474064118     0.004851302418    12.000000000000
         H           -0.483684498690    -1.978252064118    -0.841495697582     1.007825032230
         H           -0.484197498690     1.983936935882     0.829404302418     1.007825032230
         H           -2.955024498690    -1.981677064118    -0.829160697582     1.007825032230
         H           -2.955413498690     1.994470935882     0.798302302418     1.007825032230
         H            1.340967501310    -1.983646064118     0.830719302418     1.007825032230
         H            1.346990501310     1.983124935882    -0.829597697582     1.007825032230
         H           -5.050326498690     0.998830935882    -0.113673697582     1.007825032230
         H           -5.049848498690    -0.645534064118    -0.770795697582     1.007825032230
         H           -5.015774498690    -0.390675064118     0.977420302418     1.007825032230
         H            3.820628501310    -1.996289064118     0.813064302418     1.007825032230
         H            3.826540501310     1.991527935882    -0.804024697582     1.007825032230
         H            5.072764501310    -0.003400064118     0.006520302418     1.007825032230

  Basis Set: AUG-CC-PVTZ
    Blend: AUG-CC-PVTZ
  Basis Set: (AUG-CC-PVTZ AUX)
    Blend: AUG-CC-PVTZ-JKFIT
	 Reference Energy          =    -499.4493445803061036 [Eh]
	 Singles Energy            =      -0.0000000000000000 [Eh]
	 Same-Spin Energy          =      -0.5655619898608979 [Eh]
	 Opposite-Spin Energy      =      -1.7797804055437996 [Eh]
	 Correlation Energy        =      -2.3453423954046975 [Eh]
	 Total Energy              =    -501.7946869757108175 [Eh]

	 ================> DF-SCS-MP2 Energies <==================
	-----------------------------------------------------------
	 SCS Same-Spin Scale       =       0.3333333333333333 [-]
	 SCS Opposite-Spin Scale   =       1.2000000000000000 [-]
	 SCS Same-Spin Energy      =      -0.1885206632869660 [Eh]
	 SCS Opposite-Spin Energy  =      -2.1357364866525592 [Eh]
	 SCS Correlation Energy    =      -2.3242571499395250 [Eh]
	 SCS Total Energy          =    -501.7736017302456162 [Eh]
	-----------------------------------------------------------

  Dipole Moment: [D]
     X:    -0.4852      Y:    -0.0140      Z:     0.0373     Total:     0.4868

*** Psi4 exiting successfully. Buy a developer a beer!
