                               Psi4 1.4a3.dev225

  ==> Input File <==

--------------------------------------------------------------------------
#psi4
#
memory 32 gb

molecule  {
0 1
  C       -0.2663850     0.0008990    -0.0013960
  C        1.2106340     0.0001110     0.0000760
  C       -3.1008180     0.0056250    -0.0137190
  C       -0.9855960    -1.1139970    -0.4586890
  C       -0.9858100     1.1188490     0.4479860
  C       -2.3796020    -1.1098520    -0.4588000
  C       -2.3797760     1.1173260     0.4409920
  C        1.9242530    -1.1209430     0.4529070
  C        1.9275400     1.1199170    -0.4505910
  C       -4.6068780    -0.0078780     0.0198210
  C        3.3192690    -1.1228030     0.4522780
  C        3.3225700     1.1193260    -0.4456390
  C        4.0230520    -0.0023100     0.0044540
  H       -0.4460470    -1.9780880    -0.8418930
  H       -0.4465600     1.9841010     0.8290070
  H       -2.9173870    -1.9815130    -0.8295580
  H       -2.9177760     1.9946350     0.7979050
  H        1.3685764    -1.9993348     0.8372586
  H        1.3846280     1.9832890    -0.8299950
  H       -5.0126890     0.9989950    -0.1140710
  H       -5.0122110    -0.6453700    -0.7711930
  H       -4.9781370    -0.3905110     0.9770230
  H        3.8582660    -1.9961250     0.8126670
  H        3.8641780     1.9916920    -0.8044220
  H        5.1104020    -0.0032360     0.0061230
units angstrom
no_reorient  #important for SAPT in psi4, default
symmetry c1  #important for SAPT in psi4, default
}

set PROPERTIES_ORIGIN ["COM"]
properties('MP2/aug-cc-pvtz', properties = ['dipole'])
--------------------------------------------------------------------------

    Molecular point group: c1
  Charge       = 0
  Multiplicity = 1
  Basis Set: AUG-CC-PVTZ
    Blend: AUG-CC-PVTZ
  Basis Set: (AUG-CC-PVTZ AUX)
    Blend: AUG-CC-PVTZ-JKFIT

    Orbital Energies [Eh]
    ---------------------

    Doubly Occupied:

       1A    -11.245154     2A    -11.242570     3A    -11.241195
       4A    -11.237549     5A    -11.237117     6A    -11.236295
       7A    -11.235287     8A    -11.235146     9A    -11.234608
      10A    -11.234316    11A    -11.232059    12A    -11.231978
      13A    -11.225484    14A     -1.167999    15A     -1.141317
      16A     -1.065279    17A     -1.016554    18A     -1.008516
      19A     -1.004113    20A     -0.928795    21A     -0.840441
      22A     -0.832721    23A     -0.810950    24A     -0.779435
      25A     -0.711287    26A     -0.665159    27A     -0.645957
      28A     -0.641786    29A     -0.613578    30A     -0.613129
      31A     -0.587042    32A     -0.579740    33A     -0.576284
      34A     -0.570771    35A     -0.541320    36A     -0.512546
      37A     -0.508573    38A     -0.497427    39A     -0.481931
      40A     -0.480771    41A     -0.478887    42A     -0.359128
      43A     -0.337535    44A     -0.335823    45A     -0.296140

  @DF-RHF Final Energy:  -499.44935606362333

   => Energetics <=

    Nuclear Repulsion Energy =            687.2400822919212260
    One-Electron Energy =               -2037.9794875456930185
    Two-Electron Energy =                 851.2900491901484656
    Total Energy =                       -499.4493560636233269
  Basis Set: (AUG-CC-PVTZ AUX)
    Blend: AUG-CC-PVTZ-RI
    Molecular point group: c1

    Geometry (in Angstrom), charge = 0, multiplicity = 1:

       Center              X                  Y                   Z               Mass
    ------------   -----------------  -----------------  -----------------  -----------------
         C           -0.302535011794     0.000842783036    -0.001072076087    12.000000000000
         C            1.174483988206     0.000054783036     0.000399923913    12.000000000000
         C           -3.136968011794     0.005568783036    -0.013395076087    12.000000000000
         C           -1.021746011794    -1.114053216964    -0.458365076087    12.000000000000
         C           -1.021960011794     1.118792783036     0.448309923913    12.000000000000
         C           -2.415752011794    -1.109908216964    -0.458476076087    12.000000000000
         C           -2.415926011794     1.117269783036     0.441315923913    12.000000000000
         C            1.888102988206    -1.120999216964     0.453230923913    12.000000000000
         C            1.891389988206     1.119860783036    -0.450267076087    12.000000000000
         C           -4.643028011794    -0.007934216964     0.020144923913    12.000000000000
         C            3.283118988206    -1.122859216964     0.452601923913    12.000000000000
         C            3.286419988206     1.119269783036    -0.445315076087    12.000000000000
         C            3.986901988206    -0.002366216964     0.004777923913    12.000000000000
         H           -0.482197011794    -1.978144216964    -0.841569076087     1.007825032230
         H           -0.482710011794     1.984044783036     0.829330923913     1.007825032230
         H           -2.953537011794    -1.981569216964    -0.829234076087     1.007825032230
         H           -2.953926011794     1.994578783036     0.798228923913     1.007825032230
         H            1.332426388206    -1.999391016964     0.837582523913     1.007825032230
         H            1.348477988206     1.983232783036    -0.829671076087     1.007825032230
         H           -5.048839011794     0.998938783036    -0.113747076087     1.007825032230
         H           -5.048361011794    -0.645426216964    -0.770869076087     1.007825032230
         H           -5.014287011794    -0.390567216964     0.977346923913     1.007825032230
         H            3.822115988206    -1.996181216964     0.812990923913     1.007825032230
         H            3.828027988206     1.991635783036    -0.804098076087     1.007825032230
         H            5.074251988206    -0.003292216964     0.006446923913     1.007825032230

  Basis Set: AUG-CC-PVTZ
    Blend: AUG-CC-PVTZ
  Basis Set: (AUG-CC-PVTZ AUX)
    Blend: AUG-CC-PVTZ-JKFIT
	 Reference Energy          =    -499.4493560636233269 [Eh]
	 Singles Energy            =      -0.0000000000000000 [Eh]
	 Same-Spin Energy          =      -0.5654352317686290 [Eh]
	 Opposite-Spin Energy      =      -1.7797814444535085 [Eh]
	 Correlation Energy        =      -2.3452166762221376 [Eh]
	 Total Energy              =    -501.7945727398454778 [Eh]

	 ================> DF-SCS-MP2 Energies <==================
	-----------------------------------------------------------
	 SCS Same-Spin Scale       =       0.3333333333333333 [-]
	 SCS Opposite-Spin Scale   =       1.2000000000000000 [-]
	 SCS Same-Spin Energy      =      -0.1884784105895430 [Eh]
	 SCS Opposite-Spin Energy  =      -2.1357377333442100 [Eh]
	 SCS Correlation Energy    =      -2.3242161439337532 [Eh]
	 SCS Total Energy          =    -501.7735722075570948 [Eh]
	-----------------------------------------------------------

  Dipole Moment: [D]
     X:    -0.4805      Y:    -0.0091      Z:     0.0345     Total:     0.4818

*** Psi4 exiting successfully. Buy a developer a beer!
