                               Psi4 1.4a3.dev225

  ==> Input File <==

--------------------------------------------------------------------------
#psi4
#
memory 32 gb

molecule  {
0 1
  C       -0.2663850     0.0008990    -0.0013960
  C        1.2106340     0.0001110     0.0000760
  C       -3.1008180     0.0056250    -0.0137190
  C       -0.9855960    -1.1139970    -0.4586890
  C       -0.9858100     1.1188490     0.4479860
  C       -2.3796020    -1.1098520    -0.4588000
  C       -2.3797760     1.1173260     0.4409920
  C        1.9242530    -1.1209430     0.4529070
  C        1.9275400     1.1199170    -0.4505910
  C       -4.6068780    -0.0078780     0.0198210
  C        3.3192690    -1.1228030     0.4522780
  C        3.3225700     1.1193260    -0.4456390
  C        4.0230520    -0.0023100     0.0044540
  H       -0.4460470    -1.9780880    -0.8418930
  H       -0.4465600     1.9841010     0.8290070
  H       -2.9173870    -1.9815130    -0.8295580
  H       -2.9177760     1.9946350     0.7979050
  H        1.3786050    -1.9834820     0.8303220
  H        1.3846280     1.9832890    -0.8299950
  H       -5.0126890     0.9989950    -0.1140710
  H       -5.0122110    -0.6453700    -0.7711930
  H       -4.9781370    -0.3905110     0.9770230
  H        3.8582660    -1.9961250     0.8126670
  H        3.9637659     2.1520979    -0.8703931
  H        5.1104020    -0.0032360     0.0061230
units angstrom
no_reorient  #important for SAPT in psi4, default
symmetry c1  #important for SAPT in psi4, default
}

set PROPERTIES_ORIGIN ["COM"]
properties('MP2/aug-cc-pvtz', properties = ['dipole'])
--------------------------------------------------------------------------

    Molecular point group: c1
  Charge       = 0
  Multiplicity = 1
  Basis Set: AUG-CC-PVTZ
    Blend: AUG-CC-PVTZ
  Basis Set: (AUG-CC-PVTZ AUX)
    Blend: AUG-CC-PVTZ-JKFIT

    Orbital Energies [Eh]
    ---------------------

    Doubly Occupied:

       1A    -11.258523     2A    -11.246611     3A    -11.243168
       4A    -11.242032     5A    -11.238770     6A    -11.236794
       7A    -11.236757     8A    -11.235973     9A    -11.235838
      10A    -11.235388    11A    -11.232607    12A    -11.232539
      13A    -11.225886    14A     -1.168897    15A     -1.141937
      16A     -1.065639    17A     -1.016203    18A     -1.008071
      19A     -1.003939    20A     -0.929560    21A     -0.839294
      22A     -0.832717    23A     -0.808416    24A     -0.777213
      25A     -0.706635    26A     -0.666853    27A     -0.646782
      28A     -0.638525    29A     -0.614799    30A     -0.607095
      31A     -0.584298    32A     -0.576860    33A     -0.573512
      34A     -0.566841    35A     -0.541672    36A     -0.513028
      37A     -0.509624    38A     -0.492805    39A     -0.482865
      40A     -0.481337    41A     -0.472025    42A     -0.360198
      43A     -0.338633    44A     -0.336661    45A     -0.297066

  @DF-RHF Final Energy:  -499.42791668668661

   => Energetics <=

    Nuclear Repulsion Energy =            686.4025665179925682
    One-Electron Energy =               -2036.2591956487694915
    Two-Electron Energy =                 850.4287124440904790
    Total Energy =                       -499.4279166866865580
  Basis Set: (AUG-CC-PVTZ AUX)
    Blend: AUG-CC-PVTZ-RI
    Molecular point group: c1

    Geometry (in Angstrom), charge = 0, multiplicity = 1:

       Center              X                  Y                   Z               Mass
    ------------   -----------------  -----------------  -----------------  -----------------
         C           -0.303192229292    -0.000213994929    -0.000634950141    12.000000000000
         C            1.173826770708    -0.001001994929     0.000837049859    12.000000000000
         C           -3.137625229292     0.004512005071    -0.012957950141    12.000000000000
         C           -1.022403229292    -1.115109994929    -0.457927950141    12.000000000000
         C           -1.022617229292     1.117736005071     0.448747049859    12.000000000000
         C           -2.416409229292    -1.110964994929    -0.458038950141    12.000000000000
         C           -2.416583229292     1.116213005071     0.441753049859    12.000000000000
         C            1.887445770708    -1.122055994929     0.453668049859    12.000000000000
         C            1.890732770708     1.118804005071    -0.449829950141    12.000000000000
         C           -4.643685229292    -0.008990994929     0.020582049859    12.000000000000
         C            3.282461770708    -1.123915994929     0.453039049859    12.000000000000
         C            3.285762770708     1.118213005071    -0.444877950141    12.000000000000
         C            3.986244770708    -0.003422994929     0.005215049859    12.000000000000
         H           -0.482854229292    -1.979200994929    -0.841131950141     1.007825032230
         H           -0.483367229292     1.982988005071     0.829768049859     1.007825032230
         H           -2.954194229292    -1.982625994929    -0.828796950141     1.007825032230
         H           -2.954583229292     1.993522005071     0.798666049859     1.007825032230
         H            1.341797770708    -1.984594994929     0.831083049859     1.007825032230
         H            1.347820770708     1.982176005071    -0.829233950141     1.007825032230
         H           -5.049496229292     0.997882005071    -0.113309950141     1.007825032230
         H           -5.049018229292    -0.646482994929    -0.770431950141     1.007825032230
         H           -5.014944229292    -0.391623994929     0.977784049859     1.007825032230
         H            3.821458770708    -1.997237994929     0.813428049859     1.007825032230
         H            3.926958670708     2.150984905071    -0.869632050141     1.007825032230
         H            5.073594770708    -0.004348994929     0.006884049859     1.007825032230

  Basis Set: AUG-CC-PVTZ
    Blend: AUG-CC-PVTZ
  Basis Set: (AUG-CC-PVTZ AUX)
    Blend: AUG-CC-PVTZ-JKFIT
	 Reference Energy          =    -499.4279166866866149 [Eh]
	 Singles Energy            =      -0.0000000000000000 [Eh]
	 Same-Spin Energy          =      -0.5658435849238709 [Eh]
	 Opposite-Spin Energy      =      -1.7817925800884347 [Eh]
	 Correlation Energy        =      -2.3476361650123057 [Eh]
	 Total Energy              =    -501.7755528516989330 [Eh]

	 ================> DF-SCS-MP2 Energies <==================
	-----------------------------------------------------------
	 SCS Same-Spin Scale       =       0.3333333333333333 [-]
	 SCS Opposite-Spin Scale   =       1.2000000000000000 [-]
	 SCS Same-Spin Energy      =      -0.1886145283079569 [Eh]
	 SCS Opposite-Spin Energy  =      -2.1381510961061214 [Eh]
	 SCS Correlation Energy    =      -2.3267656244140782 [Eh]
	 SCS Total Energy          =    -501.7546823111006802 [Eh]
	-----------------------------------------------------------

  Dipole Moment: [D]
     X:    -0.5755      Y:    -0.1054      Z:     0.0744     Total:     0.5898

*** Psi4 exiting successfully. Buy a developer a beer!
