                               Psi4 1.4a3.dev225

  ==> Input File <==

--------------------------------------------------------------------------
#psi4
#
memory 32 gb

molecule  {
0 1
  C       -0.2663850     0.0008990    -0.0013960
  C        1.2106340     0.0001110     0.0000760
  C       -3.1008180     0.0056250    -0.0137190
  C       -0.9855960    -1.1139970    -0.4586890
  C       -0.9858100     1.1188490     0.4479860
  C       -2.3796020    -1.1098520    -0.4588000
  C       -2.3797760     1.1173260     0.4409920
  C        1.9242530    -1.1209430     0.4529070
  C        1.9275400     1.1199170    -0.4505910
  C       -4.6068780    -0.0078780     0.0198210
  C        3.3192690    -1.1228030     0.4522780
  C        3.3225700     1.1193260    -0.4456390
  C        4.0230520    -0.0023100     0.0044540
  H       -0.4460470    -1.9780880    -0.8418930
  H       -0.4564690     1.9682016     0.8220056
  H       -2.9173870    -1.9815130    -0.8295580
  H       -2.9177760     1.9946350     0.7979050
  H        1.3786050    -1.9834820     0.8303220
  H        1.3846280     1.9832890    -0.8299950
  H       -5.0126890     0.9989950    -0.1140710
  H       -5.0122110    -0.6453700    -0.7711930
  H       -4.9781370    -0.3905110     0.9770230
  H        3.8582660    -1.9961250     0.8126670
  H        3.8641780     1.9916920    -0.8044220
  H        5.1104020    -0.0032360     0.0061230
units angstrom
no_reorient  #important for SAPT in psi4, default
symmetry c1  #important for SAPT in psi4, default
}

set PROPERTIES_ORIGIN ["COM"]
properties('MP2/aug-cc-pvtz', properties = ['dipole'])
--------------------------------------------------------------------------

    Molecular point group: c1
  Charge       = 0
  Multiplicity = 1
  Basis Set: AUG-CC-PVTZ
    Blend: AUG-CC-PVTZ
  Basis Set: (AUG-CC-PVTZ AUX)
    Blend: AUG-CC-PVTZ-JKFIT

    Orbital Energies [Eh]
    ---------------------

    Doubly Occupied:

       1A    -11.244948     2A    -11.242456     3A    -11.240996
       4A    -11.237187     5A    -11.236940     6A    -11.235091
       7A    -11.234535     8A    -11.234357     9A    -11.234132
      10A    -11.233136    11A    -11.231962    12A    -11.231683
      13A    -11.225420    14A     -1.168061    15A     -1.141304
      16A     -1.065270    17A     -1.017087    18A     -1.008960
      19A     -1.004205    20A     -0.928804    21A     -0.841250
      22A     -0.833112    23A     -0.811970    24A     -0.779884
      25A     -0.712030    26A     -0.666338    27A     -0.645884
      28A     -0.643552    29A     -0.614332    30A     -0.613429
      31A     -0.588092    32A     -0.580747    33A     -0.576283
      34A     -0.570932    35A     -0.541316    36A     -0.512856
      37A     -0.508662    38A     -0.498127    39A     -0.482003
      40A     -0.480722    41A     -0.479516    42A     -0.359031
      43A     -0.337470    44A     -0.335756    45A     -0.296038

  @DF-RHF Final Energy:  -499.45020151064227

   => Energetics <=

    Nuclear Repulsion Energy =            687.4366485416097703
    One-Electron Energy =               -2038.3619762446560344
    Two-Electron Energy =                 851.4751261924038772
    Total Energy =                       -499.4502015106422732
  Basis Set: (AUG-CC-PVTZ AUX)
    Blend: AUG-CC-PVTZ-RI
    Molecular point group: c1

    Geometry (in Angstrom), charge = 0, multiplicity = 1:

       Center              X                  Y                   Z               Mass
    ------------   -----------------  -----------------  -----------------  -----------------
         C           -0.302535728869     0.000843062431    -0.000988509311    12.000000000000
         C            1.174483271131     0.000055062431     0.000483490689    12.000000000000
         C           -3.136968728869     0.005569062431    -0.013311509311    12.000000000000
         C           -1.021746728869    -1.114052937569    -0.458281509311    12.000000000000
         C           -1.021960728869     1.118793062431     0.448393490689    12.000000000000
         C           -2.415752728869    -1.109907937569    -0.458392509311    12.000000000000
         C           -2.415926728869     1.117270062431     0.441399490689    12.000000000000
         C            1.888102271131    -1.120998937569     0.453314490689    12.000000000000
         C            1.891389271131     1.119861062431    -0.450183509311    12.000000000000
         C           -4.643028728869    -0.007933937569     0.020228490689    12.000000000000
         C            3.283118271131    -1.122858937569     0.452685490689    12.000000000000
         C            3.286419271131     1.119270062431    -0.445231509311    12.000000000000
         C            3.986901271131    -0.002365937569     0.004861490689    12.000000000000
         H           -0.482197728869    -1.978143937569    -0.841485509311     1.007825032230
         H           -0.492619728869     1.968145662431     0.822413090689     1.007825032230
         H           -2.953537728869    -1.981568937569    -0.829150509311     1.007825032230
         H           -2.953926728869     1.994579062431     0.798312490689     1.007825032230
         H            1.342454271131    -1.983537937569     0.830729490689     1.007825032230
         H            1.348477271131     1.983233062431    -0.829587509311     1.007825032230
         H           -5.048839728869     0.998939062431    -0.113663509311     1.007825032230
         H           -5.048361728869    -0.645425937569    -0.770785509311     1.007825032230
         H           -5.014287728869    -0.390566937569     0.977430490689     1.007825032230
         H            3.822115271131    -1.996180937569     0.813074490689     1.007825032230
         H            3.828027271131     1.991636062431    -0.804014509311     1.007825032230
         H            5.074251271131    -0.003291937569     0.006530490689     1.007825032230

  Basis Set: AUG-CC-PVTZ
    Blend: AUG-CC-PVTZ
  Basis Set: (AUG-CC-PVTZ AUX)
    Blend: AUG-CC-PVTZ-JKFIT
	 Reference Energy          =    -499.4502015106422732 [Eh]
	 Singles Energy            =      -0.0000000000000000 [Eh]
	 Same-Spin Energy          =      -0.5653205634791931 [Eh]
	 Opposite-Spin Energy      =      -1.7794381798790915 [Eh]
	 Correlation Energy        =      -2.3447587433582848 [Eh]
	 Total Energy              =    -501.7949602540005571 [Eh]

	 ================> DF-SCS-MP2 Energies <==================
	-----------------------------------------------------------
	 SCS Same-Spin Scale       =       0.3333333333333333 [-]
	 SCS Opposite-Spin Scale   =       1.2000000000000000 [-]
	 SCS Same-Spin Energy      =      -0.1884401878263977 [Eh]
	 SCS Opposite-Spin Energy  =      -2.1353258158549098 [Eh]
	 SCS Correlation Energy    =      -2.3237660036813073 [Eh]
	 SCS Total Energy          =    -501.7739675143236013 [Eh]
	-----------------------------------------------------------

  Dipole Moment: [D]
     X:    -0.4799      Y:    -0.0094      Z:     0.0389     Total:     0.4815

*** Psi4 exiting successfully. Buy a developer a beer!
