                               Psi4 1.4a3.dev225

  ==> Input File <==

--------------------------------------------------------------------------
#psi4
#
memory 32 gb

molecule  {
0 1
  C       -0.2663850     0.0008990    -0.0013960
  C        1.2106340     0.0001110     0.0000760
  C       -3.1008180     0.0056250    -0.0137190
  C       -0.9855960    -1.1139970    -0.4586890
  C       -0.9858100     1.1188490     0.4479860
  C       -2.3796020    -1.1098520    -0.4588000
  C       -2.3797760     1.1173260     0.4409920
  C        1.9242530    -1.1209430     0.4529070
  C        1.9275400     1.1199170    -0.4505910
  C       -4.6068780    -0.0078780     0.0198210
  C        3.3192690    -1.1228030     0.4522780
  C        3.3225700     1.1193260    -0.4456390
  C        4.0230520    -0.0023100     0.0044540
  H       -0.4460470    -1.9780880    -0.8418930
  H       -0.4713325     1.9443524     0.8115034
  H       -2.9173870    -1.9815130    -0.8295580
  H       -2.9177760     1.9946350     0.7979050
  H        1.3786050    -1.9834820     0.8303220
  H        1.3846280     1.9832890    -0.8299950
  H       -5.0126890     0.9989950    -0.1140710
  H       -5.0122110    -0.6453700    -0.7711930
  H       -4.9781370    -0.3905110     0.9770230
  H        3.8582660    -1.9961250     0.8126670
  H        3.8641780     1.9916920    -0.8044220
  H        5.1104020    -0.0032360     0.0061230
units angstrom
no_reorient  #important for SAPT in psi4, default
symmetry c1  #important for SAPT in psi4, default
}

set PROPERTIES_ORIGIN ["COM"]
properties('MP2/aug-cc-pvtz', properties = ['dipole'])
--------------------------------------------------------------------------

    Molecular point group: c1
  Charge       = 0
  Multiplicity = 1
  Basis Set: AUG-CC-PVTZ
    Blend: AUG-CC-PVTZ
  Basis Set: (AUG-CC-PVTZ AUX)
    Blend: AUG-CC-PVTZ-JKFIT

    Orbital Energies [Eh]
    ---------------------

    Doubly Occupied:

       1A    -11.244962     2A    -11.242270     3A    -11.240720
       4A    -11.237232     5A    -11.236986     6A    -11.234887
       7A    -11.234574     8A    -11.234397     9A    -11.234166
      10A    -11.231942    11A    -11.231848    12A    -11.229118
      13A    -11.225308    14A     -1.168135    15A     -1.141306
      16A     -1.065310    17A     -1.017567    18A     -1.009396
      19A     -1.004254    20A     -0.928734    21A     -0.842154
      22A     -0.833446    23A     -0.812735    24A     -0.780460
      25A     -0.712348    26A     -0.666790    27A     -0.646099
      28A     -0.645664    29A     -0.615168    30A     -0.613397
      31A     -0.588684    32A     -0.581534    33A     -0.576232
      34A     -0.570883    35A     -0.541287    36A     -0.513111
      37A     -0.508669    38A     -0.498412    39A     -0.482238
      40A     -0.480722    41A     -0.479807    42A     -0.358983
      43A     -0.337449    44A     -0.335703    45A     -0.295958

  @DF-RHF Final Energy:  -499.44935243569842

   => Energetics <=

    Nuclear Repulsion Energy =            687.5927446469646611
    One-Electron Energy =               -2038.6621034564263937
    Two-Electron Energy =                 851.6200063737634309
    Total Energy =                       -499.4493524356984153
  Basis Set: (AUG-CC-PVTZ AUX)
    Blend: AUG-CC-PVTZ-RI
    Molecular point group: c1

    Geometry (in Angstrom), charge = 0, multiplicity = 1:

       Center              X                  Y                   Z               Mass
    ------------   -----------------  -----------------  -----------------  -----------------
         C           -0.302446613159     0.000986052871    -0.000925542243    12.000000000000
         C            1.174572386841     0.000198052871     0.000546457757    12.000000000000
         C           -3.136879613159     0.005712052871    -0.013248542243    12.000000000000
         C           -1.021657613159    -1.113909947129    -0.458218542243    12.000000000000
         C           -1.021871613159     1.118936052871     0.448456457757    12.000000000000
         C           -2.415663613159    -1.109764947129    -0.458329542243    12.000000000000
         C           -2.415837613159     1.117413052871     0.441462457757    12.000000000000
         C            1.888191386841    -1.120855947129     0.453377457757    12.000000000000
         C            1.891478386841     1.120004052871    -0.450120542243    12.000000000000
         C           -4.642939613159    -0.007790947129     0.020291457757    12.000000000000
         C            3.283207386841    -1.122715947129     0.452748457757    12.000000000000
         C            3.286508386841     1.119413052871    -0.445168542243    12.000000000000
         C            3.986990386841    -0.002222947129     0.004924457757    12.000000000000
         H           -0.482108613159    -1.978000947129    -0.841422542243     1.007825032230
         H           -0.507394113159     1.944439452871     0.811973857757     1.007825032230
         H           -2.953448613159    -1.981425947129    -0.829087542243     1.007825032230
         H           -2.953837613159     1.994722052871     0.798375457757     1.007825032230
         H            1.342543386841    -1.983394947129     0.830792457757     1.007825032230
         H            1.348566386841     1.983376052871    -0.829524542243     1.007825032230
         H           -5.048750613159     0.999082052871    -0.113600542243     1.007825032230
         H           -5.048272613159    -0.645282947129    -0.770722542243     1.007825032230
         H           -5.014198613159    -0.390423947129     0.977493457757     1.007825032230
         H            3.822204386841    -1.996037947129     0.813137457757     1.007825032230
         H            3.828116386841     1.991779052871    -0.803951542243     1.007825032230
         H            5.074340386841    -0.003148947129     0.006593457757     1.007825032230

  Basis Set: AUG-CC-PVTZ
    Blend: AUG-CC-PVTZ
  Basis Set: (AUG-CC-PVTZ AUX)
    Blend: AUG-CC-PVTZ-JKFIT
	 Reference Energy          =    -499.4493524356984153 [Eh]
	 Singles Energy            =      -0.0000000000000000 [Eh]
	 Same-Spin Energy          =      -0.5652427678385789 [Eh]
	 Opposite-Spin Energy      =      -1.7792226005729499 [Eh]
	 Correlation Energy        =      -2.3444653684115289 [Eh]
	 Total Energy              =    -501.7938178041099491 [Eh]

	 ================> DF-SCS-MP2 Energies <==================
	-----------------------------------------------------------
	 SCS Same-Spin Scale       =       0.3333333333333333 [-]
	 SCS Opposite-Spin Scale   =       1.2000000000000000 [-]
	 SCS Same-Spin Energy      =      -0.1884142559461929 [Eh]
	 SCS Opposite-Spin Energy  =      -2.1350671206875398 [Eh]
	 SCS Correlation Energy    =      -2.3234813766337328 [Eh]
	 SCS Total Energy          =    -501.7728338123321237 [Eh]
	-----------------------------------------------------------

  Dipole Moment: [D]
     X:    -0.4732      Y:    -0.0036      Z:     0.0416     Total:     0.4751

*** Psi4 exiting successfully. Buy a developer a beer!
