                               Psi4 1.4a3.dev225

  ==> Input File <==

--------------------------------------------------------------------------
#psi4
#
memory 32 gb

molecule  {
0 1
  C       -0.2663850     0.0008990    -0.0013960
  C        1.2106340     0.0001110     0.0000760
  C       -3.1008180     0.0056250    -0.0137190
  C       -0.9855960    -1.1139970    -0.4586890
  C       -0.9858100     1.1188490     0.4479860
  C       -2.3796020    -1.1098520    -0.4588000
  C       -2.3900699     1.1014548     0.4345003
  C        1.9242530    -1.1209430     0.4529070
  C        1.9275400     1.1199170    -0.4505910
  C       -4.6068780    -0.0078780     0.0198210
  C        3.3192690    -1.1228030     0.4522780
  C        3.3225700     1.1193260    -0.4456390
  C        4.0230520    -0.0023100     0.0044540
  H       -0.4460470    -1.9780880    -0.8418930
  H       -0.4465600     1.9841010     0.8290070
  H       -2.9173870    -1.9815130    -0.8295580
  H       -2.9177760     1.9946350     0.7979050
  H        1.3786050    -1.9834820     0.8303220
  H        1.3846280     1.9832890    -0.8299950
  H       -5.0126890     0.9989950    -0.1140710
  H       -5.0122110    -0.6453700    -0.7711930
  H       -4.9781370    -0.3905110     0.9770230
  H        3.8582660    -1.9961250     0.8126670
  H        3.8641780     1.9916920    -0.8044220
  H        5.1104020    -0.0032360     0.0061230
units angstrom
no_reorient  #important for SAPT in psi4, default
symmetry c1  #important for SAPT in psi4, default
}

set PROPERTIES_ORIGIN ["COM"]
properties('MP2/aug-cc-pvtz', properties = ['dipole'])
--------------------------------------------------------------------------

    Molecular point group: c1
  Charge       = 0
  Multiplicity = 1
  Basis Set: AUG-CC-PVTZ
    Blend: AUG-CC-PVTZ
  Basis Set: (AUG-CC-PVTZ AUX)
    Blend: AUG-CC-PVTZ-JKFIT

    Orbital Energies [Eh]
    ---------------------

    Doubly Occupied:

       1A    -11.244964     2A    -11.241318     3A    -11.240240
       4A    -11.237252     5A    -11.237003     6A    -11.236130
       7A    -11.235125     8A    -11.234622     9A    -11.234442
      10A    -11.234217    11A    -11.232344    12A    -11.231748
      13A    -11.225231    14A     -1.168495    15A     -1.142161
      16A     -1.066443    17A     -1.016347    18A     -1.007947
      19A     -1.003993    20A     -0.929303    21A     -0.841396
      22A     -0.833331    23A     -0.812002    24A     -0.779003
      25A     -0.711606    26A     -0.665948    27A     -0.646322
      28A     -0.642080    29A     -0.613943    30A     -0.612983
      31A     -0.587384    32A     -0.579223    33A     -0.576481
      34A     -0.571460    35A     -0.540438    36A     -0.512818
      37A     -0.508726    38A     -0.498686    39A     -0.482682
      40A     -0.480623    41A     -0.478446    42A     -0.360096
      43A     -0.337157    44A     -0.334872    45A     -0.297340

  @DF-RHF Final Energy:  -499.44963108164740

   => Energetics <=

    Nuclear Repulsion Energy =            687.5167215248569619
    One-Electron Energy =               -2038.5239634128931812
    Two-Electron Energy =                 851.5576108063889933
    Total Energy =                       -499.4496310816473397
  Basis Set: (AUG-CC-PVTZ AUX)
    Blend: AUG-CC-PVTZ-RI
    Molecular point group: c1

    Geometry (in Angstrom), charge = 0, multiplicity = 1:

       Center              X                  Y                   Z               Mass
    ------------   -----------------  -----------------  -----------------  -----------------
         C           -0.301860271512     0.001880759732    -0.000567053127    12.000000000000
         C            1.175158728488     0.001092759732     0.000904946873    12.000000000000
         C           -3.136293271512     0.006606759732    -0.012890053127    12.000000000000
         C           -1.021071271512    -1.113015240268    -0.457860053127    12.000000000000
         C           -1.021285271512     1.119830759732     0.448814946873    12.000000000000
         C           -2.415077271512    -1.108870240268    -0.457971053127    12.000000000000
         C           -2.425545171512     1.102436559732     0.435329246873    12.000000000000
         C            1.888777728488    -1.119961240268     0.453735946873    12.000000000000
         C            1.892064728488     1.120898759732    -0.449762053127    12.000000000000
         C           -4.642353271512    -0.006896240268     0.020649946873    12.000000000000
         C            3.283793728488    -1.121821240268     0.453106946873    12.000000000000
         C            3.287094728488     1.120307759732    -0.444810053127    12.000000000000
         C            3.987576728488    -0.001328240268     0.005282946873    12.000000000000
         H           -0.481522271512    -1.977106240268    -0.841064053127     1.007825032230
         H           -0.482035271512     1.985082759732     0.829835946873     1.007825032230
         H           -2.952862271512    -1.980531240268    -0.828729053127     1.007825032230
         H           -2.953251271512     1.995616759732     0.798733946873     1.007825032230
         H            1.343129728488    -1.982500240268     0.831150946873     1.007825032230
         H            1.349152728488     1.984270759732    -0.829166053127     1.007825032230
         H           -5.048164271512     0.999976759732    -0.113242053127     1.007825032230
         H           -5.047686271512    -0.644388240268    -0.770364053127     1.007825032230
         H           -5.013612271512    -0.389529240268     0.977851946873     1.007825032230
         H            3.822790728488    -1.995143240268     0.813495946873     1.007825032230
         H            3.828702728488     1.992673759732    -0.803593053127     1.007825032230
         H            5.074926728488    -0.002254240268     0.006951946873     1.007825032230

  Basis Set: AUG-CC-PVTZ
    Blend: AUG-CC-PVTZ
  Basis Set: (AUG-CC-PVTZ AUX)
    Blend: AUG-CC-PVTZ-JKFIT
	 Reference Energy          =    -499.4496310816473965 [Eh]
	 Singles Energy            =      -0.0000000000000000 [Eh]
	 Same-Spin Energy          =      -0.5653793094533587 [Eh]
	 Opposite-Spin Energy      =      -1.7796102574288220 [Eh]
	 Correlation Energy        =      -2.3449895668821807 [Eh]
	 Total Energy              =    -501.7946206485295875 [Eh]

	 ================> DF-SCS-MP2 Energies <==================
	-----------------------------------------------------------
	 SCS Same-Spin Scale       =       0.3333333333333333 [-]
	 SCS Opposite-Spin Scale   =       1.2000000000000000 [-]
	 SCS Same-Spin Energy      =      -0.1884597698177862 [Eh]
	 SCS Opposite-Spin Energy  =      -2.1355323089145863 [Eh]
	 SCS Correlation Energy    =      -2.3239920787323727 [Eh]
	 SCS Total Energy          =    -501.7736231603797705 [Eh]
	-----------------------------------------------------------

  Dipole Moment: [D]
     X:    -0.4685      Y:    -0.0179      Z:     0.0350     Total:     0.4702

*** Psi4 exiting successfully. Buy a developer a beer!
