                               Psi4 1.4a3.dev225

  ==> Input File <==

--------------------------------------------------------------------------
#psi4
#
memory 32 gb

molecule  {
0 1
  C       -0.2663850     0.0008990    -0.0013960
  C        1.2106340     0.0001110     0.0000760
  C       -3.1008180     0.0056250    -0.0137190
  C       -0.9855960    -1.1139970    -0.4586890
  C       -0.9858100     1.1188490     0.4479860
  C       -2.3796020    -1.1098520    -0.4588000
  C       -2.3797760     1.1173260     0.4409920
  C        1.9242530    -1.1209430     0.4529070
  C        1.9275400     1.1199170    -0.4505910
  C       -4.5568924    -0.0074298     0.0187078
  C        3.3192690    -1.1228030     0.4522780
  C        3.3225700     1.1193260    -0.4456390
  C        4.0230520    -0.0023100     0.0044540
  H       -0.4460470    -1.9780880    -0.8418930
  H       -0.4465600     1.9841010     0.8290070
  H       -2.9173870    -1.9815130    -0.8295580
  H       -2.9177760     1.9946350     0.7979050
  H        1.3786050    -1.9834820     0.8303220
  H        1.3846280     1.9832890    -0.8299950
  H       -5.0126890     0.9989950    -0.1140710
  H       -5.0122110    -0.6453700    -0.7711930
  H       -4.9781370    -0.3905110     0.9770230
  H        3.8582660    -1.9961250     0.8126670
  H        3.8641780     1.9916920    -0.8044220
  H        5.1104020    -0.0032360     0.0061230
units angstrom
no_reorient  #important for SAPT in psi4, default
symmetry c1  #important for SAPT in psi4, default
}

set PROPERTIES_ORIGIN ["COM"]
properties('MP2/aug-cc-pvtz', properties = ['dipole'])
--------------------------------------------------------------------------

    Molecular point group: c1
  Charge       = 0
  Multiplicity = 1
  Basis Set: AUG-CC-PVTZ
    Blend: AUG-CC-PVTZ
  Basis Set: (AUG-CC-PVTZ AUX)
    Blend: AUG-CC-PVTZ-JKFIT

    Orbital Energies [Eh]
    ---------------------

    Doubly Occupied:

       1A    -11.245063     2A    -11.241420     3A    -11.240194
       4A    -11.237254     5A    -11.237006     6A    -11.235473
       7A    -11.235339     8A    -11.234619     9A    -11.234445
      10A    -11.234216    11A    -11.232212    12A    -11.232116
      13A    -11.227396    14A     -1.168807    15A     -1.142737
      16A     -1.069066    17A     -1.017036    18A     -1.008951
      19A     -1.006506    20A     -0.927254    21A     -0.841337
      22A     -0.831992    23A     -0.812061    24A     -0.779674
      25A     -0.712034    26A     -0.667268    27A     -0.646863
      28A     -0.645820    29A     -0.613936    30A     -0.613659
      31A     -0.587837    32A     -0.580086    33A     -0.575731
      34A     -0.571110    35A     -0.532982    36A     -0.518870
      37A     -0.507730    38A     -0.496638    39A     -0.483379
      40A     -0.480374    41A     -0.478148    42A     -0.358378
      43A     -0.337679    44A     -0.335980    45A     -0.295557

  @DF-RHF Final Energy:  -499.44671719499178

   => Energetics <=

    Nuclear Repulsion Energy =            688.2295922051163188
    One-Electron Energy =               -2039.9281480370327699
    Two-Electron Energy =                 852.2518386369247310
    Total Energy =                       -499.4467171949918338
  Basis Set: (AUG-CC-PVTZ AUX)
    Blend: AUG-CC-PVTZ-RI
    Molecular point group: c1

    Geometry (in Angstrom), charge = 0, multiplicity = 1:

       Center              X                  Y                   Z               Mass
    ------------   -----------------  -----------------  -----------------  -----------------
         C           -0.306163544851     0.000715739469    -0.000951017089    12.000000000000
         C            1.170855455149    -0.000072260531     0.000520982911    12.000000000000
         C           -3.140596544851     0.005441739469    -0.013274017089    12.000000000000
         C           -1.025374544851    -1.114180260531    -0.458244017089    12.000000000000
         C           -1.025588544851     1.118665739469     0.448430982911    12.000000000000
         C           -2.419380544851    -1.110035260531    -0.458355017089    12.000000000000
         C           -2.419554544851     1.117142739469     0.441436982911    12.000000000000
         C            1.884474455149    -1.121126260531     0.453351982911    12.000000000000
         C            1.887761455149     1.119733739469    -0.450146017089    12.000000000000
         C           -4.596670944851    -0.007613060531     0.019152782911    12.000000000000
         C            3.279490455149    -1.122986260531     0.452722982911    12.000000000000
         C            3.282791455149     1.119142739469    -0.445194017089    12.000000000000
         C            3.983273455149    -0.002493260531     0.004898982911    12.000000000000
         H           -0.485825544851    -1.978271260531    -0.841448017089     1.007825032230
         H           -0.486338544851     1.983917739469     0.829451982911     1.007825032230
         H           -2.957165544851    -1.981696260531    -0.829113017089     1.007825032230
         H           -2.957554544851     1.994451739469     0.798349982911     1.007825032230
         H            1.338826455149    -1.983665260531     0.830766982911     1.007825032230
         H            1.344849455149     1.983105739469    -0.829550017089     1.007825032230
         H           -5.052467544851     0.998811739469    -0.113626017089     1.007825032230
         H           -5.051989544851    -0.645553260531    -0.770748017089     1.007825032230
         H           -5.017915544851    -0.390694260531     0.977467982911     1.007825032230
         H            3.818487455149    -1.996308260531     0.813111982911     1.007825032230
         H            3.824399455149     1.991508739469    -0.803977017089     1.007825032230
         H            5.070623455149    -0.003419260531     0.006567982911     1.007825032230

  Basis Set: AUG-CC-PVTZ
    Blend: AUG-CC-PVTZ
  Basis Set: (AUG-CC-PVTZ AUX)
    Blend: AUG-CC-PVTZ-JKFIT
	 Reference Energy          =    -499.4467171949917770 [Eh]
	 Singles Energy            =      -0.0000000000000000 [Eh]
	 Same-Spin Energy          =      -0.5659050748382026 [Eh]
	 Opposite-Spin Energy      =      -1.7801531687143044 [Eh]
	 Correlation Energy        =      -2.3460582435525072 [Eh]
	 Total Energy              =    -501.7927754385443109 [Eh]

	 ================> DF-SCS-MP2 Energies <==================
	-----------------------------------------------------------
	 SCS Same-Spin Scale       =       0.3333333333333333 [-]
	 SCS Opposite-Spin Scale   =       1.2000000000000000 [-]
	 SCS Same-Spin Energy      =      -0.1886350249460675 [Eh]
	 SCS Opposite-Spin Energy  =      -2.1361838024571651 [Eh]
	 SCS Correlation Energy    =      -2.3248188274032326 [Eh]
	 SCS Total Energy          =    -501.7715360223950256 [Eh]
	-----------------------------------------------------------

  Dipole Moment: [D]
     X:    -0.4840      Y:    -0.0143      Z:     0.0382     Total:     0.4857

*** Psi4 exiting successfully. Buy a developer a beer!
