                               Psi4 1.4a3.dev225

  ==> Input File <==

--------------------------------------------------------------------------
#psi4
#
memory 32 gb

molecule  {
0 1
  C       -0.2663850     0.0008990    -0.0013960
  C        1.2106340     0.0001110     0.0000760
  C       -3.1008180     0.0056250    -0.0137190
  C       -0.9855960    -1.1139970    -0.4586890
  C       -0.9858100     1.1188490     0.4479860
  C       -2.3796020    -1.1098520    -0.4588000
  C       -2.3797760     1.1173260     0.4409920
  C        1.9242530    -1.1209430     0.4529070
  C        1.9275400     1.1199170    -0.4505910
  C       -4.6068780    -0.0078780     0.0198210
  C        3.3192690    -1.1228030     0.4522780
  C        3.3225700     1.1193260    -0.4456390
  C        4.1453200    -0.0761488     0.0357252
  H       -0.4460470    -1.9780880    -0.8418930
  H       -0.4465600     1.9841010     0.8290070
  H       -2.9173870    -1.9815130    -0.8295580
  H       -2.9177760     1.9946350     0.7979050
  H        1.3786050    -1.9834820     0.8303220
  H        1.3846280     1.9832890    -0.8299950
  H       -5.0126890     0.9989950    -0.1140710
  H       -5.0122110    -0.6453700    -0.7711930
  H       -4.9781370    -0.3905110     0.9770230
  H        3.8582660    -1.9961250     0.8126670
  H        3.8641780     1.9916920    -0.8044220
  H        5.1104020    -0.0032360     0.0061230
units angstrom
no_reorient  #important for SAPT in psi4, default
symmetry c1  #important for SAPT in psi4, default
}

set PROPERTIES_ORIGIN ["COM"]
properties('MP2/aug-cc-pvtz', properties = ['dipole'])
--------------------------------------------------------------------------

    Molecular point group: c1
  Charge       = 0
  Multiplicity = 1
  Basis Set: AUG-CC-PVTZ
    Blend: AUG-CC-PVTZ
  Basis Set: (AUG-CC-PVTZ AUX)
    Blend: AUG-CC-PVTZ-JKFIT

    Orbital Energies [Eh]
    ---------------------

    Doubly Occupied:

       1A    -11.250139     2A    -11.248200     3A    -11.243690
       4A    -11.242110     5A    -11.239795     6A    -11.238021
       7A    -11.236524     8A    -11.236286     9A    -11.234443
      10A    -11.234229    11A    -11.232934    12A    -11.232777
      13A    -11.226165    14A     -1.166477    15A     -1.135221
      16A     -1.062822    17A     -1.016268    18A     -1.009612
      19A     -0.999132    20A     -0.931344    21A     -0.842794
      22A     -0.837373    23A     -0.806506    24A     -0.783016
      25A     -0.711516    26A     -0.686733    27A     -0.645240
      28A     -0.641913    29A     -0.611612    30A     -0.610165
      31A     -0.587910    32A     -0.583448    33A     -0.576962
      34A     -0.571095    35A     -0.541617    36A     -0.527168
      37A     -0.504867    38A     -0.489910    39A     -0.485147
      40A     -0.478431    41A     -0.466108    42A     -0.356720
      43A     -0.337681    44A     -0.334567    45A     -0.294129

  @DF-RHF Final Energy:  -499.42102915890985

   => Energetics <=

    Nuclear Repulsion Energy =            684.9696035715413700
    One-Electron Energy =               -2033.3236329914800535
    Two-Electron Energy =                 848.9330002610289512
    Total Energy =                       -499.4210291589098460
  Basis Set: (AUG-CC-PVTZ AUX)
    Blend: AUG-CC-PVTZ-RI
    Molecular point group: c1

    Geometry (in Angstrom), charge = 0, multiplicity = 1:

       Center              X                  Y                   Z               Mass
    ------------   -----------------  -----------------  -----------------  -----------------
         C           -0.311323689258     0.006018989604    -0.003262896337    12.000000000000
         C            1.165695310742     0.005230989604    -0.001790896337    12.000000000000
         C           -3.145756689258     0.010744989604    -0.015585896337    12.000000000000
         C           -1.030534689258    -1.108877010396    -0.460555896337    12.000000000000
         C           -1.030748689258     1.123968989604     0.446119103663    12.000000000000
         C           -2.424540689258    -1.104732010396    -0.460666896337    12.000000000000
         C           -2.424714689258     1.122445989604     0.439125103663    12.000000000000
         C            1.879314310742    -1.115823010396     0.451040103663    12.000000000000
         C            1.882601310742     1.125036989604    -0.452457896337    12.000000000000
         C           -4.651816689258    -0.002758010396     0.017954103663    12.000000000000
         C            3.274330310742    -1.117683010396     0.450411103663    12.000000000000
         C            3.277631310742     1.124445989604    -0.447505896337    12.000000000000
         C            4.100381310742    -0.071028810396     0.033858303663    12.000000000000
         H           -0.490985689258    -1.972968010396    -0.843759896337     1.007825032230
         H           -0.491498689258     1.989220989604     0.827140103663     1.007825032230
         H           -2.962325689258    -1.976393010396    -0.831424896337     1.007825032230
         H           -2.962714689258     1.999754989604     0.796038103663     1.007825032230
         H            1.333666310742    -1.978362010396     0.828455103663     1.007825032230
         H            1.339689310742     1.988408989604    -0.831861896337     1.007825032230
         H           -5.057627689258     1.004114989604    -0.115937896337     1.007825032230
         H           -5.057149689258    -0.640250010396    -0.773059896337     1.007825032230
         H           -5.023075689258    -0.385391010396     0.975156103663     1.007825032230
         H            3.813327310742    -1.991005010396     0.810800103663     1.007825032230
         H            3.819239310742     1.996811989604    -0.806288896337     1.007825032230
         H            5.065463310742     0.001883989604     0.004256103663     1.007825032230

  Basis Set: AUG-CC-PVTZ
    Blend: AUG-CC-PVTZ
  Basis Set: (AUG-CC-PVTZ AUX)
    Blend: AUG-CC-PVTZ-JKFIT
	 Reference Energy          =    -499.4210291589098460 [Eh]
	 Singles Energy            =      -0.0000000000000000 [Eh]
	 Same-Spin Energy          =      -0.5654727851811158 [Eh]
	 Opposite-Spin Energy      =      -1.7816651397570000 [Eh]
	 Correlation Energy        =      -2.3471379249381159 [Eh]
	 Total Energy              =    -501.7681670838479704 [Eh]

	 ================> DF-SCS-MP2 Energies <==================
	-----------------------------------------------------------
	 SCS Same-Spin Scale       =       0.3333333333333333 [-]
	 SCS Opposite-Spin Scale   =       1.2000000000000000 [-]
	 SCS Same-Spin Energy      =      -0.1884909283937052 [Eh]
	 SCS Opposite-Spin Energy  =      -2.1379981677084001 [Eh]
	 SCS Correlation Energy    =      -2.3264890961021054 [Eh]
	 SCS Total Energy          =    -501.7475182550119257 [Eh]
	-----------------------------------------------------------

  Dipole Moment: [D]
     X:    -0.5367      Y:    -0.0032      Z:     0.0328     Total:     0.5377

*** Psi4 exiting successfully. Buy a developer a beer!
