                               Psi4 1.4a3.dev225

  ==> Input File <==

--------------------------------------------------------------------------
#psi4
#
memory 32 gb

molecule  {
0 1
  C       -0.2663850     0.0008990    -0.0013960
  C        1.2106340     0.0001110     0.0000760
  C       -3.1008180     0.0056250    -0.0137190
  C       -0.9855960    -1.1139970    -0.4586890
  C       -0.9858100     1.1188490     0.4479860
  C       -2.3796020    -1.1098520    -0.4588000
  C       -2.3797760     1.1173260     0.4409920
  C        1.9242530    -1.1209430     0.4529070
  C        1.9275400     1.1199170    -0.4505910
  C       -4.6068780    -0.0078780     0.0198210
  C        3.3192690    -1.1228030     0.4522780
  C        3.3225700     1.1193260    -0.4456390
  C        3.9227610     0.1582795    -0.0599878
  H       -0.4460470    -1.9780880    -0.8418930
  H       -0.4465600     1.9841010     0.8290070
  H       -2.9173870    -1.9815130    -0.8295580
  H       -2.9177760     1.9946350     0.7979050
  H        1.3786050    -1.9834820     0.8303220
  H        1.3846280     1.9832890    -0.8299950
  H       -5.0126890     0.9989950    -0.1140710
  H       -5.0122110    -0.6453700    -0.7711930
  H       -4.9781370    -0.3905110     0.9770230
  H        3.8582660    -1.9961250     0.8126670
  H        3.8641780     1.9916920    -0.8044220
  H        5.1104020    -0.0032360     0.0061230
units angstrom
no_reorient  #important for SAPT in psi4, default
symmetry c1  #important for SAPT in psi4, default
}

set PROPERTIES_ORIGIN ["COM"]
properties('MP2/aug-cc-pvtz', properties = ['dipole'])
--------------------------------------------------------------------------

    Molecular point group: c1
  Charge       = 0
  Multiplicity = 1
  Basis Set: AUG-CC-PVTZ
    Blend: AUG-CC-PVTZ
  Basis Set: (AUG-CC-PVTZ AUX)
    Blend: AUG-CC-PVTZ-JKFIT

    Orbital Energies [Eh]
    ---------------------

    Doubly Occupied:

       1A    -11.245975     2A    -11.243615     3A    -11.242198
       4A    -11.240991     5A    -11.235104     6A    -11.235051
       7A    -11.234851     8A    -11.234625     9A    -11.231896
      10A    -11.231664    11A    -11.229225    12A    -11.225282
      13A    -11.208827    14A     -1.175368    15A     -1.149980
      16A     -1.074535    17A     -1.027729    18A     -1.012052
      19A     -0.995192    20A     -0.928634    21A     -0.848348
      22A     -0.827748    23A     -0.808548    24A     -0.776540
      25A     -0.713870    26A     -0.655956    27A     -0.648578
      28A     -0.640947    29A     -0.622318    30A     -0.615914
      31A     -0.594111    32A     -0.582116    33A     -0.575813
      34A     -0.558800    35A     -0.541758    36A     -0.518804
      37A     -0.514476    38A     -0.492044    39A     -0.486184
      40A     -0.482293    41A     -0.448466    42A     -0.376505
      43A     -0.336914    44A     -0.335335    45A     -0.295007

  @DF-RHF Final Energy:  -499.38777415731693

   => Energetics <=

    Nuclear Repulsion Energy =            689.6731312302268861
    One-Electron Energy =               -2042.7214398463470388
    Two-Electron Energy =                 853.6605344588033404
    Total Energy =                       -499.3877741573169260
  Basis Set: (AUG-CC-PVTZ AUX)
    Blend: AUG-CC-PVTZ-RI
    Molecular point group: c1

    Geometry (in Angstrom), charge = 0, multiplicity = 1:

       Center              X                  Y                   Z               Mass
    ------------   -----------------  -----------------  -----------------  -----------------
         C           -0.295435498230    -0.010716534966     0.003569927444    12.000000000000
         C            1.181583501770    -0.011504534966     0.005041927444    12.000000000000
         C           -3.129868498230    -0.005990534966    -0.008753072556    12.000000000000
         C           -1.014646498230    -1.125612534966    -0.453723072556    12.000000000000
         C           -1.014860498230     1.107233465034     0.452951927444    12.000000000000
         C           -2.408652498230    -1.121467534966    -0.453834072556    12.000000000000
         C           -2.408826498230     1.105710465034     0.445957927444    12.000000000000
         C            1.895202501770    -1.132558534966     0.457872927444    12.000000000000
         C            1.898489501770     1.108301465034    -0.445625072556    12.000000000000
         C           -4.635928498230    -0.019493534966     0.024786927444    12.000000000000
         C            3.290218501770    -1.134418534966     0.457243927444    12.000000000000
         C            3.293519501770     1.107710465034    -0.440673072556    12.000000000000
         C            3.893710501770     0.146663965034    -0.055021872556    12.000000000000
         H           -0.475097498230    -1.989703534966    -0.836927072556     1.007825032230
         H           -0.475610498230     1.972485465034     0.833972927444     1.007825032230
         H           -2.946437498230    -1.993128534966    -0.824592072556     1.007825032230
         H           -2.946826498230     1.983019465034     0.802870927444     1.007825032230
         H            1.349554501770    -1.995097534966     0.835287927444     1.007825032230
         H            1.355577501770     1.971673465034    -0.825029072556     1.007825032230
         H           -5.041739498230     0.987379465034    -0.109105072556     1.007825032230
         H           -5.041261498230    -0.656985534966    -0.766227072556     1.007825032230
         H           -5.007187498230    -0.402126534966     0.981988927444     1.007825032230
         H            3.829215501770    -2.007740534966     0.817632927444     1.007825032230
         H            3.835127501770     1.980076465034    -0.799456072556     1.007825032230
         H            5.081351501770    -0.014851534966     0.011088927444     1.007825032230

  Basis Set: AUG-CC-PVTZ
    Blend: AUG-CC-PVTZ
  Basis Set: (AUG-CC-PVTZ AUX)
    Blend: AUG-CC-PVTZ-JKFIT
	 Reference Energy          =    -499.3877741573169260 [Eh]
	 Singles Energy            =      -0.0000000000000000 [Eh]
	 Same-Spin Energy          =      -0.5649213328007079 [Eh]
	 Opposite-Spin Energy      =      -1.7811457469147585 [Eh]
	 Correlation Energy        =      -2.3460670797154664 [Eh]
	 Total Energy              =    -501.7338412370323795 [Eh]

	 ================> DF-SCS-MP2 Energies <==================
	-----------------------------------------------------------
	 SCS Same-Spin Scale       =       0.3333333333333333 [-]
	 SCS Opposite-Spin Scale   =       1.2000000000000000 [-]
	 SCS Same-Spin Energy      =      -0.1883071109335693 [Eh]
	 SCS Opposite-Spin Energy  =      -2.1373748962977102 [Eh]
	 SCS Correlation Energy    =      -2.3256820072312796 [Eh]
	 SCS Total Energy          =    -501.7134561645482336 [Eh]
	-----------------------------------------------------------

  Dipole Moment: [D]
     X:    -0.5358      Y:    -0.0424      Z:     0.0453     Total:     0.5394

*** Psi4 exiting successfully. Buy a developer a beer!
