                               Psi4 1.4a3.dev225

  ==> Input File <==

--------------------------------------------------------------------------
#psi4
#
memory 32 gb

molecule  {
0 1
  C       -0.2663850     0.0008990    -0.0013960
  C        1.2106340     0.0001110     0.0000760
  C       -3.1008180     0.0056250    -0.0137190
  C       -0.9855960    -1.1139970    -0.4586890
  C       -0.9858100     1.1188490     0.4479860
  C       -2.3796020    -1.1098520    -0.4588000
  C       -2.3797760     1.1173260     0.4409920
  C        1.9242530    -1.1209430     0.4529070
  C        1.9283047     1.0749231    -0.4319892
  C       -4.6068780    -0.0078780     0.0198210
  C        3.3192690    -1.1228030     0.4522780
  C        3.3225700     1.1193260    -0.4456390
  C        4.0230520    -0.0023100     0.0044540
  H       -0.4460470    -1.9780880    -0.8418930
  H       -0.4465600     1.9841010     0.8290070
  H       -2.9173870    -1.9815130    -0.8295580
  H       -2.9177760     1.9946350     0.7979050
  H        1.3786050    -1.9834820     0.8303220
  H        1.3846280     1.9832890    -0.8299950
  H       -5.0126890     0.9989950    -0.1140710
  H       -5.0122110    -0.6453700    -0.7711930
  H       -4.9781370    -0.3905110     0.9770230
  H        3.8582660    -1.9961250     0.8126670
  H        3.8641780     1.9916920    -0.8044220
  H        5.1104020    -0.0032360     0.0061230
units angstrom
no_reorient  #important for SAPT in psi4, default
symmetry c1  #important for SAPT in psi4, default
}

set PROPERTIES_ORIGIN ["COM"]
properties('MP2/aug-cc-pvtz', properties = ['dipole'])
--------------------------------------------------------------------------

    Molecular point group: c1
  Charge       = 0
  Multiplicity = 1
  Basis Set: AUG-CC-PVTZ
    Blend: AUG-CC-PVTZ
  Basis Set: (AUG-CC-PVTZ AUX)
    Blend: AUG-CC-PVTZ-JKFIT

    Orbital Energies [Eh]
    ---------------------

    Doubly Occupied:

       1A    -11.242589     2A    -11.241545     3A    -11.240006
       4A    -11.236813     5A    -11.236253     6A    -11.235383
       7A    -11.235160     8A    -11.234716     9A    -11.234267
      10A    -11.233297    11A    -11.232032    12A    -11.231945
      13A    -11.225473    14A     -1.170736    15A     -1.143309
      16A     -1.066036    17A     -1.016262    18A     -1.008263
      19A     -1.006853    20A     -0.929376    21A     -0.841544
      22A     -0.832070    23A     -0.811387    24A     -0.780390
      25A     -0.712389    26A     -0.663798    27A     -0.646695
      28A     -0.641168    29A     -0.617284    30A     -0.612068
      31A     -0.585226    32A     -0.578795    33A     -0.575660
      34A     -0.571771    35A     -0.541519    36A     -0.512441
      37A     -0.510588    38A     -0.496240    39A     -0.482773
      40A     -0.482416    41A     -0.475652    42A     -0.360967
      43A     -0.337111    44A     -0.335430    45A     -0.298117

  @DF-RHF Final Energy:  -499.44738325552635

   => Energetics <=

    Nuclear Repulsion Energy =            688.1498878690099446
    One-Electron Energy =               -2039.7869142638592166
    Two-Electron Energy =                 852.1896431393229250
    Total Energy =                       -499.4473832555263471
  Basis Set: (AUG-CC-PVTZ AUX)
    Blend: AUG-CC-PVTZ-RI
    Molecular point group: c1

    Geometry (in Angstrom), charge = 0, multiplicity = 1:

       Center              X                  Y                   Z               Mass
    ------------   -----------------  -----------------  -----------------  -----------------
         C           -0.302649730259     0.003959790554    -0.002358444720    12.000000000000
         C            1.174369269741     0.003171790554    -0.000886444720    12.000000000000
         C           -3.137082730259     0.008685790554    -0.014681444720    12.000000000000
         C           -1.021860730259    -1.110936209446    -0.459651444720    12.000000000000
         C           -1.022074730259     1.121909790554     0.447023555280    12.000000000000
         C           -2.415866730259    -1.106791209446    -0.459762444720    12.000000000000
         C           -2.416040730259     1.120386790554     0.440029555280    12.000000000000
         C            1.887988269741    -1.117882209446     0.451944555280    12.000000000000
         C            1.892039969741     1.077983890554    -0.432951644720    12.000000000000
         C           -4.643142730259    -0.004817209446     0.018858555280    12.000000000000
         C            3.283004269741    -1.119742209446     0.451315555280    12.000000000000
         C            3.286305269741     1.122386790554    -0.446601444720    12.000000000000
         C            3.986787269741     0.000750790554     0.003491555280    12.000000000000
         H           -0.482311730259    -1.975027209446    -0.842855444720     1.007825032230
         H           -0.482824730259     1.987161790554     0.828044555280     1.007825032230
         H           -2.953651730259    -1.978452209446    -0.830520444720     1.007825032230
         H           -2.954040730259     1.997695790554     0.796942555280     1.007825032230
         H            1.342340269741    -1.980421209446     0.829359555280     1.007825032230
         H            1.348363269741     1.986349790554    -0.830957444720     1.007825032230
         H           -5.048953730259     1.002055790554    -0.115033444720     1.007825032230
         H           -5.048475730259    -0.642309209446    -0.772155444720     1.007825032230
         H           -5.014401730259    -0.387450209446     0.976060555280     1.007825032230
         H            3.822001269741    -1.993064209446     0.811704555280     1.007825032230
         H            3.827913269741     1.994752790554    -0.805384444720     1.007825032230
         H            5.074137269741    -0.000175209446     0.005160555280     1.007825032230

  Basis Set: AUG-CC-PVTZ
    Blend: AUG-CC-PVTZ
  Basis Set: (AUG-CC-PVTZ AUX)
    Blend: AUG-CC-PVTZ-JKFIT
	 Reference Energy          =    -499.4473832555263471 [Eh]
	 Singles Energy            =      -0.0000000000000000 [Eh]
	 Same-Spin Energy          =      -0.5654228651818782 [Eh]
	 Opposite-Spin Energy      =      -1.7796145925130820 [Eh]
	 Correlation Energy        =      -2.3450374576949602 [Eh]
	 Total Energy              =    -501.7924207132213041 [Eh]

	 ================> DF-SCS-MP2 Energies <==================
	-----------------------------------------------------------
	 SCS Same-Spin Scale       =       0.3333333333333333 [-]
	 SCS Opposite-Spin Scale   =       1.2000000000000000 [-]
	 SCS Same-Spin Energy      =      -0.1884742883939594 [Eh]
	 SCS Opposite-Spin Energy  =      -2.1355375110156984 [Eh]
	 SCS Correlation Energy    =      -2.3240117994096576 [Eh]
	 SCS Total Energy          =    -501.7713950549360220 [Eh]
	-----------------------------------------------------------

  Dipole Moment: [D]
     X:    -0.4729      Y:    -0.0183      Z:     0.0421     Total:     0.4751

*** Psi4 exiting successfully. Buy a developer a beer!
