                               Psi4 1.4a3.dev225

  ==> Input File <==

--------------------------------------------------------------------------
#psi4
#
memory 32 gb

molecule  {
0 1
  C       -0.2663850     0.0008990    -0.0013960
  C        1.2106340     0.0001110     0.0000760
  C       -3.1008180     0.0056250    -0.0137190
  C       -0.9855960    -1.1139970    -0.4586890
  C       -0.9858100     1.1188490     0.4479860
  C       -2.3796020    -1.1098520    -0.4588000
  C       -2.3797760     1.1173260     0.4409920
  C        1.9242530    -1.1209430     0.4529070
  C        1.9275400     1.1199170    -0.4505910
  C       -4.6068780    -0.0078780     0.0198210
  C        3.4051563    -1.1656144     0.4695230
  C        3.3225700     1.1193260    -0.4456390
  C        4.0230520    -0.0023100     0.0044540
  H       -0.4460470    -1.9780880    -0.8418930
  H       -0.4465600     1.9841010     0.8290070
  H       -2.9173870    -1.9815130    -0.8295580
  H       -2.9177760     1.9946350     0.7979050
  H        1.3786050    -1.9834820     0.8303220
  H        1.3846280     1.9832890    -0.8299950
  H       -5.0126890     0.9989950    -0.1140710
  H       -5.0122110    -0.6453700    -0.7711930
  H       -4.9781370    -0.3905110     0.9770230
  H        3.8582660    -1.9961250     0.8126670
  H        3.8641780     1.9916920    -0.8044220
  H        5.1104020    -0.0032360     0.0061230
units angstrom
no_reorient  #important for SAPT in psi4, default
symmetry c1  #important for SAPT in psi4, default
}

set PROPERTIES_ORIGIN ["COM"]
properties('MP2/aug-cc-pvtz', properties = ['dipole'])
--------------------------------------------------------------------------

    Molecular point group: c1
  Charge       = 0
  Multiplicity = 1
  Basis Set: AUG-CC-PVTZ
    Blend: AUG-CC-PVTZ
  Basis Set: (AUG-CC-PVTZ AUX)
    Blend: AUG-CC-PVTZ-JKFIT

    Orbital Energies [Eh]
    ---------------------

    Doubly Occupied:

       1A    -11.245037     2A    -11.243451     3A    -11.242380
       4A    -11.241384     5A    -11.239642     6A    -11.237918
       7A    -11.236806     8A    -11.236126     9A    -11.235225
      10A    -11.234880    11A    -11.232000    12A    -11.231798
      13A    -11.225368    14A     -1.165773    15A     -1.137079
      16A     -1.065155    17A     -1.014525    18A     -1.007636
      19A     -1.001886    20A     -0.927810    21A     -0.845148
      22A     -0.829375    23A     -0.814975    24A     -0.780126
      25A     -0.713487    26A     -0.665141    27A     -0.649081
      28A     -0.644137    29A     -0.622607    30A     -0.610580
      31A     -0.587336    32A     -0.580980    33A     -0.576413
      34A     -0.568005    35A     -0.541229    36A     -0.511806
      37A     -0.503702    38A     -0.503253    39A     -0.482049
      40A     -0.479803    41A     -0.473874    42A     -0.360870
      43A     -0.336522    44A     -0.328538    45A     -0.297247

  @DF-RHF Final Energy:  -499.43675034563614

   => Energetics <=

    Nuclear Repulsion Energy =            685.5844775150416126
    One-Electron Energy =               -2034.6261276044667738
    Two-Electron Energy =                 849.6048997437891330
    Total Energy =                       -499.4367503456361419
  Basis Set: (AUG-CC-PVTZ AUX)
    Blend: AUG-CC-PVTZ-RI
    Molecular point group: c1

    Geometry (in Angstrom), charge = 0, multiplicity = 1:

       Center              X                  Y                   Z               Mass
    ------------   -----------------  -----------------  -----------------  -----------------
         C           -0.308726519468     0.003803984782    -0.002261584572    12.000000000000
         C            1.168292480532     0.003015984782    -0.000789584572    12.000000000000
         C           -3.143159519468     0.008529984782    -0.014584584572    12.000000000000
         C           -1.027937519468    -1.111092015218    -0.459554584572    12.000000000000
         C           -1.028151519468     1.121753984782     0.447120415428    12.000000000000
         C           -2.421943519468    -1.106947015218    -0.459665584572    12.000000000000
         C           -2.422117519468     1.120230984782     0.440126415428    12.000000000000
         C            1.881911480532    -1.118038015218     0.452041415428    12.000000000000
         C            1.885198480532     1.122821984782    -0.451456584572    12.000000000000
         C           -4.649219519468    -0.004973015218     0.018955415428    12.000000000000
         C            3.362814780532    -1.162709415218     0.468657415428    12.000000000000
         C            3.280228480532     1.122230984782    -0.446504584572    12.000000000000
         C            3.980710480532     0.000594984782     0.003588415428    12.000000000000
         H           -0.488388519468    -1.975183015218    -0.842758584572     1.007825032230
         H           -0.488901519468     1.987005984782     0.828141415428     1.007825032230
         H           -2.959728519468    -1.978608015218    -0.830423584572     1.007825032230
         H           -2.960117519468     1.997539984782     0.797039415428     1.007825032230
         H            1.336263480532    -1.980577015218     0.829456415428     1.007825032230
         H            1.342286480532     1.986193984782    -0.830860584572     1.007825032230
         H           -5.055030519468     1.001899984782    -0.114936584572     1.007825032230
         H           -5.054552519468    -0.642465015218    -0.772058584572     1.007825032230
         H           -5.020478519468    -0.387606015218     0.976157415428     1.007825032230
         H            3.815924480532    -1.993220015218     0.811801415428     1.007825032230
         H            3.821836480532     1.994596984782    -0.805287584572     1.007825032230
         H            5.068060480532    -0.000331015218     0.005257415428     1.007825032230

  Basis Set: AUG-CC-PVTZ
    Blend: AUG-CC-PVTZ
  Basis Set: (AUG-CC-PVTZ AUX)
    Blend: AUG-CC-PVTZ-JKFIT
	 Reference Energy          =    -499.4367503456361419 [Eh]
	 Singles Energy            =      -0.0000000000000000 [Eh]
	 Same-Spin Energy          =      -0.5654086161078903 [Eh]
	 Opposite-Spin Energy      =      -1.7808162617728827 [Eh]
	 Correlation Energy        =      -2.3462248778807728 [Eh]
	 Total Energy              =    -501.7829752235169281 [Eh]

	 ================> DF-SCS-MP2 Energies <==================
	-----------------------------------------------------------
	 SCS Same-Spin Scale       =       0.3333333333333333 [-]
	 SCS Opposite-Spin Scale   =       1.2000000000000000 [-]
	 SCS Same-Spin Energy      =      -0.1884695387026301 [Eh]
	 SCS Opposite-Spin Energy  =      -2.1369795141274590 [Eh]
	 SCS Correlation Energy    =      -2.3254490528300891 [Eh]
	 SCS Total Energy          =    -501.7621993984662367 [Eh]
	-----------------------------------------------------------

  Dipole Moment: [D]
     X:    -0.4935      Y:    -0.0347      Z:     0.0453     Total:     0.4968

*** Psi4 exiting successfully. Buy a developer a beer!
