                               Psi4 1.4a3.dev225

  ==> Input File <==

--------------------------------------------------------------------------
#psi4
#
memory 32 gb

molecule  {
0 1
  C       -0.2663850     0.0008990    -0.0013960
  C        1.2106340     0.0001110     0.0000760
  C       -3.1008180     0.0056250    -0.0137190
  C       -0.9855960    -1.1139970    -0.4586890
  C       -0.9858100     1.1188490     0.4479860
  C       -2.3796020    -1.1098520    -0.4588000
  C       -2.3797760     1.1173260     0.4409920
  C        1.9242530    -1.1209430     0.4529070
  C        1.9275400     1.1199170    -0.4505910
  C       -4.6068780    -0.0078780     0.0198210
  C        3.3192690    -1.1228030     0.4522780
  C        3.3225700     1.1193260    -0.4456390
  C        4.0230520    -0.0023100     0.0044540
  H       -0.4559615    -1.9622098    -0.8348514
  H       -0.4465600     1.9841010     0.8290070
  H       -2.9173870    -1.9815130    -0.8295580
  H       -2.9177760     1.9946350     0.7979050
  H        1.3786050    -1.9834820     0.8303220
  H        1.3846280     1.9832890    -0.8299950
  H       -5.0126890     0.9989950    -0.1140710
  H       -5.0122110    -0.6453700    -0.7711930
  H       -4.9781370    -0.3905110     0.9770230
  H        3.8582660    -1.9961250     0.8126670
  H        3.8641780     1.9916920    -0.8044220
  H        5.1104020    -0.0032360     0.0061230
units angstrom
no_reorient  #important for SAPT in psi4, default
symmetry c1  #important for SAPT in psi4, default
}

set PROPERTIES_ORIGIN ["COM"]
properties('MP2/aug-cc-pvtz', properties = ['dipole'])
--------------------------------------------------------------------------

    Molecular point group: c1
  Charge       = 0
  Multiplicity = 1
  Basis Set: AUG-CC-PVTZ
    Blend: AUG-CC-PVTZ
  Basis Set: (AUG-CC-PVTZ AUX)
    Blend: AUG-CC-PVTZ-JKFIT

    Orbital Energies [Eh]
    ---------------------

    Doubly Occupied:

       1A    -11.244948     2A    -11.242456     3A    -11.240996
       4A    -11.237187     5A    -11.236940     6A    -11.235107
       7A    -11.234535     8A    -11.234358     9A    -11.234133
      10A    -11.233115    11A    -11.231996    12A    -11.231653
      13A    -11.225420    14A     -1.168061    15A     -1.141304
      16A     -1.065270    17A     -1.017087    18A     -1.008960
      19A     -1.004206    20A     -0.928804    21A     -0.841246
      22A     -0.833116    23A     -0.811970    24A     -0.779884
      25A     -0.712029    26A     -0.666339    27A     -0.645882
      28A     -0.643552    29A     -0.614282    30A     -0.613481
      31A     -0.588091    32A     -0.580771    33A     -0.576274
      34A     -0.570913    35A     -0.541318    36A     -0.512835
      37A     -0.508690    38A     -0.498123    39A     -0.481959
      40A     -0.480829    41A     -0.479451    42A     -0.359030
      43A     -0.337470    44A     -0.335756    45A     -0.296039

  @DF-RHF Final Energy:  -499.45020151103728

   => Energetics <=

    Nuclear Repulsion Energy =            687.4366576948013972
    One-Electron Energy =               -2038.3619894990499688
    Two-Electron Energy =                 851.4751302932113504
    Total Energy =                       -499.4502015110372213
  Basis Set: (AUG-CC-PVTZ AUX)
    Blend: AUG-CC-PVTZ-RI
    Molecular point group: c1

    Geometry (in Angstrom), charge = 0, multiplicity = 1:

       Center              X                  Y                   Z               Mass
    ------------   -----------------  -----------------  -----------------  -----------------
         C           -0.302535695893     0.000652536418    -0.001072705626    12.000000000000
         C            1.174483304107    -0.000135463582     0.000399294374    12.000000000000
         C           -3.136968695893     0.005378536418    -0.013395705626    12.000000000000
         C           -1.021746695893    -1.114243463582    -0.458365705626    12.000000000000
         C           -1.021960695893     1.118602536418     0.448309294374    12.000000000000
         C           -2.415752695893    -1.110098463582    -0.458476705626    12.000000000000
         C           -2.415926695893     1.117079536418     0.441315294374    12.000000000000
         C            1.888102304107    -1.121189463582     0.453230294374    12.000000000000
         C            1.891389304107     1.119670536418    -0.450267705626    12.000000000000
         C           -4.643028695893    -0.008124463582     0.020144294374    12.000000000000
         C            3.283118304107    -1.123049463582     0.452601294374    12.000000000000
         C            3.286419304107     1.119079536418    -0.445315705626    12.000000000000
         C            3.986901304107    -0.002556463582     0.004777294374    12.000000000000
         H           -0.492112195893    -1.962456263582    -0.834528105626     1.007825032230
         H           -0.482710695893     1.983854536418     0.829330294374     1.007825032230
         H           -2.953537695893    -1.981759463582    -0.829234705626     1.007825032230
         H           -2.953926695893     1.994388536418     0.798228294374     1.007825032230
         H            1.342454304107    -1.983728463582     0.830645294374     1.007825032230
         H            1.348477304107     1.983042536418    -0.829671705626     1.007825032230
         H           -5.048839695893     0.998748536418    -0.113747705626     1.007825032230
         H           -5.048361695893    -0.645616463582    -0.770869705626     1.007825032230
         H           -5.014287695893    -0.390757463582     0.977346294374     1.007825032230
         H            3.822115304107    -1.996371463582     0.812990294374     1.007825032230
         H            3.828027304107     1.991445536418    -0.804098705626     1.007825032230
         H            5.074251304107    -0.003482463582     0.006446294374     1.007825032230

  Basis Set: AUG-CC-PVTZ
    Blend: AUG-CC-PVTZ
  Basis Set: (AUG-CC-PVTZ AUX)
    Blend: AUG-CC-PVTZ-JKFIT
	 Reference Energy          =    -499.4502015110372781 [Eh]
	 Singles Energy            =      -0.0000000000000000 [Eh]
	 Same-Spin Energy          =      -0.5653206701574299 [Eh]
	 Opposite-Spin Energy      =      -1.7794389159329547 [Eh]
	 Correlation Energy        =      -2.3447595860903845 [Eh]
	 Total Energy              =    -501.7949610971276684 [Eh]

	 ================> DF-SCS-MP2 Energies <==================
	-----------------------------------------------------------
	 SCS Same-Spin Scale       =       0.3333333333333333 [-]
	 SCS Opposite-Spin Scale   =       1.2000000000000000 [-]
	 SCS Same-Spin Energy      =      -0.1884402233858100 [Eh]
	 SCS Opposite-Spin Energy  =      -2.1353266991195454 [Eh]
	 SCS Correlation Energy    =      -2.3237669225053552 [Eh]
	 SCS Total Energy          =    -501.7739684335426205 [Eh]
	-----------------------------------------------------------

  Dipole Moment: [D]
     X:    -0.4798      Y:    -0.0182      Z:     0.0347     Total:     0.4814

*** Psi4 exiting successfully. Buy a developer a beer!
