                               Psi4 1.4a3.dev225

  ==> Input File <==

--------------------------------------------------------------------------
#psi4
#
memory 32 gb

molecule  {
0 1
  C       -0.2663850     0.0008990    -0.0013960
  C        1.2106340     0.0001110     0.0000760
  C       -3.1008180     0.0056250    -0.0137190
  C       -0.9855960    -1.1139970    -0.4586890
  C       -0.9858100     1.1188490     0.4479860
  C       -2.3796020    -1.1098520    -0.4588000
  C       -2.3797760     1.1173260     0.4409920
  C        1.9242530    -1.1209430     0.4529070
  C        1.9275400     1.1199170    -0.4505910
  C       -4.6068780    -0.0078780     0.0198210
  C        3.3192690    -1.1228030     0.4522780
  C        3.3225700     1.1193260    -0.4456390
  C        4.0230520    -0.0023100     0.0044540
  H       -0.4460470    -1.9780880    -0.8418930
  H       -0.4465600     1.9841010     0.8290070
  H       -2.9173870    -1.9815130    -0.8295580
  H       -2.9177760     1.9946350     0.7979050
  H        1.3786050    -1.9834820     0.8303220
  H        1.3846280     1.9832890    -0.8299950
  H       -5.0126890     0.9989950    -0.1140710
  H       -5.0122110    -0.6453700    -0.7711930
  H       -4.9781370    -0.3905110     0.9770230
  H        3.8582660    -1.9961250     0.8126670
  H        3.9139720     2.0718950    -0.8374075
  H        5.1104020    -0.0032360     0.0061230
units angstrom
no_reorient  #important for SAPT in psi4, default
symmetry c1  #important for SAPT in psi4, default
}

set PROPERTIES_ORIGIN ["COM"]
properties('MP2/aug-cc-pvtz', properties = ['dipole'])
--------------------------------------------------------------------------

    Molecular point group: c1
  Charge       = 0
  Multiplicity = 1
  Basis Set: AUG-CC-PVTZ
    Blend: AUG-CC-PVTZ
  Basis Set: (AUG-CC-PVTZ AUX)
    Blend: AUG-CC-PVTZ-JKFIT

    Orbital Energies [Eh]
    ---------------------

    Doubly Occupied:

       1A    -11.248143     2A    -11.245688     3A    -11.242843
       4A    -11.241570     5A    -11.237806     6A    -11.235598
       7A    -11.235512     8A    -11.235468     9A    -11.235446
      10A    -11.234730    11A    -11.232313    12A    -11.232242
      13A    -11.225668    14A     -1.168371    15A     -1.141491
      16A     -1.065326    17A     -1.016219    18A     -1.008053
      19A     -1.004054    20A     -0.929161    21A     -0.839571
      22A     -0.832666    23A     -0.809514    24A     -0.778128
      25A     -0.708701    26A     -0.666393    27A     -0.646283
      28A     -0.639682    29A     -0.614041    30A     -0.609392
      31A     -0.585079    32A     -0.577007    33A     -0.576060
      34A     -0.570723    35A     -0.541489    36A     -0.512705
      37A     -0.509058    38A     -0.495291    39A     -0.482334
      40A     -0.480866    41A     -0.476953    42A     -0.359560
      43A     -0.337948    44A     -0.336189    45A     -0.296524

  @DF-RHF Final Energy:  -499.44267760593164

   => Energetics <=

    Nuclear Repulsion Energy =            686.8445925506855474
    One-Electron Energy =               -2037.1788207609527035
    Two-Electron Energy =                 850.8915506043355208
    Total Energy =                       -499.4426776059316353
  Basis Set: (AUG-CC-PVTZ AUX)
    Blend: AUG-CC-PVTZ-RI
    Molecular point group: c1

    Geometry (in Angstrom), charge = 0, multiplicity = 1:

       Center              X                  Y                   Z               Mass
    ------------   -----------------  -----------------  -----------------  -----------------
         C           -0.302893684617     0.000266870171    -0.000832718849    12.000000000000
         C            1.174125315383    -0.000521129829     0.000639281151    12.000000000000
         C           -3.137326684617     0.004992870171    -0.013155718849    12.000000000000
         C           -1.022104684617    -1.114629129829    -0.458125718849    12.000000000000
         C           -1.022318684617     1.118216870171     0.448549281151    12.000000000000
         C           -2.416110684617    -1.110484129829    -0.458236718849    12.000000000000
         C           -2.416284684617     1.116693870171     0.441555281151    12.000000000000
         C            1.887744315383    -1.121575129829     0.453470281151    12.000000000000
         C            1.891031315383     1.119284870171    -0.450027718849    12.000000000000
         C           -4.643386684617    -0.008510129829     0.020384281151    12.000000000000
         C            3.282760315383    -1.123435129829     0.452841281151    12.000000000000
         C            3.286061315383     1.118693870171    -0.445075718849    12.000000000000
         C            3.986543315383    -0.002942129829     0.005017281151    12.000000000000
         H           -0.482555684617    -1.978720129829    -0.841329718849     1.007825032230
         H           -0.483068684617     1.983468870171     0.829570281151     1.007825032230
         H           -2.953895684617    -1.982145129829    -0.828994718849     1.007825032230
         H           -2.954284684617     1.994002870171     0.798468281151     1.007825032230
         H            1.342096315383    -1.984114129829     0.830885281151     1.007825032230
         H            1.348119315383     1.982656870171    -0.829431718849     1.007825032230
         H           -5.049197684617     0.998362870171    -0.113507718849     1.007825032230
         H           -5.048719684617    -0.646002129829    -0.770629718849     1.007825032230
         H           -5.014645684617    -0.391143129829     0.977586281151     1.007825032230
         H            3.821757315383    -1.996757129829     0.813230281151     1.007825032230
         H            3.877463315383     2.071262870171    -0.836844218849     1.007825032230
         H            5.073893315383    -0.003868129829     0.006686281151     1.007825032230

  Basis Set: AUG-CC-PVTZ
    Blend: AUG-CC-PVTZ
  Basis Set: (AUG-CC-PVTZ AUX)
    Blend: AUG-CC-PVTZ-JKFIT
	 Reference Energy          =    -499.4426776059316353 [Eh]
	 Singles Energy            =      -0.0000000000000000 [Eh]
	 Same-Spin Energy          =      -0.5655869808574983 [Eh]
	 Opposite-Spin Energy      =      -1.7805370725464604 [Eh]
	 Correlation Energy        =      -2.3461240534039587 [Eh]
	 Total Energy              =    -501.7888016593356042 [Eh]

	 ================> DF-SCS-MP2 Energies <==================
	-----------------------------------------------------------
	 SCS Same-Spin Scale       =       0.3333333333333333 [-]
	 SCS Opposite-Spin Scale   =       1.2000000000000000 [-]
	 SCS Same-Spin Energy      =      -0.1885289936191661 [Eh]
	 SCS Opposite-Spin Energy  =      -2.1366444870557526 [Eh]
	 SCS Correlation Energy    =      -2.3251734806749185 [Eh]
	 SCS Total Energy          =    -501.7678510866065267 [Eh]
	-----------------------------------------------------------

  Dipole Moment: [D]
     X:    -0.5240      Y:    -0.0527      Z:     0.0527     Total:     0.5292

*** Psi4 exiting successfully. Buy a developer a beer!
