                               Psi4 1.4a3.dev225

  ==> Input File <==

--------------------------------------------------------------------------
#psi4
#
memory 32 gb

molecule  {
0 1
  C       -0.2663850     0.0008990    -0.0013960
  C        1.2106340     0.0001110     0.0000760
  C       -3.1008180     0.0056250    -0.0137190
  C       -0.9855960    -1.1139970    -0.4586890
  C       -0.9858100     1.1188490     0.4479860
  C       -2.3796020    -1.1098520    -0.4588000
  C       -2.3797760     1.1173260     0.4409920
  C        1.9242530    -1.1209430     0.4529070
  C        1.9275400     1.1199170    -0.4505910
  C       -4.6068780    -0.0078780     0.0198210
  C        3.4492556    -1.1849068     0.4773006
  C        3.3225700     1.1193260    -0.4456390
  C        4.0230520    -0.0023100     0.0044540
  H       -0.4460470    -1.9780880    -0.8418930
  H       -0.4465600     1.9841010     0.8290070
  H       -2.9173870    -1.9815130    -0.8295580
  H       -2.9177760     1.9946350     0.7979050
  H        1.3786050    -1.9834820     0.8303220
  H        1.3846280     1.9832890    -0.8299950
  H       -5.0126890     0.9989950    -0.1140710
  H       -5.0122110    -0.6453700    -0.7711930
  H       -4.9781370    -0.3905110     0.9770230
  H        3.8582660    -1.9961250     0.8126670
  H        3.8641780     1.9916920    -0.8044220
  H        5.1104020    -0.0032360     0.0061230
units angstrom
no_reorient  #important for SAPT in psi4, default
symmetry c1  #important for SAPT in psi4, default
}

set PROPERTIES_ORIGIN ["COM"]
properties('MP2/aug-cc-pvtz', properties = ['dipole'])
--------------------------------------------------------------------------

    Molecular point group: c1
  Charge       = 0
  Multiplicity = 1
  Basis Set: AUG-CC-PVTZ
    Blend: AUG-CC-PVTZ
  Basis Set: (AUG-CC-PVTZ AUX)
    Blend: AUG-CC-PVTZ-JKFIT

    Orbital Energies [Eh]
    ---------------------

    Doubly Occupied:

       1A    -11.247839     2A    -11.244693     3A    -11.242320
       4A    -11.241513     5A    -11.241276     6A    -11.238885
       7A    -11.238284     8A    -11.237085     9A    -11.235249
      10A    -11.234767    11A    -11.232005    12A    -11.231732
      13A    -11.225335    14A     -1.165116    15A     -1.135356
      16A     -1.065200    17A     -1.014224    18A     -1.008496
      19A     -0.999647    20A     -0.927344    21A     -0.848264
      22A     -0.828608    23A     -0.816009    24A     -0.780922
      25A     -0.714791    26A     -0.666343    27A     -0.653223
      28A     -0.643507    29A     -0.625682    30A     -0.609947
      31A     -0.586322    32A     -0.581151    33A     -0.576408
      34A     -0.566344    35A     -0.541243    36A     -0.514982
      37A     -0.503305    38A     -0.500616    39A     -0.482469
      40A     -0.478909    41A     -0.467861    42A     -0.361958
      43A     -0.336455    44A     -0.325268    45A     -0.297710

  @DF-RHF Final Energy:  -499.42094023638469

   => Energetics <=

    Nuclear Repulsion Energy =            684.7618364565804541
    One-Electron Energy =               -2032.9362315153546206
    Two-Electron Energy =                 848.7534548223895854
    Total Energy =                       -499.4209402363846948
  Basis Set: (AUG-CC-PVTZ AUX)
    Blend: AUG-CC-PVTZ-RI
    Molecular point group: c1

    Geometry (in Angstrom), charge = 0, multiplicity = 1:

       Center              X                  Y                   Z               Mass
    ------------   -----------------  -----------------  -----------------  -----------------
         C           -0.311874709847     0.005181243561    -0.002816817093    12.000000000000
         C            1.165144290153     0.004393243561    -0.001344817093    12.000000000000
         C           -3.146307709847     0.009907243561    -0.015139817093    12.000000000000
         C           -1.031085709847    -1.109714756439    -0.460109817093    12.000000000000
         C           -1.031299709847     1.123131243561     0.446565182907    12.000000000000
         C           -2.425091709847    -1.105569756439    -0.460220817093    12.000000000000
         C           -2.425265709847     1.121608243561     0.439571182907    12.000000000000
         C            1.878763290153    -1.116660756439     0.451486182907    12.000000000000
         C            1.882050290153     1.124199243561    -0.452011817093    12.000000000000
         C           -4.652367709847    -0.003595756439     0.018400182907    12.000000000000
         C            3.403765890153    -1.180624556439     0.475879782907    12.000000000000
         C            3.277080290153     1.123608243561    -0.447059817093    12.000000000000
         C            3.977562290153     0.001972243561     0.003033182907    12.000000000000
         H           -0.491536709847    -1.973805756439    -0.843313817093     1.007825032230
         H           -0.492049709847     1.988383243561     0.827586182907     1.007825032230
         H           -2.962876709847    -1.977230756439    -0.830978817093     1.007825032230
         H           -2.963265709847     1.998917243561     0.796484182907     1.007825032230
         H            1.333115290153    -1.979199756439     0.828901182907     1.007825032230
         H            1.339138290153     1.987571243561    -0.831415817093     1.007825032230
         H           -5.058178709847     1.003277243561    -0.115491817093     1.007825032230
         H           -5.057700709847    -0.641087756439    -0.772613817093     1.007825032230
         H           -5.023626709847    -0.386228756439     0.975602182907     1.007825032230
         H            3.812776290153    -1.991842756439     0.811246182907     1.007825032230
         H            3.818688290153     1.995974243561    -0.805842817093     1.007825032230
         H            5.064912290153     0.001046243561     0.004702182907     1.007825032230

  Basis Set: AUG-CC-PVTZ
    Blend: AUG-CC-PVTZ
  Basis Set: (AUG-CC-PVTZ AUX)
    Blend: AUG-CC-PVTZ-JKFIT
	 Reference Energy          =    -499.4209402363846948 [Eh]
	 Singles Energy            =      -0.0000000000000000 [Eh]
	 Same-Spin Energy          =      -0.5655217045315037 [Eh]
	 Opposite-Spin Energy      =      -1.7819302016627012 [Eh]
	 Correlation Energy        =      -2.3474519061942050 [Eh]
	 Total Energy              =    -501.7683921425788753 [Eh]

	 ================> DF-SCS-MP2 Energies <==================
	-----------------------------------------------------------
	 SCS Same-Spin Scale       =       0.3333333333333333 [-]
	 SCS Opposite-Spin Scale   =       1.2000000000000000 [-]
	 SCS Same-Spin Energy      =      -0.1885072348438346 [Eh]
	 SCS Opposite-Spin Energy  =      -2.1383162419952413 [Eh]
	 SCS Correlation Energy    =      -2.3268234768390759 [Eh]
	 SCS Total Energy          =    -501.7477637132237760 [Eh]
	-----------------------------------------------------------

  Dipole Moment: [D]
     X:    -0.5051      Y:    -0.0330      Z:     0.0446     Total:     0.5081

*** Psi4 exiting successfully. Buy a developer a beer!
