                               Psi4 1.4a3.dev225

  ==> Input File <==

--------------------------------------------------------------------------
#psi4
#
memory 32 gb

molecule  {
0 1
  C       -0.2663850     0.0008990    -0.0013960
  C        1.2106340     0.0001110     0.0000760
  C       -3.1008180     0.0056250    -0.0137190
  C       -0.9855960    -1.1139970    -0.4586890
  C       -0.9858100     1.1188490     0.4479860
  C       -2.3796020    -1.1098520    -0.4588000
  C       -2.2797773     1.1174353     0.4414937
  C        1.9242530    -1.1209430     0.4529070
  C        1.9275400     1.1199170    -0.4505910
  C       -4.6068780    -0.0078780     0.0198210
  C        3.3192690    -1.1228030     0.4522780
  C        3.3225700     1.1193260    -0.4456390
  C        4.0230520    -0.0023100     0.0044540
  H       -0.4460470    -1.9780880    -0.8418930
  H       -0.4465600     1.9841010     0.8290070
  H       -2.9173870    -1.9815130    -0.8295580
  H       -2.9177760     1.9946350     0.7979050
  H        1.3786050    -1.9834820     0.8303220
  H        1.3846280     1.9832890    -0.8299950
  H       -5.0126890     0.9989950    -0.1140710
  H       -5.0122110    -0.6453700    -0.7711930
  H       -4.9781370    -0.3905110     0.9770230
  H        3.8582660    -1.9961250     0.8126670
  H        3.8641780     1.9916920    -0.8044220
  H        5.1104020    -0.0032360     0.0061230
units angstrom
no_reorient  #important for SAPT in psi4, default
symmetry c1  #important for SAPT in psi4, default
}

set PROPERTIES_ORIGIN ["COM"]
properties('MP2/aug-cc-pvtz', properties = ['dipole'])
--------------------------------------------------------------------------

    Molecular point group: c1
  Charge       = 0
  Multiplicity = 1
  Basis Set: AUG-CC-PVTZ
    Blend: AUG-CC-PVTZ
  Basis Set: (AUG-CC-PVTZ AUX)
    Blend: AUG-CC-PVTZ-JKFIT

    Orbital Energies [Eh]
    ---------------------

    Doubly Occupied:

       1A    -11.247509     2A    -11.244615     3A    -11.240789
       4A    -11.236992     5A    -11.236699     6A    -11.234332
       7A    -11.234110     8A    -11.233835     9A    -11.233563
      10A    -11.231051    11A    -11.230536    12A    -11.228537
      13A    -11.222663    14A     -1.170991    15A     -1.142764
      16A     -1.061757    17A     -1.027624    18A     -1.012441
      19A     -1.003262    20A     -0.928670    21A     -0.837535
      22A     -0.832920    23A     -0.806023    24A     -0.782663
      25A     -0.711464    26A     -0.666812    27A     -0.649710
      28A     -0.640798    29A     -0.614562    30A     -0.608002
      31A     -0.587815    32A     -0.580751    33A     -0.576911
      34A     -0.567020    35A     -0.544369    36A     -0.517236
      37A     -0.510357    38A     -0.494720    39A     -0.485390
      40A     -0.484789    41A     -0.463989    42A     -0.356194
      43A     -0.349827    44A     -0.336452    45A     -0.290965

  @DF-RHF Final Energy:  -499.43617774561972

   => Energetics <=

    Nuclear Repulsion Energy =            688.3750873332938909
    One-Electron Energy =               -2040.2224984828706056
    Two-Electron Energy =                 852.4112334039568850
    Total Energy =                       -499.4361777456197160
  Basis Set: (AUG-CC-PVTZ AUX)
    Blend: AUG-CC-PVTZ-RI
    Molecular point group: c1

    Geometry (in Angstrom), charge = 0, multiplicity = 1:

       Center              X                  Y                   Z               Mass
    ------------   -----------------  -----------------  -----------------  -----------------
         C           -0.309733913547     0.000739933089    -0.001066302652    12.000000000000
         C            1.167285086453    -0.000048066911     0.000405697348    12.000000000000
         C           -3.144166913547     0.005465933089    -0.013389302652    12.000000000000
         C           -1.028944913547    -1.114156066911    -0.458359302652    12.000000000000
         C           -1.029158913547     1.118689933089     0.448315697348    12.000000000000
         C           -2.422950913547    -1.110011066911    -0.458470302652    12.000000000000
         C           -2.323126213547     1.117276233089     0.441823397348    12.000000000000
         C            1.880904086453    -1.121102066911     0.453236697348    12.000000000000
         C            1.884191086453     1.119757933089    -0.450261302652    12.000000000000
         C           -4.650226913547    -0.008037066911     0.020150697348    12.000000000000
         C            3.275920086453    -1.122962066911     0.452607697348    12.000000000000
         C            3.279221086453     1.119166933089    -0.445309302652    12.000000000000
         C            3.979703086453    -0.002469066911     0.004783697348    12.000000000000
         H           -0.489395913547    -1.978247066911    -0.841563302652     1.007825032230
         H           -0.489908913547     1.983941933089     0.829336697348     1.007825032230
         H           -2.960735913547    -1.981672066911    -0.829228302652     1.007825032230
         H           -2.961124913547     1.994475933089     0.798234697348     1.007825032230
         H            1.335256086453    -1.983641066911     0.830651697348     1.007825032230
         H            1.341279086453     1.983129933089    -0.829665302652     1.007825032230
         H           -5.056037913547     0.998835933089    -0.113741302652     1.007825032230
         H           -5.055559913547    -0.645529066911    -0.770863302652     1.007825032230
         H           -5.021485913547    -0.390670066911     0.977352697348     1.007825032230
         H            3.814917086453    -1.996284066911     0.812996697348     1.007825032230
         H            3.820829086453     1.991532933089    -0.804092302652     1.007825032230
         H            5.067053086453    -0.003395066911     0.006452697348     1.007825032230

  Basis Set: AUG-CC-PVTZ
    Blend: AUG-CC-PVTZ
  Basis Set: (AUG-CC-PVTZ AUX)
    Blend: AUG-CC-PVTZ-JKFIT
	 Reference Energy          =    -499.4361777456197160 [Eh]
	 Singles Energy            =      -0.0000000000000000 [Eh]
	 Same-Spin Energy          =      -0.5653311464624718 [Eh]
	 Opposite-Spin Energy      =      -1.7798697889787602 [Eh]
	 Correlation Energy        =      -2.3452009354412322 [Eh]
	 Total Energy              =    -501.7813786810609713 [Eh]

	 ================> DF-SCS-MP2 Energies <==================
	-----------------------------------------------------------
	 SCS Same-Spin Scale       =       0.3333333333333333 [-]
	 SCS Opposite-Spin Scale   =       1.2000000000000000 [-]
	 SCS Same-Spin Energy      =      -0.1884437154874906 [Eh]
	 SCS Opposite-Spin Energy  =      -2.1358437467745124 [Eh]
	 SCS Correlation Energy    =      -2.3242874622620029 [Eh]
	 SCS Total Energy          =    -501.7604652078817367 [Eh]
	-----------------------------------------------------------

  Dipole Moment: [D]
     X:    -0.5454      Y:    -0.0438      Z:     0.0255     Total:     0.5477

*** Psi4 exiting successfully. Buy a developer a beer!
