                               Psi4 1.4a3.dev225

  ==> Input File <==

--------------------------------------------------------------------------
#psi4
#
memory 32 gb

molecule  {
0 1
  C       -0.2663850     0.0008990    -0.0013960
  C        1.2106340     0.0001110     0.0000760
  C       -3.1008180     0.0056250    -0.0137190
  C       -0.9855960    -1.1139970    -0.4586890
  C       -0.9858100     1.1188490     0.4479860
  C       -2.3788834    -1.1543131    -0.4785553
  C       -2.3797760     1.1173260     0.4409920
  C        1.9242530    -1.1209430     0.4529070
  C        1.9275400     1.1199170    -0.4505910
  C       -4.6068780    -0.0078780     0.0198210
  C        3.3192690    -1.1228030     0.4522780
  C        3.3225700     1.1193260    -0.4456390
  C        4.0230520    -0.0023100     0.0044540
  H       -0.4460470    -1.9780880    -0.8418930
  H       -0.4465600     1.9841010     0.8290070
  H       -2.9173870    -1.9815130    -0.8295580
  H       -2.9177760     1.9946350     0.7979050
  H        1.3786050    -1.9834820     0.8303220
  H        1.3846280     1.9832890    -0.8299950
  H       -5.0126890     0.9989950    -0.1140710
  H       -5.0122110    -0.6453700    -0.7711930
  H       -4.9781370    -0.3905110     0.9770230
  H        3.8582660    -1.9961250     0.8126670
  H        3.8641780     1.9916920    -0.8044220
  H        5.1104020    -0.0032360     0.0061230
units angstrom
no_reorient  #important for SAPT in psi4, default
symmetry c1  #important for SAPT in psi4, default
}

set PROPERTIES_ORIGIN ["COM"]
properties('MP2/aug-cc-pvtz', properties = ['dipole'])
--------------------------------------------------------------------------

    Molecular point group: c1
  Charge       = 0
  Multiplicity = 1
  Basis Set: AUG-CC-PVTZ
    Blend: AUG-CC-PVTZ
  Basis Set: (AUG-CC-PVTZ AUX)
    Blend: AUG-CC-PVTZ-JKFIT

    Orbital Energies [Eh]
    ---------------------

    Doubly Occupied:

       1A    -11.247551     2A    -11.244999     3A    -11.241110
       4A    -11.236961     5A    -11.236716     6A    -11.236215
       7A    -11.235945     8A    -11.234288     9A    -11.234108
      10A    -11.233884    11A    -11.233157    12A    -11.231666
      13A    -11.225389    14A     -1.166473    15A     -1.138843
      16A     -1.063225    17A     -1.017312    18A     -1.009326
      19A     -1.003675    20A     -0.927826    21A     -0.841352
      22A     -0.830974    23A     -0.811618    24A     -0.779596
      25A     -0.712781    26A     -0.666959    27A     -0.645633
      28A     -0.641435    29A     -0.617367    30A     -0.612679
      31A     -0.588952    32A     -0.581798    33A     -0.575590
      34A     -0.570517    35A     -0.542924    36A     -0.511708
      37A     -0.508113    38A     -0.496930    39A     -0.484676
      40A     -0.479515    41A     -0.475710    42A     -0.357453
      43A     -0.337907    44A     -0.335986    45A     -0.293942

  @DF-RHF Final Energy:  -499.44658290470375

   => Energetics <=

    Nuclear Repulsion Energy =            686.5655569754195540
    One-Electron Energy =               -2036.6227155174160544
    Two-Electron Energy =                 850.6105756372928681
    Total Energy =                       -499.4465829047037460
  Basis Set: (AUG-CC-PVTZ AUX)
    Blend: AUG-CC-PVTZ-RI
    Molecular point group: c1

    Geometry (in Angstrom), charge = 0, multiplicity = 1:

       Center              X                  Y                   Z               Mass
    ------------   -----------------  -----------------  -----------------  -----------------
         C           -0.302646439241     0.003921754671     0.000379817638    12.000000000000
         C            1.174372560759     0.003133754671     0.001851817638    12.000000000000
         C           -3.137079439241     0.008647754671    -0.011943182362    12.000000000000
         C           -1.021857439241    -1.110974245329    -0.456913182362    12.000000000000
         C           -1.022071439241     1.121871754671     0.449761817638    12.000000000000
         C           -2.415144839241    -1.151290345329    -0.476779482362    12.000000000000
         C           -2.416037439241     1.120348754671     0.442767817638    12.000000000000
         C            1.887991560759    -1.117920245329     0.454682817638    12.000000000000
         C            1.891278560759     1.122939754671    -0.448815182362    12.000000000000
         C           -4.643139439241    -0.004855245329     0.021596817638    12.000000000000
         C            3.283007560759    -1.119780245329     0.454053817638    12.000000000000
         C            3.286308560759     1.122348754671    -0.443863182362    12.000000000000
         C            3.986790560759     0.000712754671     0.006229817638    12.000000000000
         H           -0.482308439241    -1.975065245329    -0.840117182362     1.007825032230
         H           -0.482821439241     1.987123754671     0.830782817638     1.007825032230
         H           -2.953648439241    -1.978490245329    -0.827782182362     1.007825032230
         H           -2.954037439241     1.997657754671     0.799680817638     1.007825032230
         H            1.342343560759    -1.980459245329     0.832097817638     1.007825032230
         H            1.348366560759     1.986311754671    -0.828219182362     1.007825032230
         H           -5.048950439241     1.002017754671    -0.112295182362     1.007825032230
         H           -5.048472439241    -0.642347245329    -0.769417182362     1.007825032230
         H           -5.014398439241    -0.387488245329     0.978798817638     1.007825032230
         H            3.822004560759    -1.993102245329     0.814442817638     1.007825032230
         H            3.827916560759     1.994714754671    -0.802646182362     1.007825032230
         H            5.074140560759    -0.000213245329     0.007898817638     1.007825032230

  Basis Set: AUG-CC-PVTZ
    Blend: AUG-CC-PVTZ
  Basis Set: (AUG-CC-PVTZ AUX)
    Blend: AUG-CC-PVTZ-JKFIT
	 Reference Energy          =    -499.4465829047037460 [Eh]
	 Singles Energy            =      -0.0000000000000000 [Eh]
	 Same-Spin Energy          =      -0.5653484016287728 [Eh]
	 Opposite-Spin Energy      =      -1.7799157131265548 [Eh]
	 Correlation Energy        =      -2.3452641147553277 [Eh]
	 Total Energy              =    -501.7918470194590554 [Eh]

	 ================> DF-SCS-MP2 Energies <==================
	-----------------------------------------------------------
	 SCS Same-Spin Scale       =       0.3333333333333333 [-]
	 SCS Opposite-Spin Scale   =       1.2000000000000000 [-]
	 SCS Same-Spin Energy      =      -0.1884494672095909 [Eh]
	 SCS Opposite-Spin Energy  =      -2.1358988557518659 [Eh]
	 SCS Correlation Energy    =      -2.3243483229614568 [Eh]
	 SCS Total Energy          =    -501.7709312276651872 [Eh]
	-----------------------------------------------------------

  Dipole Moment: [D]
     X:    -0.5039      Y:    -0.0283      Z:     0.0338     Total:     0.5058

*** Psi4 exiting successfully. Buy a developer a beer!
