                               Psi4 1.4a3.dev225

  ==> Input File <==

--------------------------------------------------------------------------
#psi4
#
memory 32 gb

molecule  {
0 1
  C       -0.2663850     0.0008990    -0.0013960
  C        1.2106340     0.0001110     0.0000760
  C       -3.1008180     0.0056250    -0.0137190
  C       -0.9855960    -1.1139970    -0.4586890
  C       -0.9858100     1.1188490     0.4479860
  C       -2.3796020    -1.1098520    -0.4588000
  C       -2.3797760     1.1173260     0.4409920
  C        1.9242530    -1.1209430     0.4529070
  C        1.9275400     1.1199170    -0.4505910
  C       -4.6068780    -0.0078780     0.0198210
  C        3.3192690    -1.1228030     0.4522780
  C        3.3225700     1.1193260    -0.4456390
  C        4.0230520    -0.0023100     0.0044540
  H       -0.4460470    -1.9780880    -0.8418930
  H       -0.4465600     1.9841010     0.8290070
  H       -2.9173870    -1.9815130    -0.8295580
  H       -2.9177760     1.9946350     0.7979050
  H        1.4788909    -1.8249540     0.7609561
  H        1.3846280     1.9832890    -0.8299950
  H       -5.0126890     0.9989950    -0.1140710
  H       -5.0122110    -0.6453700    -0.7711930
  H       -4.9781370    -0.3905110     0.9770230
  H        3.8582660    -1.9961250     0.8126670
  H        3.8641780     1.9916920    -0.8044220
  H        5.1104020    -0.0032360     0.0061230
units angstrom
no_reorient  #important for SAPT in psi4, default
symmetry c1  #important for SAPT in psi4, default
}

set PROPERTIES_ORIGIN ["COM"]
properties('MP2/aug-cc-pvtz', properties = ['dipole'])
--------------------------------------------------------------------------

    Molecular point group: c1
  Charge       = 0
  Multiplicity = 1
  Basis Set: AUG-CC-PVTZ
    Blend: AUG-CC-PVTZ
  Basis Set: (AUG-CC-PVTZ AUX)
    Blend: AUG-CC-PVTZ-JKFIT

    Orbital Energies [Eh]
    ---------------------

    Doubly Occupied:

       1A    -11.243531     2A    -11.242786     3A    -11.241299
       4A    -11.236552     5A    -11.235679     6A    -11.235632
       7A    -11.235350     8A    -11.233304     9A    -11.233049
      10A    -11.232351    11A    -11.232277    12A    -11.225644
      13A    -11.210547    14A     -1.168931    15A     -1.141902
      16A     -1.065242    17A     -1.023537    18A     -1.010993
      19A     -1.004352    20A     -0.930045    21A     -0.849586
      22A     -0.834675    23A     -0.817691    24A     -0.780479
      25A     -0.720673    26A     -0.678134    27A     -0.646103
      28A     -0.644261    29A     -0.620155    30A     -0.612918
      31A     -0.593296    32A     -0.581803    33A     -0.576430
      34A     -0.571542    35A     -0.541506    36A     -0.515160
      37A     -0.509251    38A     -0.500682    39A     -0.482201
      40A     -0.481024    41A     -0.479872    42A     -0.358630
      43A     -0.337438    44A     -0.335548    45A     -0.295825

  @DF-RHF Final Energy:  -499.41585957427560

   => Energetics <=

    Nuclear Repulsion Energy =            688.4353472838572543
    One-Electron Energy =               -2040.2066398115921402
    Two-Electron Energy =                 852.3554329534592853
    Total Energy =                       -499.4158595742756006
  Basis Set: (AUG-CC-PVTZ AUX)
    Blend: AUG-CC-PVTZ-RI
    Molecular point group: c1

    Geometry (in Angstrom), charge = 0, multiplicity = 1:

       Center              X                  Y                   Z               Mass
    ------------   -----------------  -----------------  -----------------  -----------------
         C           -0.303196414226    -0.000202735778    -0.000614596253    12.000000000000
         C            1.173822585774    -0.000990735778     0.000857403747    12.000000000000
         C           -3.137629414226     0.004523264222    -0.012937596253    12.000000000000
         C           -1.022407414226    -1.115098735778    -0.457907596253    12.000000000000
         C           -1.022621414226     1.117747264222     0.448767403747    12.000000000000
         C           -2.416413414226    -1.110953735778    -0.458018596253    12.000000000000
         C           -2.416587414226     1.116224264222     0.441773403747    12.000000000000
         C            1.887441585774    -1.122044735778     0.453688403747    12.000000000000
         C            1.890728585774     1.118815264222    -0.449809596253    12.000000000000
         C           -4.643689414226    -0.008979735778     0.020602403747    12.000000000000
         C            3.282457585774    -1.123904735778     0.453059403747    12.000000000000
         C            3.285758585774     1.118224264222    -0.444857596253    12.000000000000
         C            3.986240585774    -0.003411735778     0.005235403747    12.000000000000
         H           -0.482858414226    -1.979189735778    -0.841111596253     1.007825032230
         H           -0.483371414226     1.982999264222     0.829788403747     1.007825032230
         H           -2.954198414226    -1.982614735778    -0.828776596253     1.007825032230
         H           -2.954587414226     1.993533264222     0.798686403747     1.007825032230
         H            1.442079485774    -1.826055735778     0.761737503747     1.007825032230
         H            1.347816585774     1.982187264222    -0.829213596253     1.007825032230
         H           -5.049500414226     0.997893264222    -0.113289596253     1.007825032230
         H           -5.049022414226    -0.646471735778    -0.770411596253     1.007825032230
         H           -5.014948414226    -0.391612735778     0.977804403747     1.007825032230
         H            3.821454585774    -1.997226735778     0.813448403747     1.007825032230
         H            3.827366585774     1.990590264222    -0.803640596253     1.007825032230
         H            5.073590585774    -0.004337735778     0.006904403747     1.007825032230

  Basis Set: AUG-CC-PVTZ
    Blend: AUG-CC-PVTZ
  Basis Set: (AUG-CC-PVTZ AUX)
    Blend: AUG-CC-PVTZ-JKFIT
	 Reference Energy          =    -499.4158595742756006 [Eh]
	 Singles Energy            =      -0.0000000000000000 [Eh]
	 Same-Spin Energy          =      -0.5650147601936846 [Eh]
	 Opposite-Spin Energy      =      -1.7788902809149181 [Eh]
	 Correlation Energy        =      -2.3439050411086026 [Eh]
	 Total Energy              =    -501.7597646153841993 [Eh]

	 ================> DF-SCS-MP2 Energies <==================
	-----------------------------------------------------------
	 SCS Same-Spin Scale       =       0.3333333333333333 [-]
	 SCS Opposite-Spin Scale   =       1.2000000000000000 [-]
	 SCS Same-Spin Energy      =      -0.1883382533978948 [Eh]
	 SCS Opposite-Spin Energy  =      -2.1346683370979016 [Eh]
	 SCS Correlation Energy    =      -2.3230065904957966 [Eh]
	 SCS Total Energy          =    -501.7388661647714230 [Eh]
	-----------------------------------------------------------

  Dipole Moment: [D]
     X:    -0.5128      Y:    -0.0360      Z:     0.0472     Total:     0.5162

*** Psi4 exiting successfully. Buy a developer a beer!
