                               Psi4 1.4a3.dev225

  ==> Input File <==

--------------------------------------------------------------------------
#psi4
#
memory 32 gb

molecule  {
0 1
  C       -0.3088782     0.0234683     0.0077872
  C        1.2106340     0.0001110     0.0000760
  C       -3.1008180     0.0056250    -0.0137190
  C       -0.9855960    -1.1139970    -0.4586890
  C       -0.9858100     1.1188490     0.4479860
  C       -2.3796020    -1.1098520    -0.4588000
  C       -2.3797760     1.1173260     0.4409920
  C        1.9242530    -1.1209430     0.4529070
  C        1.9275400     1.1199170    -0.4505910
  C       -4.6068780    -0.0078780     0.0198210
  C        3.3192690    -1.1228030     0.4522780
  C        3.3225700     1.1193260    -0.4456390
  C        4.0230520    -0.0023100     0.0044540
  H       -0.4460470    -1.9780880    -0.8418930
  H       -0.4465600     1.9841010     0.8290070
  H       -2.9173870    -1.9815130    -0.8295580
  H       -2.9177760     1.9946350     0.7979050
  H        1.3786050    -1.9834820     0.8303220
  H        1.3846280     1.9832890    -0.8299950
  H       -5.0126890     0.9989950    -0.1140710
  H       -5.0122110    -0.6453700    -0.7711930
  H       -4.9781370    -0.3905110     0.9770230
  H        3.8582660    -1.9961250     0.8126670
  H        3.8641780     1.9916920    -0.8044220
  H        5.1104020    -0.0032360     0.0061230
units angstrom
no_reorient  #important for SAPT in psi4, default
symmetry c1  #important for SAPT in psi4, default
}

set PROPERTIES_ORIGIN ["COM"]
properties('MP2/aug-cc-pvtz', properties = ['dipole'])
--------------------------------------------------------------------------

    Molecular point group: c1
  Charge       = 0
  Multiplicity = 1
  Basis Set: AUG-CC-PVTZ
    Blend: AUG-CC-PVTZ
  Basis Set: (AUG-CC-PVTZ AUX)
    Blend: AUG-CC-PVTZ-JKFIT

    Orbital Energies [Eh]
    ---------------------

    Doubly Occupied:

       1A    -11.246418     2A    -11.242037     3A    -11.239597
       4A    -11.236681     5A    -11.236316     6A    -11.235265
       7A    -11.233968     8A    -11.233627     9A    -11.233241
      10A    -11.232459    11A    -11.232378    12A    -11.230161
      13A    -11.225387    14A     -1.168745    15A     -1.142221
      16A     -1.063591    17A     -1.017810    18A     -1.009572
      19A     -1.003729    20A     -0.928681    21A     -0.841436
      22A     -0.828822    23A     -0.812600    24A     -0.780503
      25A     -0.710627    26A     -0.665459    27A     -0.646394
      28A     -0.640749    29A     -0.614134    30A     -0.613220
      31A     -0.589782    32A     -0.581657    33A     -0.576202
      34A     -0.567004    35A     -0.541597    36A     -0.512665
      37A     -0.508717    38A     -0.497863    39A     -0.485332
      40A     -0.482663    41A     -0.472146    42A     -0.357449
      43A     -0.337787    44A     -0.335682    45A     -0.299755

  @DF-RHF Final Energy:  -499.44831784808707

   => Energetics <=

    Nuclear Repulsion Energy =            687.4115194972280278
    One-Electron Energy =               -2038.3354193635959746
    Two-Electron Energy =                 851.4755820182808748
    Total Energy =                       -499.4483178480870720
  Basis Set: (AUG-CC-PVTZ AUX)
    Blend: AUG-CC-PVTZ-RI
    Molecular point group: c1

    Geometry (in Angstrom), charge = 0, multiplicity = 1:

       Center              X                  Y                   Z               Mass
    ------------   -----------------  -----------------  -----------------  -----------------
         C           -0.342054806307     0.021705843559     0.007497136608    12.000000000000
         C            1.177457393693    -0.001651456441    -0.000214063392    12.000000000000
         C           -3.133994606307     0.003862543559    -0.014009063392    12.000000000000
         C           -1.018772606307    -1.115759456441    -0.458979063392    12.000000000000
         C           -1.018986606307     1.117086543559     0.447695936608    12.000000000000
         C           -2.412778606307    -1.111614456441    -0.459090063392    12.000000000000
         C           -2.412952606307     1.115563543559     0.440701936608    12.000000000000
         C            1.891076393693    -1.122705456441     0.452616936608    12.000000000000
         C            1.894363393693     1.118154543559    -0.450881063392    12.000000000000
         C           -4.640054606307    -0.009640456441     0.019530936608    12.000000000000
         C            3.286092393693    -1.124565456441     0.451987936608    12.000000000000
         C            3.289393393693     1.117563543559    -0.445929063392    12.000000000000
         C            3.989875393693    -0.004072456441     0.004163936608    12.000000000000
         H           -0.479223606307    -1.979850456441    -0.842183063392     1.007825032230
         H           -0.479736606307     1.982338543559     0.828716936608     1.007825032230
         H           -2.950563606307    -1.983275456441    -0.829848063392     1.007825032230
         H           -2.950952606307     1.992872543559     0.797614936608     1.007825032230
         H            1.345428393693    -1.985244456441     0.830031936608     1.007825032230
         H            1.351451393693     1.981526543559    -0.830285063392     1.007825032230
         H           -5.045865606307     0.997232543559    -0.114361063392     1.007825032230
         H           -5.045387606307    -0.647132456441    -0.771483063392     1.007825032230
         H           -5.011313606307    -0.392273456441     0.976732936608     1.007825032230
         H            3.825089393693    -1.997887456441     0.812376936608     1.007825032230
         H            3.831001393693     1.989929543559    -0.804712063392     1.007825032230
         H            5.077225393693    -0.004998456441     0.005832936608     1.007825032230

  Basis Set: AUG-CC-PVTZ
    Blend: AUG-CC-PVTZ
  Basis Set: (AUG-CC-PVTZ AUX)
    Blend: AUG-CC-PVTZ-JKFIT
	 Reference Energy          =    -499.4483178480870720 [Eh]
	 Singles Energy            =      -0.0000000000000000 [Eh]
	 Same-Spin Energy          =      -0.5649065888910556 [Eh]
	 Opposite-Spin Energy      =      -1.7789207586257345 [Eh]
	 Correlation Energy        =      -2.3438273475167901 [Eh]
	 Total Energy              =    -501.7921451956038368 [Eh]

	 ================> DF-SCS-MP2 Energies <==================
	-----------------------------------------------------------
	 SCS Same-Spin Scale       =       0.3333333333333333 [-]
	 SCS Opposite-Spin Scale   =       1.2000000000000000 [-]
	 SCS Same-Spin Energy      =      -0.1883021962970185 [Eh]
	 SCS Opposite-Spin Energy  =      -2.1347049103508815 [Eh]
	 SCS Correlation Energy    =      -2.3230071066478999 [Eh]
	 SCS Total Energy          =    -501.7713249547349506 [Eh]
	-----------------------------------------------------------

  Dipole Moment: [D]
     X:    -0.5410      Y:    -0.0177      Z:     0.0377     Total:     0.5426

*** Psi4 exiting successfully. Buy a developer a beer!
