                               Psi4 1.4a3.dev225

  ==> Input File <==

--------------------------------------------------------------------------
#psi4
#
memory 32 gb

molecule  {
0 1
  C       -0.2663850     0.0008990    -0.0013960
  C        1.2106340     0.0001110     0.0000760
  C       -3.1008180     0.0056250    -0.0137190
  C       -0.9855960    -1.1139970    -0.4586890
  C       -0.9858100     1.1188490     0.4479860
  C       -2.3796020    -1.1098520    -0.4588000
  C       -2.3797760     1.1173260     0.4409920
  C        1.9242530    -1.1209430     0.4529070
  C        1.9275400     1.1199170    -0.4505910
  C       -4.6068780    -0.0078780     0.0198210
  C        3.3192690    -1.1228030     0.4522780
  C        3.3225700     1.1193260    -0.4456390
  C        4.0130229     0.0137489    -0.0019902
  H       -0.4460470    -1.9780880    -0.8418930
  H       -0.4465600     1.9841010     0.8290070
  H       -2.9173870    -1.9815130    -0.8295580
  H       -2.9177760     1.9946350     0.7979050
  H        1.3786050    -1.9834820     0.8303220
  H        1.3846280     1.9832890    -0.8299950
  H       -5.0126890     0.9989950    -0.1140710
  H       -5.0122110    -0.6453700    -0.7711930
  H       -4.9781370    -0.3905110     0.9770230
  H        3.8582660    -1.9961250     0.8126670
  H        3.8641780     1.9916920    -0.8044220
  H        5.1104020    -0.0032360     0.0061230
units angstrom
no_reorient  #important for SAPT in psi4, default
symmetry c1  #important for SAPT in psi4, default
}

set PROPERTIES_ORIGIN ["COM"]
properties('MP2/aug-cc-pvtz', properties = ['dipole'])
--------------------------------------------------------------------------

    Molecular point group: c1
  Charge       = 0
  Multiplicity = 1
  Basis Set: AUG-CC-PVTZ
    Blend: AUG-CC-PVTZ
  Basis Set: (AUG-CC-PVTZ AUX)
    Blend: AUG-CC-PVTZ-JKFIT

    Orbital Energies [Eh]
    ---------------------

    Doubly Occupied:

       1A    -11.244725     2A    -11.242520     3A    -11.241151
       4A    -11.237919     5A    -11.235307     6A    -11.235236
       7A    -11.235103     8A    -11.234437     9A    -11.234339
      10A    -11.233492    11A    -11.232036    12A    -11.231967
      13A    -11.225460    14A     -1.168314    15A     -1.141923
      16A     -1.065579    17A     -1.017186    18A     -1.009114
      19A     -1.003971    20A     -0.928724    21A     -0.841146
      22A     -0.832309    23A     -0.811823    24A     -0.779326
      25A     -0.711953    26A     -0.664702    27A     -0.646092
      28A     -0.642047    29A     -0.614132    30A     -0.613900
      31A     -0.588160    32A     -0.580466    33A     -0.576159
      34A     -0.569850    35A     -0.541338    36A     -0.511668
      37A     -0.508907    38A     -0.498534    39A     -0.482212
      40A     -0.480581    41A     -0.478833    42A     -0.359612
      43A     -0.337544    44A     -0.335826    45A     -0.296193

  @DF-RHF Final Energy:  -499.44960948773303

   => Energetics <=

    Nuclear Repulsion Energy =            687.5402246270385831
    One-Electron Energy =               -2038.5760343847171043
    Two-Electron Energy =                 851.5862002699456070
    Total Energy =                       -499.4496094877330279
  Basis Set: (AUG-CC-PVTZ AUX)
    Blend: AUG-CC-PVTZ-RI
    Molecular point group: c1

    Geometry (in Angstrom), charge = 0, multiplicity = 1:

       Center              X                  Y                   Z               Mass
    ------------   -----------------  -----------------  -----------------  -----------------
         C           -0.301879175232    -0.000398687643    -0.000570444089    12.000000000000
         C            1.175139824768    -0.001186687643     0.000901555911    12.000000000000
         C           -3.136312175232     0.004327312357    -0.012893444089    12.000000000000
         C           -1.021090175232    -1.115294687643    -0.457863444089    12.000000000000
         C           -1.021304175232     1.117551312357     0.448811555911    12.000000000000
         C           -2.415096175232    -1.111149687643    -0.457974444089    12.000000000000
         C           -2.415270175232     1.116028312357     0.441817555911    12.000000000000
         C            1.888758824768    -1.122240687643     0.453732555911    12.000000000000
         C            1.892045824768     1.118619312357    -0.449765444089    12.000000000000
         C           -4.642372175232    -0.009175687643     0.020646555911    12.000000000000
         C            3.283774824768    -1.124100687643     0.453103555911    12.000000000000
         C            3.287075824768     1.118028312357    -0.444813444089    12.000000000000
         C            3.977528724768     0.012451212357    -0.001164644089    12.000000000000
         H           -0.481541175232    -1.979385687643    -0.841067444089     1.007825032230
         H           -0.482054175232     1.982803312357     0.829832555911     1.007825032230
         H           -2.952881175232    -1.982810687643    -0.828732444089     1.007825032230
         H           -2.953270175232     1.993337312357     0.798730555911     1.007825032230
         H            1.343110824768    -1.984779687643     0.831147555911     1.007825032230
         H            1.349133824768     1.981991312357    -0.829169444089     1.007825032230
         H           -5.048183175232     0.997697312357    -0.113245444089     1.007825032230
         H           -5.047705175232    -0.646667687643    -0.770367444089     1.007825032230
         H           -5.013631175232    -0.391808687643     0.977848555911     1.007825032230
         H            3.822771824768    -1.997422687643     0.813492555911     1.007825032230
         H            3.828683824768     1.990394312357    -0.803596444089     1.007825032230
         H            5.074907824768    -0.004533687643     0.006948555911     1.007825032230

  Basis Set: AUG-CC-PVTZ
    Blend: AUG-CC-PVTZ
  Basis Set: (AUG-CC-PVTZ AUX)
    Blend: AUG-CC-PVTZ-JKFIT
	 Reference Energy          =    -499.4496094877330279 [Eh]
	 Singles Energy            =      -0.0000000000000000 [Eh]
	 Same-Spin Energy          =      -0.5653829541947347 [Eh]
	 Opposite-Spin Energy      =      -1.7795887660157839 [Eh]
	 Correlation Energy        =      -2.3449717202105185 [Eh]
	 Total Energy              =    -501.7945812079435655 [Eh]

	 ================> DF-SCS-MP2 Energies <==================
	-----------------------------------------------------------
	 SCS Same-Spin Scale       =       0.3333333333333333 [-]
	 SCS Opposite-Spin Scale   =       1.2000000000000000 [-]
	 SCS Same-Spin Energy      =      -0.1884609847315782 [Eh]
	 SCS Opposite-Spin Energy  =      -2.1355065192189406 [Eh]
	 SCS Correlation Energy    =      -2.3239675039505188 [Eh]
	 SCS Total Energy          =    -501.7735769916835693 [Eh]
	-----------------------------------------------------------

  Dipole Moment: [D]
     X:    -0.4850      Y:    -0.0174      Z:     0.0379     Total:     0.4868

*** Psi4 exiting successfully. Buy a developer a beer!
