                               Psi4 1.4a3.dev225

  ==> Input File <==

--------------------------------------------------------------------------
#psi4
#
memory 32 gb

molecule  {
0 1
  C       -0.2663850     0.0008990    -0.0013960
  C        1.2106340     0.0001110     0.0000760
  C       -3.1008180     0.0056250    -0.0137190
  C       -0.9855960    -1.1139970    -0.4586890
  C       -0.9858100     1.1188490     0.4479860
  C       -2.3796020    -1.1098520    -0.4588000
  C       -2.3540412     1.1570039     0.4572212
  C        1.9242530    -1.1209430     0.4529070
  C        1.9275400     1.1199170    -0.4505910
  C       -4.6068780    -0.0078780     0.0198210
  C        3.3192690    -1.1228030     0.4522780
  C        3.3225700     1.1193260    -0.4456390
  C        4.0230520    -0.0023100     0.0044540
  H       -0.4460470    -1.9780880    -0.8418930
  H       -0.4465600     1.9841010     0.8290070
  H       -2.9173870    -1.9815130    -0.8295580
  H       -2.9177760     1.9946350     0.7979050
  H        1.3786050    -1.9834820     0.8303220
  H        1.3846280     1.9832890    -0.8299950
  H       -5.0126890     0.9989950    -0.1140710
  H       -5.0122110    -0.6453700    -0.7711930
  H       -4.9781370    -0.3905110     0.9770230
  H        3.8582660    -1.9961250     0.8126670
  H        3.8641780     1.9916920    -0.8044220
  H        5.1104020    -0.0032360     0.0061230
units angstrom
no_reorient  #important for SAPT in psi4, default
symmetry c1  #important for SAPT in psi4, default
}

set PROPERTIES_ORIGIN ["COM"]
properties('MP2/aug-cc-pvtz', properties = ['dipole'])
--------------------------------------------------------------------------

    Molecular point group: c1
  Charge       = 0
  Multiplicity = 1
  Basis Set: AUG-CC-PVTZ
    Blend: AUG-CC-PVTZ
  Basis Set: (AUG-CC-PVTZ AUX)
    Blend: AUG-CC-PVTZ-JKFIT

    Orbital Energies [Eh]
    ---------------------

    Doubly Occupied:

       1A    -11.247925     2A    -11.244881     3A    -11.240945
       4A    -11.236915     5A    -11.236670     6A    -11.235581
       7A    -11.234234     8A    -11.234053     9A    -11.233836
      10A    -11.233545    11A    -11.232160    12A    -11.231257
      13A    -11.226152    14A     -1.167099    15A     -1.139466
      16A     -1.062554    17A     -1.018990    18A     -1.010525
      19A     -1.003789    20A     -0.927950    21A     -0.840073
      22A     -0.831313    23A     -0.810346    24A     -0.780215
      25A     -0.712450    26A     -0.666722    27A     -0.646185
      28A     -0.641292    29A     -0.615674    30A     -0.612514
      31A     -0.588943    32A     -0.581801    33A     -0.575819
      34A     -0.569883    35A     -0.543403    36A     -0.512810
      37A     -0.508556    38A     -0.495902    39A     -0.484379
      40A     -0.480752    41A     -0.474477    42A     -0.356908
      43A     -0.340607    44A     -0.336269    45A     -0.292908

  @DF-RHF Final Energy:  -499.44687715674070

   => Energetics <=

    Nuclear Repulsion Energy =            686.9049634775147979
    One-Electron Energy =               -2037.3062290963414398
    Two-Electron Energy =                 850.9543884620858307
    Total Energy =                       -499.4468771567406975
  Basis Set: (AUG-CC-PVTZ AUX)
    Blend: AUG-CC-PVTZ-RI
    Molecular point group: c1

    Geometry (in Angstrom), charge = 0, multiplicity = 1:

       Center              X                  Y                   Z               Mass
    ------------   -----------------  -----------------  -----------------  -----------------
         C           -0.304432312490    -0.002084816642    -0.002189067961    12.000000000000
         C            1.172586687510    -0.002872816642    -0.000717067961    12.000000000000
         C           -3.138865312490     0.002641183358    -0.014512067961    12.000000000000
         C           -1.023643312490    -1.116980816642    -0.459482067961    12.000000000000
         C           -1.023857312490     1.115865183358     0.447192932039    12.000000000000
         C           -2.417649312490    -1.112835816642    -0.459593067961    12.000000000000
         C           -2.392088512490     1.154020083358     0.456428132039    12.000000000000
         C            1.886205687510    -1.123926816642     0.452113932039    12.000000000000
         C            1.889492687510     1.116933183358    -0.451384067961    12.000000000000
         C           -4.644925312490    -0.010861816642     0.019027932039    12.000000000000
         C            3.281221687510    -1.125786816642     0.451484932039    12.000000000000
         C            3.284522687510     1.116342183358    -0.446432067961    12.000000000000
         C            3.985004687510    -0.005293816642     0.003660932039    12.000000000000
         H           -0.484094312490    -1.981071816642    -0.842686067961     1.007825032230
         H           -0.484607312490     1.981117183358     0.828213932039     1.007825032230
         H           -2.955434312490    -1.984496816642    -0.830351067961     1.007825032230
         H           -2.955823312490     1.991651183358     0.797111932039     1.007825032230
         H            1.340557687510    -1.986465816642     0.829528932039     1.007825032230
         H            1.346580687510     1.980305183358    -0.830788067961     1.007825032230
         H           -5.050736312490     0.996011183358    -0.114864067961     1.007825032230
         H           -5.050258312490    -0.648353816642    -0.771986067961     1.007825032230
         H           -5.016184312490    -0.393494816642     0.976229932039     1.007825032230
         H            3.820218687510    -1.999108816642     0.811873932039     1.007825032230
         H            3.826130687510     1.988708183358    -0.805215067961     1.007825032230
         H            5.072354687510    -0.006219816642     0.005329932039     1.007825032230

  Basis Set: AUG-CC-PVTZ
    Blend: AUG-CC-PVTZ
  Basis Set: (AUG-CC-PVTZ AUX)
    Blend: AUG-CC-PVTZ-JKFIT
	 Reference Energy          =    -499.4468771567406975 [Eh]
	 Singles Energy            =      -0.0000000000000000 [Eh]
	 Same-Spin Energy          =      -0.5653117400631917 [Eh]
	 Opposite-Spin Energy      =      -1.7797820626487768 [Eh]
	 Correlation Energy        =      -2.3450938027119683 [Eh]
	 Total Energy              =    -501.7919709594526694 [Eh]

	 ================> DF-SCS-MP2 Energies <==================
	-----------------------------------------------------------
	 SCS Same-Spin Scale       =       0.3333333333333333 [-]
	 SCS Opposite-Spin Scale   =       1.2000000000000000 [-]
	 SCS Same-Spin Energy      =      -0.1884372466877306 [Eh]
	 SCS Opposite-Spin Energy  =      -2.1357384751785320 [Eh]
	 SCS Correlation Energy    =      -2.3241757218662626 [Eh]
	 SCS Total Energy          =    -501.7710528786069517 [Eh]
	-----------------------------------------------------------

  Dipole Moment: [D]
     X:    -0.5200      Y:    -0.0050      Z:     0.0406     Total:     0.5216

*** Psi4 exiting successfully. Buy a developer a beer!
