                               Psi4 1.4a3.dev225

  ==> Input File <==

--------------------------------------------------------------------------
#psi4
#
memory 32 gb

molecule  {
0 1
  C       -0.2663850     0.0008990    -0.0013960
  C        1.2106340     0.0001110     0.0000760
  C       -3.1008180     0.0056250    -0.0137190
  C       -0.9855960    -1.1139970    -0.4586890
  C       -0.9858100     1.1188490     0.4479860
  C       -2.3796020    -1.1098520    -0.4588000
  C       -2.3797760     1.1173260     0.4409920
  C        1.9242530    -1.1209430     0.4529070
  C        1.9275400     1.1199170    -0.4505910
  C       -4.6068780    -0.0078780     0.0198210
  C        3.3192690    -1.1228030     0.4522780
  C        3.3225700     1.1193260    -0.4456390
  C        4.0230520    -0.0023100     0.0044540
  H       -0.4460470    -1.9780880    -0.8418930
  H       -0.4465600     1.9841010     0.8290070
  H       -2.9173870    -1.9815130    -0.8295580
  H       -2.9177760     1.9946350     0.7979050
  H        1.3786050    -1.9834820     0.8303220
  H        1.3846280     1.9832890    -0.8299950
  H       -4.9755880     0.9069424    -0.1018300
  H       -5.0122110    -0.6453700    -0.7711930
  H       -4.9781370    -0.3905110     0.9770230
  H        3.8582660    -1.9961250     0.8126670
  H        3.8641780     1.9916920    -0.8044220
  H        5.1104020    -0.0032360     0.0061230
units angstrom
no_reorient  #important for SAPT in psi4, default
symmetry c1  #important for SAPT in psi4, default
}

set PROPERTIES_ORIGIN ["COM"]
properties('MP2/aug-cc-pvtz', properties = ['dipole'])
--------------------------------------------------------------------------

    Molecular point group: c1
  Charge       = 0
  Multiplicity = 1
  Basis Set: AUG-CC-PVTZ
    Blend: AUG-CC-PVTZ
  Basis Set: (AUG-CC-PVTZ AUX)
    Blend: AUG-CC-PVTZ-JKFIT

    Orbital Energies [Eh]
    ---------------------

    Doubly Occupied:

       1A    -11.244780     2A    -11.241852     3A    -11.240911
       4A    -11.237026     5A    -11.236779     6A    -11.235131
       7A    -11.234872     8A    -11.234368     9A    -11.234180
      10A    -11.233965    11A    -11.231941    12A    -11.231389
      13A    -11.213130    14A     -1.167859    15A     -1.141271
      16A     -1.066425    17A     -1.016632    18A     -1.008502
      19A     -1.006708    20A     -0.934989    21A     -0.840649
      22A     -0.834386    23A     -0.811386    24A     -0.780044
      25A     -0.711821    26A     -0.666524    27A     -0.647901
      28A     -0.642439    29A     -0.614412    30A     -0.613550
      31A     -0.587578    32A     -0.581980    33A     -0.579706
      34A     -0.571673    35A     -0.549475    36A     -0.512491
      37A     -0.509221    38A     -0.498097    39A     -0.482295
      40A     -0.480456    41A     -0.478911    42A     -0.358920
      43A     -0.337306    44A     -0.335595    45A     -0.295926

  @DF-RHF Final Energy:  -499.44405912714262

   => Energetics <=

    Nuclear Repulsion Energy =            687.7961273359628649
    One-Electron Energy =               -2039.0494616791352200
    Two-Electron Energy =                 851.8092752160297323
    Total Energy =                       -499.4440591271426229
  Basis Set: (AUG-CC-PVTZ AUX)
    Blend: AUG-CC-PVTZ-RI
    Molecular point group: c1

    Geometry (in Angstrom), charge = 0, multiplicity = 1:

       Center              X                  Y                   Z               Mass
    ------------   -----------------  -----------------  -----------------  -----------------
         C           -0.302817582373     0.001299647120    -0.001103879187    12.000000000000
         C            1.174201417627     0.000511647120     0.000368120813    12.000000000000
         C           -3.137250582373     0.006025647120    -0.013426879187    12.000000000000
         C           -1.022028582373    -1.113596352880    -0.458396879187    12.000000000000
         C           -1.022242582373     1.119249647120     0.448278120813    12.000000000000
         C           -2.416034582373    -1.109451352880    -0.458507879187    12.000000000000
         C           -2.416208582373     1.117726647120     0.441284120813    12.000000000000
         C            1.887820417627    -1.120542352880     0.453199120813    12.000000000000
         C            1.891107417627     1.120317647120    -0.450298879187    12.000000000000
         C           -4.643310582373    -0.007477352880     0.020113120813    12.000000000000
         C            3.282836417627    -1.122402352880     0.452570120813    12.000000000000
         C            3.286137417627     1.119726647120    -0.445346879187    12.000000000000
         C            3.986619417627    -0.001909352880     0.004746120813    12.000000000000
         H           -0.482479582373    -1.977687352880    -0.841600879187     1.007825032230
         H           -0.482992582373     1.984501647120     0.829299120813     1.007825032230
         H           -2.953819582373    -1.981112352880    -0.829265879187     1.007825032230
         H           -2.954208582373     1.995035647120     0.798197120813     1.007825032230
         H            1.342172417627    -1.983081352880     0.830614120813     1.007825032230
         H            1.348195417627     1.983689647120    -0.829702879187     1.007825032230
         H           -5.012020582373     0.907343047120    -0.101537879187     1.007825032230
         H           -5.048643582373    -0.644969352880    -0.770900879187     1.007825032230
         H           -5.014569582373    -0.390110352880     0.977315120813     1.007825032230
         H            3.821833417627    -1.995724352880     0.812959120813     1.007825032230
         H            3.827745417627     1.992092647120    -0.804129879187     1.007825032230
         H            5.073969417627    -0.002835352880     0.006415120813     1.007825032230

  Basis Set: AUG-CC-PVTZ
    Blend: AUG-CC-PVTZ
  Basis Set: (AUG-CC-PVTZ AUX)
    Blend: AUG-CC-PVTZ-JKFIT
	 Reference Energy          =    -499.4440591271426229 [Eh]
	 Singles Energy            =      -0.0000000000000000 [Eh]
	 Same-Spin Energy          =      -0.5653831711195908 [Eh]
	 Opposite-Spin Energy      =      -1.7791047335871497 [Eh]
	 Correlation Energy        =      -2.3444879047067406 [Eh]
	 Total Energy              =    -501.7885470318493617 [Eh]

	 ================> DF-SCS-MP2 Energies <==================
	-----------------------------------------------------------
	 SCS Same-Spin Scale       =       0.3333333333333333 [-]
	 SCS Opposite-Spin Scale   =       1.2000000000000000 [-]
	 SCS Same-Spin Energy      =      -0.1884610570398636 [Eh]
	 SCS Opposite-Spin Energy  =      -2.1349256803045797 [Eh]
	 SCS Correlation Energy    =      -2.3233867373444435 [Eh]
	 SCS Total Energy          =    -501.7674458644870583 [Eh]
	-----------------------------------------------------------

  Dipole Moment: [D]
     X:    -0.5279      Y:     0.0179      Z:     0.0340     Total:     0.5293

*** Psi4 exiting successfully. Buy a developer a beer!
