                               Psi4 1.4a3.dev225

  ==> Input File <==

--------------------------------------------------------------------------
#psi4
#
memory 32 gb

molecule  {
0 1
  C       -0.2663850     0.0008990    -0.0013960
  C        1.2106340     0.0001110     0.0000760
  C       -3.1008180     0.0056250    -0.0137190
  C       -0.9855960    -1.1139970    -0.4586890
  C       -0.9858100     1.1188490     0.4479860
  C       -2.3796020    -1.1098520    -0.4588000
  C       -2.3797760     1.1173260     0.4409920
  C        1.9242530    -1.1209430     0.4529070
  C        1.9275400     1.1199170    -0.4505910
  C       -4.6068780    -0.0078780     0.0198210
  C        3.3192690    -1.1228030     0.4522780
  C        3.3225700     1.1193260    -0.4456390
  C        3.9978613    -0.0424161     0.0204831
  H       -0.4460470    -1.9780880    -0.8418930
  H       -0.4465600     1.9841010     0.8290070
  H       -2.9173870    -1.9815130    -0.8295580
  H       -2.9177760     1.9946350     0.7979050
  H        1.3786050    -1.9834820     0.8303220
  H        1.3846280     1.9832890    -0.8299950
  H       -5.0126890     0.9989950    -0.1140710
  H       -5.0122110    -0.6453700    -0.7711930
  H       -4.9781370    -0.3905110     0.9770230
  H        3.8582660    -1.9961250     0.8126670
  H        3.8641780     1.9916920    -0.8044220
  H        5.1104020    -0.0032360     0.0061230
units angstrom
no_reorient  #important for SAPT in psi4, default
symmetry c1  #important for SAPT in psi4, default
}

set PROPERTIES_ORIGIN ["COM"]
properties('MP2/aug-cc-pvtz', properties = ['dipole'])
--------------------------------------------------------------------------

    Molecular point group: c1
  Charge       = 0
  Multiplicity = 1
  Basis Set: AUG-CC-PVTZ
    Blend: AUG-CC-PVTZ
  Basis Set: (AUG-CC-PVTZ AUX)
    Blend: AUG-CC-PVTZ-JKFIT

    Orbital Energies [Eh]
    ---------------------

    Doubly Occupied:

       1A    -11.244433     2A    -11.242426     3A    -11.241087
       4A    -11.239300     5A    -11.235163     6A    -11.234982
       7A    -11.234622     8A    -11.234514     9A    -11.233940
      10A    -11.231997    11A    -11.231876    12A    -11.230508
      13A    -11.225406    14A     -1.168854    15A     -1.142955
      16A     -1.066283    17A     -1.018165    18A     -1.010073
      19A     -1.002957    20A     -0.928563    21A     -0.841951
      22A     -0.831369    23A     -0.812108    24A     -0.779016
      25A     -0.712149    26A     -0.662762    27A     -0.646365
      28A     -0.642024    29A     -0.615178    30A     -0.614329
      31A     -0.589005    32A     -0.580818    33A     -0.576221
      34A     -0.567830    35A     -0.541361    36A     -0.511295
      37A     -0.509171    38A     -0.498510    39A     -0.482714
      40A     -0.480893    41A     -0.476774    42A     -0.360969
      43A     -0.337570    44A     -0.335837    45A     -0.296231

  @DF-RHF Final Energy:  -499.44696160424280

   => Energetics <=

    Nuclear Repulsion Energy =            687.8573299923100421
    One-Electron Energy =               -2039.2074787852409372
    Two-Electron Energy =                 851.9031871886880936
    Total Energy =                       -499.4469616042428015
  Basis Set: (AUG-CC-PVTZ AUX)
    Blend: AUG-CC-PVTZ-RI
    Molecular point group: c1

    Geometry (in Angstrom), charge = 0, multiplicity = 1:

       Center              X                  Y                   Z               Mass
    ------------   -----------------  -----------------  -----------------  -----------------
         C           -0.300796808771     0.003610857013    -0.002174783088    12.000000000000
         C            1.176222191229     0.002822857013    -0.000702783088    12.000000000000
         C           -3.135229808771     0.008336857013    -0.014497783088    12.000000000000
         C           -1.020007808771    -1.111285142987    -0.459467783088    12.000000000000
         C           -1.020221808771     1.121560857013     0.447207216912    12.000000000000
         C           -2.414013808771    -1.107140142987    -0.459578783088    12.000000000000
         C           -2.414187808771     1.120037857013     0.440213216912    12.000000000000
         C            1.889841191229    -1.118231142987     0.452128216912    12.000000000000
         C            1.893128191229     1.122628857013    -0.451369783088    12.000000000000
         C           -4.641289808771    -0.005166142987     0.019042216912    12.000000000000
         C            3.284857191229    -1.120091142987     0.451499216912    12.000000000000
         C            3.288158191229     1.122037857013    -0.446417783088    12.000000000000
         C            3.963449491229    -0.039704242987     0.019704316912    12.000000000000
         H           -0.480458808771    -1.975376142987    -0.842671783088     1.007825032230
         H           -0.480971808771     1.986812857013     0.828228216912     1.007825032230
         H           -2.951798808771    -1.978801142987    -0.830336783088     1.007825032230
         H           -2.952187808771     1.997346857013     0.797126216912     1.007825032230
         H            1.344193191229    -1.980770142987     0.829543216912     1.007825032230
         H            1.350216191229     1.986000857013    -0.830773783088     1.007825032230
         H           -5.047100808771     1.001706857013    -0.114849783088     1.007825032230
         H           -5.046622808771    -0.642658142987    -0.771971783088     1.007825032230
         H           -5.012548808771    -0.387799142987     0.976244216912     1.007825032230
         H            3.823854191229    -1.993413142987     0.811888216912     1.007825032230
         H            3.829766191229     1.994403857013    -0.805200783088     1.007825032230
         H            5.075990191229    -0.000524142987     0.005344216912     1.007825032230

  Basis Set: AUG-CC-PVTZ
    Blend: AUG-CC-PVTZ
  Basis Set: (AUG-CC-PVTZ AUX)
    Blend: AUG-CC-PVTZ-JKFIT
	 Reference Energy          =    -499.4469616042428015 [Eh]
	 Singles Energy            =      -0.0000000000000000 [Eh]
	 Same-Spin Energy          =      -0.5653655015366943 [Eh]
	 Opposite-Spin Energy      =      -1.7796391380404644 [Eh]
	 Correlation Energy        =      -2.3450046395771587 [Eh]
	 Total Energy              =    -501.7919662438199566 [Eh]

	 ================> DF-SCS-MP2 Energies <==================
	-----------------------------------------------------------
	 SCS Same-Spin Scale       =       0.3333333333333333 [-]
	 SCS Opposite-Spin Scale   =       1.2000000000000000 [-]
	 SCS Same-Spin Energy      =      -0.1884551671788981 [Eh]
	 SCS Opposite-Spin Energy  =      -2.1355669656485570 [Eh]
	 SCS Correlation Energy    =      -2.3240221328274551 [Eh]
	 SCS Total Energy          =    -501.7709837370702530 [Eh]
	-----------------------------------------------------------

  Dipole Moment: [D]
     X:    -0.4870      Y:    -0.0047      Z:     0.0338     Total:     0.4882

*** Psi4 exiting successfully. Buy a developer a beer!
