                               Psi4 1.4a3.dev225

  ==> Input File <==

--------------------------------------------------------------------------
#psi4
#
memory 32 gb

molecule  {
0 1
  C       -0.2663850     0.0008990    -0.0013960
  C        1.2106340     0.0001110     0.0000760
  C       -3.1008180     0.0056250    -0.0137190
  C       -0.9855960    -1.1139970    -0.4586890
  C       -0.9858100     1.1188490     0.4479860
  C       -2.3796020    -1.1098520    -0.4588000
  C       -2.3797760     1.1173260     0.4409920
  C        1.9242530    -1.1209430     0.4529070
  C        1.9275400     1.1199170    -0.4505910
  C       -4.6068780    -0.0078780     0.0198210
  C        3.3192690    -1.1228030     0.4522780
  C        3.3225700     1.1193260    -0.4456390
  C        4.0230520    -0.0023100     0.0044540
  H       -0.5451925    -1.8193059    -0.7714769
  H       -0.4465600     1.9841010     0.8290070
  H       -2.9173870    -1.9815130    -0.8295580
  H       -2.9177760     1.9946350     0.7979050
  H        1.3786050    -1.9834820     0.8303220
  H        1.3846280     1.9832890    -0.8299950
  H       -5.0126890     0.9989950    -0.1140710
  H       -5.0122110    -0.6453700    -0.7711930
  H       -4.9781370    -0.3905110     0.9770230
  H        3.8582660    -1.9961250     0.8126670
  H        3.8641780     1.9916920    -0.8044220
  H        5.1104020    -0.0032360     0.0061230
units angstrom
no_reorient  #important for SAPT in psi4, default
symmetry c1  #important for SAPT in psi4, default
}

set PROPERTIES_ORIGIN ["COM"]
properties('MP2/aug-cc-pvtz', properties = ['dipole'])
--------------------------------------------------------------------------

    Molecular point group: c1
  Charge       = 0
  Multiplicity = 1
  Basis Set: AUG-CC-PVTZ
    Blend: AUG-CC-PVTZ
  Basis Set: (AUG-CC-PVTZ AUX)
    Blend: AUG-CC-PVTZ-JKFIT

    Orbital Energies [Eh]
    ---------------------

    Doubly Occupied:

       1A    -11.245068     2A    -11.241530     3A    -11.239799
       4A    -11.237441     5A    -11.237189     6A    -11.234805
       7A    -11.234588     8A    -11.234327     9A    -11.234099
      10A    -11.231636    11A    -11.231005    12A    -11.224879
      13A    -11.211262    14A     -1.168989    15A     -1.141604
      16A     -1.066038    17A     -1.022494    18A     -1.011622
      19A     -1.004391    20A     -0.928617    21A     -0.851357
      22A     -0.834831    23A     -0.816834    24A     -0.783392
      25A     -0.714561    26A     -0.672742    27A     -0.657063
      28A     -0.645480    29A     -0.618308    30A     -0.613381
      31A     -0.591276    32A     -0.583543    33A     -0.575903
      34A     -0.570540    35A     -0.541229    36A     -0.514249
      37A     -0.508926    38A     -0.499477    39A     -0.484055
      40A     -0.480936    41A     -0.479556    42A     -0.358806
      43A     -0.337500    44A     -0.335541    45A     -0.295706

  @DF-RHF Final Energy:  -499.41591729594143

   => Energetics <=

    Nuclear Repulsion Energy =            688.4700626735736932
    One-Electron Energy =               -2040.2788100312830011
    Two-Electron Energy =                 852.3928300617678815
    Total Energy =                       -499.4159172959414263
  Basis Set: (AUG-CC-PVTZ AUX)
    Blend: AUG-CC-PVTZ-RI
    Molecular point group: c1

    Geometry (in Angstrom), charge = 0, multiplicity = 1:

       Center              X                  Y                   Z               Mass
    ------------   -----------------  -----------------  -----------------  -----------------
         C           -0.302000701850    -0.000204259262    -0.001452674246    12.000000000000
         C            1.175018298150    -0.000992259262     0.000019325754    12.000000000000
         C           -3.136433701850     0.004521740738    -0.013775674246    12.000000000000
         C           -1.021211701850    -1.115100259262    -0.458745674246    12.000000000000
         C           -1.021425701850     1.117745740738     0.447929325754    12.000000000000
         C           -2.415217701850    -1.110955259262    -0.458856674246    12.000000000000
         C           -2.415391701850     1.116222740738     0.440935325754    12.000000000000
         C            1.888637298150    -1.122046259262     0.452850325754    12.000000000000
         C            1.891924298150     1.118813740738    -0.450647674246    12.000000000000
         C           -4.642493701850    -0.008981259262     0.019764325754    12.000000000000
         C            3.283653298150    -1.123906259262     0.452221325754    12.000000000000
         C            3.286954298150     1.118222740738    -0.445695674246    12.000000000000
         C            3.987436298150    -0.003413259262     0.004397325754    12.000000000000
         H           -0.580808201850    -1.820409159262    -0.771533574246     1.007825032230
         H           -0.482175701850     1.982997740738     0.828950325754     1.007825032230
         H           -2.953002701850    -1.982616259262    -0.829614674246     1.007825032230
         H           -2.953391701850     1.993531740738     0.797848325754     1.007825032230
         H            1.342989298150    -1.984585259262     0.830265325754     1.007825032230
         H            1.349012298150     1.982185740738    -0.830051674246     1.007825032230
         H           -5.048304701850     0.997891740738    -0.114127674246     1.007825032230
         H           -5.047826701850    -0.646473259262    -0.771249674246     1.007825032230
         H           -5.013752701850    -0.391614259262     0.976966325754     1.007825032230
         H            3.822650298150    -1.997228259262     0.812610325754     1.007825032230
         H            3.828562298150     1.990588740738    -0.804478674246     1.007825032230
         H            5.074786298150    -0.004339259262     0.006066325754     1.007825032230

  Basis Set: AUG-CC-PVTZ
    Blend: AUG-CC-PVTZ
  Basis Set: (AUG-CC-PVTZ AUX)
    Blend: AUG-CC-PVTZ-JKFIT
	 Reference Energy          =    -499.4159172959414263 [Eh]
	 Singles Energy            =      -0.0000000000000000 [Eh]
	 Same-Spin Energy          =      -0.5650077461253615 [Eh]
	 Opposite-Spin Energy      =      -1.7788349614486831 [Eh]
	 Correlation Energy        =      -2.3438427075740447 [Eh]
	 Total Energy              =    -501.7597600035154528 [Eh]

	 ================> DF-SCS-MP2 Energies <==================
	-----------------------------------------------------------
	 SCS Same-Spin Scale       =       0.3333333333333333 [-]
	 SCS Opposite-Spin Scale   =       1.2000000000000000 [-]
	 SCS Same-Spin Energy      =      -0.1883359153751205 [Eh]
	 SCS Opposite-Spin Energy  =      -2.1346019537384198 [Eh]
	 SCS Correlation Energy    =      -2.3229378691135403 [Eh]
	 SCS Total Energy          =    -501.7388551650549857 [Eh]
	-----------------------------------------------------------

  Dipole Moment: [D]
     X:    -0.4497      Y:    -0.0377      Z:     0.0257     Total:     0.4520

*** Psi4 exiting successfully. Buy a developer a beer!
