                               Psi4 1.4a3.dev225

  ==> Input File <==

--------------------------------------------------------------------------
#psi4
#
memory 32 gb

molecule  {
0 1
  C       -0.2663850     0.0008990    -0.0013960
  C        1.2106340     0.0001110     0.0000760
  C       -3.1008180     0.0056250    -0.0137190
  C       -0.9855960    -1.1139970    -0.4586890
  C       -0.9858100     1.1188490     0.4479860
  C       -2.3796020    -1.1098520    -0.4588000
  C       -2.3797760     1.1173260     0.4409920
  C        1.9242530    -1.1209430     0.4529070
  C        1.9307682     1.0299832    -0.4134041
  C       -4.6068780    -0.0078780     0.0198210
  C        3.3192690    -1.1228030     0.4522780
  C        3.3225700     1.1193260    -0.4456390
  C        4.0230520    -0.0023100     0.0044540
  H       -0.4460470    -1.9780880    -0.8418930
  H       -0.4465600     1.9841010     0.8290070
  H       -2.9173870    -1.9815130    -0.8295580
  H       -2.9177760     1.9946350     0.7979050
  H        1.3786050    -1.9834820     0.8303220
  H        1.3846280     1.9832890    -0.8299950
  H       -5.0126890     0.9989950    -0.1140710
  H       -5.0122110    -0.6453700    -0.7711930
  H       -4.9781370    -0.3905110     0.9770230
  H        3.8582660    -1.9961250     0.8126670
  H        3.8641780     1.9916920    -0.8044220
  H        5.1104020    -0.0032360     0.0061230
units angstrom
no_reorient  #important for SAPT in psi4, default
symmetry c1  #important for SAPT in psi4, default
}

set PROPERTIES_ORIGIN ["COM"]
properties('MP2/aug-cc-pvtz', properties = ['dipole'])
--------------------------------------------------------------------------

    Molecular point group: c1
  Charge       = 0
  Multiplicity = 1
  Basis Set: AUG-CC-PVTZ
    Blend: AUG-CC-PVTZ
  Basis Set: (AUG-CC-PVTZ AUX)
    Blend: AUG-CC-PVTZ-JKFIT

    Orbital Energies [Eh]
    ---------------------

    Doubly Occupied:

       1A    -11.242628     2A    -11.241766     3A    -11.236907
       4A    -11.236159     5A    -11.235575     6A    -11.235514
       7A    -11.235133     8A    -11.234789     9A    -11.234215
      10A    -11.232323    11A    -11.232029    12A    -11.231864
      13A    -11.225465    14A     -1.174279    15A     -1.145196
      16A     -1.067009    17A     -1.015986    18A     -1.010288
      19A     -1.007251    20A     -0.930042    21A     -0.843120
      22A     -0.831151    23A     -0.811577    24A     -0.780897
      25A     -0.713143    26A     -0.663119    27A     -0.647323
      28A     -0.640362    29A     -0.620785    30A     -0.611018
      31A     -0.583859    32A     -0.577783    33A     -0.574370
      34A     -0.571621    35A     -0.541829    36A     -0.513968
      37A     -0.513023    38A     -0.494535    39A     -0.484394
      40A     -0.482968    41A     -0.467982    42A     -0.363309
      43A     -0.336830    44A     -0.335043    45A     -0.300141

  @DF-RHF Final Energy:  -499.43846408554572

   => Energetics <=

    Nuclear Repulsion Energy =            688.9754212586210542
    One-Electron Energy =               -2041.4106310894455873
    Two-Electron Energy =                 852.9967457452787585
    Total Energy =                       -499.4384640855457747
  Basis Set: (AUG-CC-PVTZ AUX)
    Blend: AUG-CC-PVTZ-RI
    Molecular point group: c1

    Geometry (in Angstrom), charge = 0, multiplicity = 1:

       Center              X                  Y                   Z               Mass
    ------------   -----------------  -----------------  -----------------  -----------------
         C           -0.302825596248     0.007167990250    -0.003685210292    12.000000000000
         C            1.174193403752     0.006379990250    -0.002213210292    12.000000000000
         C           -3.137258596248     0.011893990250    -0.016008210292    12.000000000000
         C           -1.022036596248    -1.107728009750    -0.460978210292    12.000000000000
         C           -1.022250596248     1.125117990250     0.445696789708    12.000000000000
         C           -2.416042596248    -1.103583009750    -0.461089210292    12.000000000000
         C           -2.416216596248     1.123594990250     0.438702789708    12.000000000000
         C            1.887812403752    -1.114674009750     0.450617789708    12.000000000000
         C            1.894327603752     1.036252190250    -0.415693310292    12.000000000000
         C           -4.643318596248    -0.001609009750     0.017531789708    12.000000000000
         C            3.282828403752    -1.116534009750     0.449988789708    12.000000000000
         C            3.286129403752     1.125594990250    -0.447928210292    12.000000000000
         C            3.986611403752     0.003958990250     0.002164789708    12.000000000000
         H           -0.482487596248    -1.971819009750    -0.844182210292     1.007825032230
         H           -0.483000596248     1.990369990250     0.826717789708     1.007825032230
         H           -2.953827596248    -1.975244009750    -0.831847210292     1.007825032230
         H           -2.954216596248     2.000903990250     0.795615789708     1.007825032230
         H            1.342164403752    -1.977213009750     0.828032789708     1.007825032230
         H            1.348187403752     1.989557990250    -0.832284210292     1.007825032230
         H           -5.049129596248     1.005263990250    -0.116360210292     1.007825032230
         H           -5.048651596248    -0.639101009750    -0.773482210292     1.007825032230
         H           -5.014577596248    -0.384242009750     0.974733789708     1.007825032230
         H            3.821825403752    -1.989856009750     0.810377789708     1.007825032230
         H            3.827737403752     1.997960990250    -0.806711210292     1.007825032230
         H            5.073961403752     0.003032990250     0.003833789708     1.007825032230

  Basis Set: AUG-CC-PVTZ
    Blend: AUG-CC-PVTZ
  Basis Set: (AUG-CC-PVTZ AUX)
    Blend: AUG-CC-PVTZ-JKFIT
	 Reference Energy          =    -499.4384640855457178 [Eh]
	 Singles Energy            =      -0.0000000000000000 [Eh]
	 Same-Spin Energy          =      -0.5655344984812634 [Eh]
	 Opposite-Spin Energy      =      -1.7799474243227444 [Eh]
	 Correlation Energy        =      -2.3454819228040078 [Eh]
	 Total Energy              =    -501.7839460083497443 [Eh]

	 ================> DF-SCS-MP2 Energies <==================
	-----------------------------------------------------------
	 SCS Same-Spin Scale       =       0.3333333333333333 [-]
	 SCS Opposite-Spin Scale   =       1.2000000000000000 [-]
	 SCS Same-Spin Energy      =      -0.1885114994937545 [Eh]
	 SCS Opposite-Spin Energy  =      -2.1359369091872931 [Eh]
	 SCS Correlation Energy    =      -2.3244484086810475 [Eh]
	 SCS Total Energy          =    -501.7629124942267822 [Eh]
	-----------------------------------------------------------

  Dipole Moment: [D]
     X:    -0.4553      Y:    -0.0332      Z:     0.0521     Total:     0.4595

*** Psi4 exiting successfully. Buy a developer a beer!
