                               Psi4 1.4a3.dev225

  ==> Input File <==

--------------------------------------------------------------------------
#psi4
#
memory 32 gb

molecule  {
0 1
  C       -0.2247680    -0.0230287    -0.0111363
  C        1.2106340     0.0001110     0.0000760
  C       -3.1008180     0.0056250    -0.0137190
  C       -0.9855960    -1.1139970    -0.4586890
  C       -0.9858100     1.1188490     0.4479860
  C       -2.3796020    -1.1098520    -0.4588000
  C       -2.3797760     1.1173260     0.4409920
  C        1.9242530    -1.1209430     0.4529070
  C        1.9275400     1.1199170    -0.4505910
  C       -4.6068780    -0.0078780     0.0198210
  C        3.3192690    -1.1228030     0.4522780
  C        3.3225700     1.1193260    -0.4456390
  C        4.0230520    -0.0023100     0.0044540
  H       -0.4460470    -1.9780880    -0.8418930
  H       -0.4465600     1.9841010     0.8290070
  H       -2.9173870    -1.9815130    -0.8295580
  H       -2.9177760     1.9946350     0.7979050
  H        1.3786050    -1.9834820     0.8303220
  H        1.3846280     1.9832890    -0.8299950
  H       -5.0126890     0.9989950    -0.1140710
  H       -5.0122110    -0.6453700    -0.7711930
  H       -4.9781370    -0.3905110     0.9770230
  H        3.8582660    -1.9961250     0.8126670
  H        3.8641780     1.9916920    -0.8044220
  H        5.1104020    -0.0032360     0.0061230
units angstrom
no_reorient  #important for SAPT in psi4, default
symmetry c1  #important for SAPT in psi4, default
}

set PROPERTIES_ORIGIN ["COM"]
properties('MP2/aug-cc-pvtz', properties = ['dipole'])
--------------------------------------------------------------------------

    Molecular point group: c1
  Charge       = 0
  Multiplicity = 1
  Basis Set: AUG-CC-PVTZ
    Blend: AUG-CC-PVTZ
  Basis Set: (AUG-CC-PVTZ AUX)
    Blend: AUG-CC-PVTZ-JKFIT

    Orbital Energies [Eh]
    ---------------------

    Doubly Occupied:

       1A    -11.243410     2A    -11.243155     3A    -11.242491
       4A    -11.239646     5A    -11.237751     6A    -11.237344
       7A    -11.235398     8A    -11.235391     9A    -11.235020
      10A    -11.234590    11A    -11.232124    12A    -11.231741
      13A    -11.225635    14A     -1.168501    15A     -1.140091
      16A     -1.067698    17A     -1.016596    18A     -1.007886
      19A     -1.003803    20A     -0.929063    21A     -0.840440
      22A     -0.837133    23A     -0.810276    24A     -0.778286
      25A     -0.713139    26A     -0.667087    27A     -0.646294
      28A     -0.642924    29A     -0.614039    30A     -0.613030
      31A     -0.587099    32A     -0.578438    33A     -0.576917
      34A     -0.573157    35A     -0.541026    36A     -0.512751
      37A     -0.509049    38A     -0.498334    39A     -0.487785
      40A     -0.479005    41A     -0.473905    42A     -0.361034
      43A     -0.337741    44A     -0.335485    45A     -0.292074

  @DF-RHF Final Energy:  -499.44564635577512

   => Energetics <=

    Nuclear Repulsion Energy =            687.2993228082052610
    One-Electron Energy =               -2038.0623715186879963
    Two-Electron Energy =                 851.3174023547076104
    Total Energy =                       -499.4456463557751249
  Basis Set: (AUG-CC-PVTZ AUX)
    Blend: AUG-CC-PVTZ-RI
    Molecular point group: c1

    Geometry (in Angstrom), charge = 0, multiplicity = 1:

       Center              X                  Y                   Z               Mass
    ------------   -----------------  -----------------  -----------------  -----------------
         C           -0.263949121626    -0.021471797448    -0.010075439893    12.000000000000
         C            1.171452878374     0.001667902552     0.001136860107    12.000000000000
         C           -3.139999121626     0.007181902552    -0.012658139893    12.000000000000
         C           -1.024777121626    -1.112440097448    -0.457628139893    12.000000000000
         C           -1.024991121626     1.120405902552     0.449046860107    12.000000000000
         C           -2.418783121626    -1.108295097448    -0.457739139893    12.000000000000
         C           -2.418957121626     1.118882902552     0.442052860107    12.000000000000
         C            1.885071878374    -1.119386097448     0.453967860107    12.000000000000
         C            1.888358878374     1.121473902552    -0.449530139893    12.000000000000
         C           -4.646059121626    -0.006321097448     0.020881860107    12.000000000000
         C            3.280087878374    -1.121246097448     0.453338860107    12.000000000000
         C            3.283388878374     1.120882902552    -0.444578139893    12.000000000000
         C            3.983870878374    -0.000753097448     0.005514860107    12.000000000000
         H           -0.485228121626    -1.976531097448    -0.840832139893     1.007825032230
         H           -0.485741121626     1.985657902552     0.830067860107     1.007825032230
         H           -2.956568121626    -1.979956097448    -0.828497139893     1.007825032230
         H           -2.956957121626     1.996191902552     0.798965860107     1.007825032230
         H            1.339423878374    -1.981925097448     0.831382860107     1.007825032230
         H            1.345446878374     1.984845902552    -0.828934139893     1.007825032230
         H           -5.051870121626     1.000551902552    -0.113010139893     1.007825032230
         H           -5.051392121626    -0.643813097448    -0.770132139893     1.007825032230
         H           -5.017318121626    -0.388954097448     0.978083860107     1.007825032230
         H            3.819084878374    -1.994568097448     0.813727860107     1.007825032230
         H            3.824996878374     1.993248902552    -0.803361139893     1.007825032230
         H            5.071220878374    -0.001679097448     0.007183860107     1.007825032230

  Basis Set: AUG-CC-PVTZ
    Blend: AUG-CC-PVTZ
  Basis Set: (AUG-CC-PVTZ AUX)
    Blend: AUG-CC-PVTZ-JKFIT
	 Reference Energy          =    -499.4456463557751249 [Eh]
	 Singles Energy            =      -0.0000000000000000 [Eh]
	 Same-Spin Energy          =      -0.5660163754541688 [Eh]
	 Opposite-Spin Energy      =      -1.7807138013882180 [Eh]
	 Correlation Energy        =      -2.3467301768423869 [Eh]
	 Total Energy              =    -501.7923765326175385 [Eh]

	 ================> DF-SCS-MP2 Energies <==================
	-----------------------------------------------------------
	 SCS Same-Spin Scale       =       0.3333333333333333 [-]
	 SCS Opposite-Spin Scale   =       1.2000000000000000 [-]
	 SCS Same-Spin Energy      =      -0.1886721251513896 [Eh]
	 SCS Opposite-Spin Energy  =      -2.1368565616658617 [Eh]
	 SCS Correlation Energy    =      -2.3255286868172513 [Eh]
	 SCS Total Energy          =    -501.7711750425924038 [Eh]
	-----------------------------------------------------------

  Dipole Moment: [D]
     X:    -0.4285      Y:    -0.0095      Z:     0.0361     Total:     0.4301

*** Psi4 exiting successfully. Buy a developer a beer!
