                               Psi4 1.4a3.dev225

  ==> Input File <==

--------------------------------------------------------------------------
#psi4
#
memory 32 gb

molecule  {
0 1
  C       -0.2663850     0.0008990    -0.0013960
  C        1.2106340     0.0001110     0.0000760
  C       -3.1008180     0.0056250    -0.0137190
  C       -0.9855960    -1.1139970    -0.4586890
  C       -0.9858100     1.1188490     0.4479860
  C       -2.3796020    -1.1098520    -0.4588000
  C       -2.3797760     1.1173260     0.4409920
  C        1.9242530    -1.1209430     0.4529070
  C        1.9275400     1.1199170    -0.4505910
  C       -4.6068780    -0.0078780     0.0198210
  C        3.3192690    -1.1228030     0.4522780
  C        3.3225700     1.1193260    -0.4456390
  C        4.0230520    -0.0023100     0.0044540
  H       -0.4460470    -1.9780880    -0.8418930
  H       -0.4465600     1.9841010     0.8290070
  H       -2.9173870    -1.9815130    -0.8295580
  H       -2.9177760     1.9946350     0.7979050
  H        1.3786050    -1.9834820     0.8303220
  H        1.3846280     1.9832890    -0.8299950
  H       -5.0497900     1.0910476    -0.1263120
  H       -5.0122110    -0.6453700    -0.7711930
  H       -4.9781370    -0.3905110     0.9770230
  H        3.8582660    -1.9961250     0.8126670
  H        3.8641780     1.9916920    -0.8044220
  H        5.1104020    -0.0032360     0.0061230
units angstrom
no_reorient  #important for SAPT in psi4, default
symmetry c1  #important for SAPT in psi4, default
}

set PROPERTIES_ORIGIN ["COM"]
properties('MP2/aug-cc-pvtz', properties = ['dipole'])
--------------------------------------------------------------------------

    Molecular point group: c1
  Charge       = 0
  Multiplicity = 1
  Basis Set: AUG-CC-PVTZ
    Blend: AUG-CC-PVTZ
  Basis Set: (AUG-CC-PVTZ AUX)
    Blend: AUG-CC-PVTZ-JKFIT

    Orbital Energies [Eh]
    ---------------------

    Doubly Occupied:

       1A    -11.245166     2A    -11.243529     3A    -11.241619
       4A    -11.237341     5A    -11.237285     6A    -11.237093
       7A    -11.235700     8A    -11.235445     9A    -11.234718
      10A    -11.234548    11A    -11.234314    12A    -11.232866
      13A    -11.232308    14A     -1.168315    15A     -1.141526
      16A     -1.064782    17A     -1.017103    18A     -1.008998
      19A     -1.002738    20A     -0.924494    21A     -0.841009
      22A     -0.831814    23A     -0.811676    24A     -0.779228
      25A     -0.711986    26A     -0.666089    27A     -0.645349
      28A     -0.641554    29A     -0.614027    30A     -0.613035
      31A     -0.587958    32A     -0.580442    33A     -0.575216
      34A     -0.569704    35A     -0.530600    36A     -0.512956
      37A     -0.507113    38A     -0.497322    39A     -0.481704
      40A     -0.480448    41A     -0.479402    42A     -0.359288
      43A     -0.337760    44A     -0.336060    45A     -0.296363

  @DF-RHF Final Energy:  -499.44345794684290

   => Energetics <=

    Nuclear Repulsion Energy =            686.9275499764765982
    One-Electron Energy =               -2037.3460278913883030
    Two-Electron Energy =                 850.9750199680689775
    Total Energy =                       -499.4434579468428410
  Basis Set: (AUG-CC-PVTZ AUX)
    Blend: AUG-CC-PVTZ-RI
    Molecular point group: c1

    Geometry (in Angstrom), charge = 0, multiplicity = 1:

       Center              X                  Y                   Z               Mass
    ------------   -----------------  -----------------  -----------------  -----------------
         C           -0.302372696313     0.000195824622    -0.000957094726    12.000000000000
         C            1.174646303687    -0.000592175378     0.000514905274    12.000000000000
         C           -3.136805696313     0.004921824622    -0.013280094726    12.000000000000
         C           -1.021583696313    -1.114700175378    -0.458250094726    12.000000000000
         C           -1.021797696313     1.118145824622     0.448424905274    12.000000000000
         C           -2.415589696313    -1.110555175378    -0.458361094726    12.000000000000
         C           -2.415763696313     1.116622824622     0.441430905274    12.000000000000
         C            1.888265303687    -1.121646175378     0.453345905274    12.000000000000
         C            1.891552303687     1.119213824622    -0.450152094726    12.000000000000
         C           -4.642865696313    -0.008581175378     0.020259905274    12.000000000000
         C            3.283281303687    -1.123506175378     0.452716905274    12.000000000000
         C            3.286582303687     1.118622824622    -0.445200094726    12.000000000000
         C            3.987064303687    -0.003013175378     0.004892905274    12.000000000000
         H           -0.482034696313    -1.978791175378    -0.841454094726     1.007825032230
         H           -0.482547696313     1.983397824622     0.829445905274     1.007825032230
         H           -2.953374696313    -1.982216175378    -0.829119094726     1.007825032230
         H           -2.953763696313     1.993931824622     0.798343905274     1.007825032230
         H            1.342617303687    -1.984185175378     0.830760905274     1.007825032230
         H            1.348640303687     1.982585824622    -0.829556094726     1.007825032230
         H           -5.085777696313     1.090344424622    -0.125873094726     1.007825032230
         H           -5.048198696313    -0.646073175378    -0.770754094726     1.007825032230
         H           -5.014124696313    -0.391214175378     0.977461905274     1.007825032230
         H            3.822278303687    -1.996828175378     0.813105905274     1.007825032230
         H            3.828190303687     1.990988824622    -0.803983094726     1.007825032230
         H            5.074414303687    -0.003939175378     0.006561905274     1.007825032230

  Basis Set: AUG-CC-PVTZ
    Blend: AUG-CC-PVTZ
  Basis Set: (AUG-CC-PVTZ AUX)
    Blend: AUG-CC-PVTZ-JKFIT
	 Reference Energy          =    -499.4434579468428979 [Eh]
	 Singles Energy            =      -0.0000000000000000 [Eh]
	 Same-Spin Energy          =      -0.5653959055278945 [Eh]
	 Opposite-Spin Energy      =      -1.7803533466389077 [Eh]
	 Correlation Energy        =      -2.3457492521668022 [Eh]
	 Total Energy              =    -501.7892071990096952 [Eh]

	 ================> DF-SCS-MP2 Energies <==================
	-----------------------------------------------------------
	 SCS Same-Spin Scale       =       0.3333333333333333 [-]
	 SCS Opposite-Spin Scale   =       1.2000000000000000 [-]
	 SCS Same-Spin Energy      =      -0.1884653018426315 [Eh]
	 SCS Opposite-Spin Energy  =      -2.1364240159666892 [Eh]
	 SCS Correlation Energy    =      -2.3248893178093208 [Eh]
	 SCS Total Energy          =    -501.7683472646522205 [Eh]
	-----------------------------------------------------------

  Dipole Moment: [D]
     X:    -0.4275      Y:    -0.0568      Z:     0.0414     Total:     0.4332

*** Psi4 exiting successfully. Buy a developer a beer!
