                               Psi4 1.4a3.dev225

  ==> Input File <==

--------------------------------------------------------------------------
#psi4
#
memory 32 gb

molecule  {
0 1
  C       -0.2663850     0.0008990    -0.0013960
  C        1.2106340     0.0001110     0.0000760
  C       -3.1008180     0.0056250    -0.0137190
  C       -0.9855960    -1.1139970    -0.4586890
  C       -0.9858100     1.1188490     0.4479860
  C       -2.3796020    -1.1098520    -0.4588000
  C       -2.5797734     1.1171075     0.4399885
  C        1.9242530    -1.1209430     0.4529070
  C        1.9275400     1.1199170    -0.4505910
  C       -4.6068780    -0.0078780     0.0198210
  C        3.3192690    -1.1228030     0.4522780
  C        3.3225700     1.1193260    -0.4456390
  C        4.0230520    -0.0023100     0.0044540
  H       -0.4460470    -1.9780880    -0.8418930
  H       -0.4465600     1.9841010     0.8290070
  H       -2.9173870    -1.9815130    -0.8295580
  H       -2.9177760     1.9946350     0.7979050
  H        1.3786050    -1.9834820     0.8303220
  H        1.3846280     1.9832890    -0.8299950
  H       -5.0126890     0.9989950    -0.1140710
  H       -5.0122110    -0.6453700    -0.7711930
  H       -4.9781370    -0.3905110     0.9770230
  H        3.8582660    -1.9961250     0.8126670
  H        3.8641780     1.9916920    -0.8044220
  H        5.1104020    -0.0032360     0.0061230
units angstrom
no_reorient  #important for SAPT in psi4, default
symmetry c1  #important for SAPT in psi4, default
}

set PROPERTIES_ORIGIN ["COM"]
properties('MP2/aug-cc-pvtz', properties = ['dipole'])
--------------------------------------------------------------------------

    Molecular point group: c1
  Charge       = 0
  Multiplicity = 1
  Basis Set: AUG-CC-PVTZ
    Blend: AUG-CC-PVTZ
  Basis Set: (AUG-CC-PVTZ AUX)
    Blend: AUG-CC-PVTZ-JKFIT

    Orbital Energies [Eh]
    ---------------------

    Doubly Occupied:

       1A    -11.250312     2A    -11.245444     3A    -11.241651
       4A    -11.239565     5A    -11.237477     6A    -11.237095
       7A    -11.235060     8A    -11.234908     9A    -11.234586
      10A    -11.234244    11A    -11.233960    12A    -11.232084
      13A    -11.219799    14A     -1.166075    15A     -1.141928
      16A     -1.073783    17A     -1.015582    18A     -1.010545
      19A     -0.986743    20A     -0.927115    21A     -0.851076
      22A     -0.830120    23A     -0.816581    24A     -0.778170
      25A     -0.713269    26A     -0.670573    27A     -0.653889
      28A     -0.642617    29A     -0.622175    30A     -0.611955
      31A     -0.586470    32A     -0.577177    33A     -0.575793
      34A     -0.572148    35A     -0.537982    36A     -0.511541
      37A     -0.507696    38A     -0.502766    39A     -0.488413
      40A     -0.476615    41A     -0.451083    42A     -0.367285
      43A     -0.336957    44A     -0.324229    45A     -0.301091

  @DF-RHF Final Energy:  -499.40771928695312

   => Energetics <=

    Nuclear Repulsion Energy =            685.7013367355676792
    One-Electron Energy =               -2034.8068572962438338
    Two-Electron Energy =                 849.6978012737231438
    Total Energy =                       -499.4077192869531245
  Basis Set: (AUG-CC-PVTZ AUX)
    Blend: AUG-CC-PVTZ-RI
    Molecular point group: c1

    Geometry (in Angstrom), charge = 0, multiplicity = 1:

       Center              X                  Y                   Z               Mass
    ------------   -----------------  -----------------  -----------------  -----------------
         C           -0.288317590934     0.000763334295    -0.000958848426    12.000000000000
         C            1.188701409066    -0.000024665705     0.000513151574    12.000000000000
         C           -3.122750590934     0.005489334295    -0.013281848426    12.000000000000
         C           -1.007528590934    -1.114132665705    -0.458251848426    12.000000000000
         C           -1.007742590934     1.118713334295     0.448423151574    12.000000000000
         C           -2.401534590934    -1.109987665705    -0.458362848426    12.000000000000
         C           -2.601705990934     1.116971834295     0.440425651574    12.000000000000
         C            1.902320409066    -1.121078665705     0.453344151574    12.000000000000
         C            1.905607409066     1.119781334295    -0.450153848426    12.000000000000
         C           -4.628810590934    -0.008013665705     0.020258151574    12.000000000000
         C            3.297336409066    -1.122938665705     0.452715151574    12.000000000000
         C            3.300637409066     1.119190334295    -0.445201848426    12.000000000000
         C            4.001119409066    -0.002445665705     0.004891151574    12.000000000000
         H           -0.467979590934    -1.978223665705    -0.841455848426     1.007825032230
         H           -0.468492590934     1.983965334295     0.829444151574     1.007825032230
         H           -2.939319590934    -1.981648665705    -0.829120848426     1.007825032230
         H           -2.939708590934     1.994499334295     0.798342151574     1.007825032230
         H            1.356672409066    -1.983617665705     0.830759151574     1.007825032230
         H            1.362695409066     1.983153334295    -0.829557848426     1.007825032230
         H           -5.034621590934     0.998859334295    -0.113633848426     1.007825032230
         H           -5.034143590934    -0.645505665705    -0.770755848426     1.007825032230
         H           -5.000069590934    -0.390646665705     0.977460151574     1.007825032230
         H            3.836333409066    -1.996260665705     0.813104151574     1.007825032230
         H            3.842245409066     1.991556334295    -0.803984848426     1.007825032230
         H            5.088469409066    -0.003371665705     0.006560151574     1.007825032230

  Basis Set: AUG-CC-PVTZ
    Blend: AUG-CC-PVTZ
  Basis Set: (AUG-CC-PVTZ AUX)
    Blend: AUG-CC-PVTZ-JKFIT
	 Reference Energy          =    -499.4077192869531245 [Eh]
	 Singles Energy            =      -0.0000000000000000 [Eh]
	 Same-Spin Energy          =      -0.5649677028200802 [Eh]
	 Opposite-Spin Energy      =      -1.7822761522054336 [Eh]
	 Correlation Energy        =      -2.3472438550255137 [Eh]
	 Total Energy              =    -501.7549631419786351 [Eh]

	 ================> DF-SCS-MP2 Energies <==================
	-----------------------------------------------------------
	 SCS Same-Spin Scale       =       0.3333333333333333 [-]
	 SCS Opposite-Spin Scale   =       1.2000000000000000 [-]
	 SCS Same-Spin Energy      =      -0.1883225676066934 [Eh]
	 SCS Opposite-Spin Energy  =      -2.1387313826465202 [Eh]
	 SCS Correlation Energy    =      -2.3270539502532137 [Eh]
	 SCS Total Energy          =    -501.7347732372063547 [Eh]
	-----------------------------------------------------------

  Dipole Moment: [D]
     X:    -0.3507      Y:     0.0122      Z:     0.0432     Total:     0.3535

*** Psi4 exiting successfully. Buy a developer a beer!
