                               Psi4 1.4a3.dev225

  ==> Input File <==

--------------------------------------------------------------------------
#psi4
#
memory 32 gb

molecule  {
0 1
  C       -0.2663850     0.0008990    -0.0013960
  C        1.2106340     0.0001110     0.0000760
  C       -3.1008180     0.0056250    -0.0137190
  C       -0.9855960    -1.1139970    -0.4586890
  C       -0.9858100     1.1188490     0.4479860
  C       -2.3796020    -1.1098520    -0.4588000
  C       -2.3797760     1.1173260     0.4409920
  C        1.9242530    -1.1209430     0.4529070
  C        1.9275400     1.1199170    -0.4505910
  C       -4.6068780    -0.0078780     0.0198210
  C        3.3192690    -1.1228030     0.4522780
  C        3.3225700     1.1193260    -0.4456390
  C        4.0230520    -0.0023100     0.0044540
  H       -0.4460470    -1.9780880    -0.8418930
  H       -0.4465600     1.9841010     0.8290070
  H       -2.9173870    -1.9815130    -0.8295580
  H       -2.9177760     1.9946350     0.7979050
  H        1.3786050    -1.9834820     0.8303220
  H        1.3846280     1.9832890    -0.8299950
  H       -5.0052688     0.9805845    -0.1116228
  H       -5.0122110    -0.6453700    -0.7711930
  H       -4.9781370    -0.3905110     0.9770230
  H        3.8582660    -1.9961250     0.8126670
  H        3.8641780     1.9916920    -0.8044220
  H        5.1104020    -0.0032360     0.0061230
units angstrom
no_reorient  #important for SAPT in psi4, default
symmetry c1  #important for SAPT in psi4, default
}

set PROPERTIES_ORIGIN ["COM"]
properties('MP2/aug-cc-pvtz', properties = ['dipole'])
--------------------------------------------------------------------------

    Molecular point group: c1
  Charge       = 0
  Multiplicity = 1
  Basis Set: AUG-CC-PVTZ
    Blend: AUG-CC-PVTZ
  Basis Set: (AUG-CC-PVTZ AUX)
    Blend: AUG-CC-PVTZ-JKFIT

    Orbital Energies [Eh]
    ---------------------

    Doubly Occupied:

       1A    -11.244902     2A    -11.242424     3A    -11.241133
       4A    -11.237126     5A    -11.236878     6A    -11.235258
       7A    -11.235113     8A    -11.234478     9A    -11.234296
      10A    -11.234075    11A    -11.232040    12A    -11.231881
      13A    -11.223060    14A     -1.167983    15A     -1.141289
      16A     -1.065427    17A     -1.016779    18A     -1.008646
      19A     -1.004574    20A     -0.929942    21A     -0.840734
      22A     -0.833156    23A     -0.811465    24A     -0.779599
      25A     -0.711822    26A     -0.666148    27A     -0.646212
      28A     -0.642141    29A     -0.613722    30A     -0.613581
      31A     -0.587679    32A     -0.580073    33A     -0.576978
      34A     -0.571194    35A     -0.543299    36A     -0.512642
      37A     -0.508820    38A     -0.497978    39A     -0.482008
      40A     -0.480691    41A     -0.479117    42A     -0.359030
      43A     -0.337449    44A     -0.335747    45A     -0.296054

  @DF-RHF Final Energy:  -499.45007548259468

   => Energetics <=

    Nuclear Repulsion Energy =            687.4230395334955119
    One-Electron Energy =               -2038.3369520461608317
    Two-Electron Energy =                 851.4638370300706356
    Total Energy =                       -499.4500754825946842
  Basis Set: (AUG-CC-PVTZ AUX)
    Blend: AUG-CC-PVTZ-RI
    Molecular point group: c1

    Geometry (in Angstrom), charge = 0, multiplicity = 1:

       Center              X                  Y                   Z               Mass
    ------------   -----------------  -----------------  -----------------  -----------------
         C           -0.302639627949     0.000858118001    -0.001045165402    12.000000000000
         C            1.174379372051     0.000070118001     0.000426834598    12.000000000000
         C           -3.137072627949     0.005584118001    -0.013368165402    12.000000000000
         C           -1.021850627949    -1.114037881999    -0.458338165402    12.000000000000
         C           -1.022064627949     1.118808118001     0.448336834598    12.000000000000
         C           -2.415856627949    -1.109892881999    -0.458449165402    12.000000000000
         C           -2.416030627949     1.117285118001     0.441342834598    12.000000000000
         C            1.887998372051    -1.120983881999     0.453257834598    12.000000000000
         C            1.891285372051     1.119876118001    -0.450240165402    12.000000000000
         C           -4.643132627949    -0.007918881999     0.020171834598    12.000000000000
         C            3.283014372051    -1.122843881999     0.452628834598    12.000000000000
         C            3.286315372051     1.119285118001    -0.445288165402    12.000000000000
         C            3.986797372051    -0.002350881999     0.004804834598    12.000000000000
         H           -0.482301627949    -1.978128881999    -0.841542165402     1.007825032230
         H           -0.482814627949     1.984060118001     0.829357834598     1.007825032230
         H           -2.953641627949    -1.981553881999    -0.829207165402     1.007825032230
         H           -2.954030627949     1.994594118001     0.798255834598     1.007825032230
         H            1.342350372051    -1.983522881999     0.830672834598     1.007825032230
         H            1.348373372051     1.983248118001    -0.829644165402     1.007825032230
         H           -5.041523427949     0.980543618001    -0.111271965402     1.007825032230
         H           -5.048465627949    -0.645410881999    -0.770842165402     1.007825032230
         H           -5.014391627949    -0.390551881999     0.977373834598     1.007825032230
         H            3.822011372051    -1.996165881999     0.813017834598     1.007825032230
         H            3.827923372051     1.991651118001    -0.804071165402     1.007825032230
         H            5.074147372051    -0.003276881999     0.006473834598     1.007825032230

  Basis Set: AUG-CC-PVTZ
    Blend: AUG-CC-PVTZ
  Basis Set: (AUG-CC-PVTZ AUX)
    Blend: AUG-CC-PVTZ-JKFIT
	 Reference Energy          =    -499.4500754825946842 [Eh]
	 Singles Energy            =      -0.0000000000000000 [Eh]
	 Same-Spin Energy          =      -0.5653750485521166 [Eh]
	 Opposite-Spin Energy      =      -1.7794826262394499 [Eh]
	 Correlation Energy        =      -2.3448576747915664 [Eh]
	 Total Energy              =    -501.7949331573862537 [Eh]

	 ================> DF-SCS-MP2 Energies <==================
	-----------------------------------------------------------
	 SCS Same-Spin Scale       =       0.3333333333333333 [-]
	 SCS Opposite-Spin Scale   =       1.2000000000000000 [-]
	 SCS Same-Spin Energy      =      -0.1884583495173722 [Eh]
	 SCS Opposite-Spin Energy  =      -2.1353791514873399 [Eh]
	 SCS Correlation Energy    =      -2.3238375010047121 [Eh]
	 SCS Total Energy          =    -501.7739129835994163 [Eh]
	-----------------------------------------------------------

  Dipole Moment: [D]
     X:    -0.4944      Y:    -0.0065      Z:     0.0361     Total:     0.4958

*** Psi4 exiting successfully. Buy a developer a beer!
