                               Psi4 1.4a3.dev225

  ==> Input File <==

--------------------------------------------------------------------------
#psi4
#
memory 32 gb

molecule  {
0 1
  C       -0.2454721    -0.0106182    -0.0068636
  C        1.2106340     0.0001110     0.0000760
  C       -3.1008180     0.0056250    -0.0137190
  C       -0.9855960    -1.1139970    -0.4586890
  C       -0.9858100     1.1188490     0.4479860
  C       -2.3796020    -1.1098520    -0.4588000
  C       -2.3797760     1.1173260     0.4409920
  C        1.9242530    -1.1209430     0.4529070
  C        1.9275400     1.1199170    -0.4505910
  C       -4.6068780    -0.0078780     0.0198210
  C        3.3192690    -1.1228030     0.4522780
  C        3.3225700     1.1193260    -0.4456390
  C        4.0230520    -0.0023100     0.0044540
  H       -0.4460470    -1.9780880    -0.8418930
  H       -0.4465600     1.9841010     0.8290070
  H       -2.9173870    -1.9815130    -0.8295580
  H       -2.9177760     1.9946350     0.7979050
  H        1.3786050    -1.9834820     0.8303220
  H        1.3846280     1.9832890    -0.8299950
  H       -5.0126890     0.9989950    -0.1140710
  H       -5.0122110    -0.6453700    -0.7711930
  H       -4.9781370    -0.3905110     0.9770230
  H        3.8582660    -1.9961250     0.8126670
  H        3.8641780     1.9916920    -0.8044220
  H        5.1104020    -0.0032360     0.0061230
units angstrom
no_reorient  #important for SAPT in psi4, default
symmetry c1  #important for SAPT in psi4, default
}

set PROPERTIES_ORIGIN ["COM"]
properties('MP2/aug-cc-pvtz', properties = ['dipole'])
--------------------------------------------------------------------------

    Molecular point group: c1
  Charge       = 0
  Multiplicity = 1
  Basis Set: AUG-CC-PVTZ
    Blend: AUG-CC-PVTZ
  Basis Set: (AUG-CC-PVTZ AUX)
    Blend: AUG-CC-PVTZ-JKFIT

    Orbital Energies [Eh]
    ---------------------

    Doubly Occupied:

       1A    -11.244091     2A    -11.242870     3A    -11.241969
       4A    -11.237485     5A    -11.237437     6A    -11.237144
       7A    -11.235284     8A    -11.234915     9A    -11.234678
      10A    -11.234388    11A    -11.232110    12A    -11.231874
      13A    -11.225565    14A     -1.168126    15A     -1.140730
      16A     -1.066389    17A     -1.016635    18A     -1.008215
      19A     -1.004125    20A     -0.928958    21A     -0.840560
      22A     -0.834992    23A     -0.810888    24A     -0.778929
      25A     -0.712478    26A     -0.666558    27A     -0.645985
      28A     -0.642575    29A     -0.613855    30A     -0.613280
      31A     -0.587272    32A     -0.579064    33A     -0.576552
      34A     -0.572455    35A     -0.541187    36A     -0.512714
      37A     -0.508806    38A     -0.498095    39A     -0.484461
      40A     -0.480320    41A     -0.476820    42A     -0.360020
      43A     -0.337567    44A     -0.335669    45A     -0.294121

  @DF-RHF Final Energy:  -499.44859165915722

   => Energetics <=

    Nuclear Repulsion Energy =            687.3126368255587977
    One-Electron Energy =               -2038.1060332017802921
    Two-Electron Energy =                 851.3448047170643349
    Total Energy =                       -499.4485916591572732
  Basis Set: (AUG-CC-PVTZ AUX)
    Blend: AUG-CC-PVTZ-RI
    Molecular point group: c1

    Geometry (in Angstrom), charge = 0, multiplicity = 1:

       Center              X                  Y                   Z               Mass
    ------------   -----------------  -----------------  -----------------  -----------------
         C           -0.283175183462    -0.009947266538    -0.006107762264    12.000000000000
         C            1.172930916538     0.000781933462     0.000831837736    12.000000000000
         C           -3.138521083462     0.006295933462    -0.012963162264    12.000000000000
         C           -1.023299083462    -1.113326066538    -0.457933162264    12.000000000000
         C           -1.023513083462     1.119519933462     0.448741837736    12.000000000000
         C           -2.417305083462    -1.109181066538    -0.458044162264    12.000000000000
         C           -2.417479083462     1.117996933462     0.441747837736    12.000000000000
         C            1.886549916538    -1.120272066538     0.453662837736    12.000000000000
         C            1.889836916538     1.120587933462    -0.449835162264    12.000000000000
         C           -4.644581083462    -0.007207066538     0.020576837736    12.000000000000
         C            3.281565916538    -1.122132066538     0.453033837736    12.000000000000
         C            3.284866916538     1.119996933462    -0.444883162264    12.000000000000
         C            3.985348916538    -0.001639066538     0.005209837736    12.000000000000
         H           -0.483750083462    -1.977417066538    -0.841137162264     1.007825032230
         H           -0.484263083462     1.984771933462     0.829762837736     1.007825032230
         H           -2.955090083462    -1.980842066538    -0.828802162264     1.007825032230
         H           -2.955479083462     1.995305933462     0.798660837736     1.007825032230
         H            1.340901916538    -1.982811066538     0.831077837736     1.007825032230
         H            1.346924916538     1.983959933462    -0.829239162264     1.007825032230
         H           -5.050392083462     0.999665933462    -0.113315162264     1.007825032230
         H           -5.049914083462    -0.644699066538    -0.770437162264     1.007825032230
         H           -5.015840083462    -0.389840066538     0.977778837736     1.007825032230
         H            3.820562916538    -1.995454066538     0.813422837736     1.007825032230
         H            3.826474916538     1.992362933462    -0.803666162264     1.007825032230
         H            5.072698916538    -0.002565066538     0.006878837736     1.007825032230

  Basis Set: AUG-CC-PVTZ
    Blend: AUG-CC-PVTZ
  Basis Set: (AUG-CC-PVTZ AUX)
    Blend: AUG-CC-PVTZ-JKFIT
	 Reference Energy          =    -499.4485916591572163 [Eh]
	 Singles Energy            =      -0.0000000000000000 [Eh]
	 Same-Spin Energy          =      -0.5656757045740126 [Eh]
	 Opposite-Spin Energy      =      -1.7801079654332690 [Eh]
	 Correlation Energy        =      -2.3457836700072816 [Eh]
	 Total Energy              =    -501.7943753291644953 [Eh]

	 ================> DF-SCS-MP2 Energies <==================
	-----------------------------------------------------------
	 SCS Same-Spin Scale       =       0.3333333333333333 [-]
	 SCS Opposite-Spin Scale   =       1.2000000000000000 [-]
	 SCS Same-Spin Energy      =      -0.1885585681913375 [Eh]
	 SCS Opposite-Spin Energy  =      -2.1361295585199227 [Eh]
	 SCS Correlation Energy    =      -2.3246881267112602 [Eh]
	 SCS Total Energy          =    -501.7732797858684535 [Eh]
	-----------------------------------------------------------

  Dipole Moment: [D]
     X:    -0.4567      Y:    -0.0117      Z:     0.0365     Total:     0.4583

*** Psi4 exiting successfully. Buy a developer a beer!
