                               Psi4 1.4a3.dev225

  ==> Input File <==

--------------------------------------------------------------------------
#psi4
#
memory 32 gb

molecule  {
0 1
  C       -0.2663850     0.0008990    -0.0013960
  C        1.2106340     0.0001110     0.0000760
  C       -3.1008180     0.0056250    -0.0137190
  C       -0.9855960    -1.1139970    -0.4586890
  C       -0.9858100     1.1188490     0.4479860
  C       -2.3794550    -1.1320853    -0.4686792
  C       -2.3797760     1.1173260     0.4409920
  C        1.9242530    -1.1209430     0.4529070
  C        1.9275400     1.1199170    -0.4505910
  C       -4.6068780    -0.0078780     0.0198210
  C        3.3192690    -1.1228030     0.4522780
  C        3.3225700     1.1193260    -0.4456390
  C        4.0230520    -0.0023100     0.0044540
  H       -0.4460470    -1.9780880    -0.8418930
  H       -0.4465600     1.9841010     0.8290070
  H       -2.9173870    -1.9815130    -0.8295580
  H       -2.9177760     1.9946350     0.7979050
  H        1.3786050    -1.9834820     0.8303220
  H        1.3846280     1.9832890    -0.8299950
  H       -5.0126890     0.9989950    -0.1140710
  H       -5.0122110    -0.6453700    -0.7711930
  H       -4.9781370    -0.3905110     0.9770230
  H        3.8582660    -1.9961250     0.8126670
  H        3.8641780     1.9916920    -0.8044220
  H        5.1104020    -0.0032360     0.0061230
units angstrom
no_reorient  #important for SAPT in psi4, default
symmetry c1  #important for SAPT in psi4, default
}

set PROPERTIES_ORIGIN ["COM"]
properties('MP2/aug-cc-pvtz', properties = ['dipole'])
--------------------------------------------------------------------------

    Molecular point group: c1
  Charge       = 0
  Multiplicity = 1
  Basis Set: AUG-CC-PVTZ
    Blend: AUG-CC-PVTZ
  Basis Set: (AUG-CC-PVTZ AUX)
    Blend: AUG-CC-PVTZ-JKFIT

    Orbital Energies [Eh]
    ---------------------

    Doubly Occupied:

       1A    -11.245092     2A    -11.244964     3A    -11.241139
       4A    -11.237054     5A    -11.236808     6A    -11.235732
       7A    -11.235530     8A    -11.234394     9A    -11.234214
      10A    -11.233992    11A    -11.232578    12A    -11.231855
      13A    -11.225433    14A     -1.167188    15A     -1.140054
      16A     -1.064211    17A     -1.017042    18A     -1.009017
      19A     -1.003912    20A     -0.928291    21A     -0.840936
      22A     -0.831924    23A     -0.811471    24A     -0.779664
      25A     -0.712278    26A     -0.666432    27A     -0.645415
      28A     -0.642001    29A     -0.615492    30A     -0.613070
      31A     -0.588298    32A     -0.581079    33A     -0.575944
      34A     -0.570711    35A     -0.542181    36A     -0.512041
      37A     -0.508343    38A     -0.497501    39A     -0.482983
      40A     -0.480339    41A     -0.477953    42A     -0.358211
      43A     -0.337649    44A     -0.335910    45A     -0.295019

  @DF-RHF Final Energy:  -499.44908227835333

   => Energetics <=

    Nuclear Repulsion Energy =            686.9465251293554502
    One-Electron Energy =               -2037.3885276246953708
    Two-Electron Energy =                 850.9929202169865903
    Total Energy =                       -499.4490822783533304
  Basis Set: (AUG-CC-PVTZ AUX)
    Blend: AUG-CC-PVTZ-RI
    Molecular point group: c1

    Geometry (in Angstrom), charge = 0, multiplicity = 1:

       Center              X                  Y                   Z               Mass
    ------------   -----------------  -----------------  -----------------  -----------------
         C           -0.302605633477     0.002334941590    -0.000325224007    12.000000000000
         C            1.174413366523     0.001546941590     0.001146775993    12.000000000000
         C           -3.137038633477     0.007060941590    -0.012648224007    12.000000000000
         C           -1.021816633477    -1.112561058410    -0.457618224007    12.000000000000
         C           -1.022030633477     1.120284941590     0.449056775993    12.000000000000
         C           -2.415675633477    -1.130649358410    -0.467608424007    12.000000000000
         C           -2.415996633477     1.118761941590     0.442062775993    12.000000000000
         C            1.888032366523    -1.119507058410     0.453977775993    12.000000000000
         C            1.891319366523     1.121352941590    -0.449520224007    12.000000000000
         C           -4.643098633477    -0.006442058410     0.020891775993    12.000000000000
         C            3.283048366523    -1.121367058410     0.453348775993    12.000000000000
         C            3.286349366523     1.120761941590    -0.444568224007    12.000000000000
         C            3.986831366523    -0.000874058410     0.005524775993    12.000000000000
         H           -0.482267633477    -1.976652058410    -0.840822224007     1.007825032230
         H           -0.482780633477     1.985536941590     0.830077775993     1.007825032230
         H           -2.953607633477    -1.980077058410    -0.828487224007     1.007825032230
         H           -2.953996633477     1.996070941590     0.798975775993     1.007825032230
         H            1.342384366523    -1.982046058410     0.831392775993     1.007825032230
         H            1.348407366523     1.984724941590    -0.828924224007     1.007825032230
         H           -5.048909633477     1.000430941590    -0.113000224007     1.007825032230
         H           -5.048431633477    -0.643934058410    -0.770122224007     1.007825032230
         H           -5.014357633477    -0.389075058410     0.978093775993     1.007825032230
         H            3.822045366523    -1.994689058410     0.813737775993     1.007825032230
         H            3.827957366523     1.993127941590    -0.803351224007     1.007825032230
         H            5.074181366523    -0.001800058410     0.007193775993     1.007825032230

  Basis Set: AUG-CC-PVTZ
    Blend: AUG-CC-PVTZ
  Basis Set: (AUG-CC-PVTZ AUX)
    Blend: AUG-CC-PVTZ-JKFIT
	 Reference Energy          =    -499.4490822783533304 [Eh]
	 Singles Energy            =      -0.0000000000000000 [Eh]
	 Same-Spin Energy          =      -0.5653555028446218 [Eh]
	 Opposite-Spin Energy      =      -1.7797168186102681 [Eh]
	 Correlation Energy        =      -2.3450723214548899 [Eh]
	 Total Energy              =    -501.7941545998082233 [Eh]

	 ================> DF-SCS-MP2 Energies <==================
	-----------------------------------------------------------
	 SCS Same-Spin Scale       =       0.3333333333333333 [-]
	 SCS Opposite-Spin Scale   =       1.2000000000000000 [-]
	 SCS Same-Spin Energy      =      -0.1884518342815406 [Eh]
	 SCS Opposite-Spin Energy  =      -2.1356601823323218 [Eh]
	 SCS Correlation Energy    =      -2.3241120166138622 [Eh]
	 SCS Total Energy          =    -501.7731942949671975 [Eh]
	-----------------------------------------------------------

  Dipole Moment: [D]
     X:    -0.4954      Y:    -0.0221      Z:     0.0348     Total:     0.4971

*** Psi4 exiting successfully. Buy a developer a beer!
