                               Psi4 1.4a3.dev225

  ==> Input File <==

--------------------------------------------------------------------------
#psi4
#
memory 32 gb

molecule  {
0 1
  C       -0.2663850     0.0008990    -0.0013960
  C        1.2106340     0.0001110     0.0000760
  C       -3.1008180     0.0056250    -0.0137190
  C       -0.9855960    -1.1139970    -0.4586890
  C       -0.9858100     1.1188490     0.4479860
  C       -2.3796020    -1.1098520    -0.4588000
  C       -2.3797760     1.1173260     0.4409920
  C        1.9242530    -1.1209430     0.4529070
  C        1.9275400     1.1199170    -0.4505910
  C       -4.6068780    -0.0078780     0.0198210
  C        3.3192690    -1.1228030     0.4522780
  C        3.3225700     1.1193260    -0.4456390
  C        4.0230520    -0.0023100     0.0044540
  H       -0.4460470    -1.9780880    -0.8418930
  H       -0.3474702     2.1430953     0.8990215
  H       -2.9173870    -1.9815130    -0.8295580
  H       -2.9177760     1.9946350     0.7979050
  H        1.3786050    -1.9834820     0.8303220
  H        1.3846280     1.9832890    -0.8299950
  H       -5.0126890     0.9989950    -0.1140710
  H       -5.0122110    -0.6453700    -0.7711930
  H       -4.9781370    -0.3905110     0.9770230
  H        3.8582660    -1.9961250     0.8126670
  H        3.8641780     1.9916920    -0.8044220
  H        5.1104020    -0.0032360     0.0061230
units angstrom
no_reorient  #important for SAPT in psi4, default
symmetry c1  #important for SAPT in psi4, default
}

set PROPERTIES_ORIGIN ["COM"]
properties('MP2/aug-cc-pvtz', properties = ['dipole'])
--------------------------------------------------------------------------

    Molecular point group: c1
  Charge       = 0
  Multiplicity = 1
  Basis Set: AUG-CC-PVTZ
    Blend: AUG-CC-PVTZ
  Basis Set: (AUG-CC-PVTZ AUX)
    Blend: AUG-CC-PVTZ-JKFIT

    Orbital Energies [Eh]
    ---------------------

    Doubly Occupied:

       1A    -11.256604     2A    -11.244969     3A    -11.244233
       4A    -11.243559     5A    -11.236996     6A    -11.236844
       7A    -11.236545     8A    -11.234422     9A    -11.234378
      10A    -11.234113    11A    -11.233788    12A    -11.233138
      13A    -11.226508    14A     -1.168233    15A     -1.141713
      16A     -1.065645    17A     -1.015537    18A     -1.007485
      19A     -1.003700    20A     -0.929725    21A     -0.838842
      22A     -0.831177    23A     -0.808359    24A     -0.776638
      25A     -0.710577    26A     -0.665204    27A     -0.646974
      28A     -0.632868    29A     -0.613832    30A     -0.608904
      31A     -0.585546    32A     -0.577674    33A     -0.572605
      34A     -0.566263    35A     -0.541546    36A     -0.511420
      37A     -0.508628    38A     -0.495548    39A     -0.482545
      40A     -0.481581    41A     -0.469957    42A     -0.359549
      43A     -0.338368    44A     -0.335932    45A     -0.296886

  @DF-RHF Final Energy:  -499.42759326923203

   => Energetics <=

    Nuclear Repulsion Energy =            686.4326091153802736
    One-Electron Energy =               -2036.3492927413371945
    Two-Electron Energy =                 850.4890903567248870
    Total Energy =                       -499.4275932692320339
  Basis Set: (AUG-CC-PVTZ AUX)
    Blend: AUG-CC-PVTZ-RI
    Molecular point group: c1

    Geometry (in Angstrom), charge = 0, multiplicity = 1:

       Center              X                  Y                   Z               Mass
    ------------   -----------------  -----------------  -----------------  -----------------
         C           -0.303189242880    -0.000205531530    -0.001450266410    12.000000000000
         C            1.173829757120    -0.000993531530     0.000021733590    12.000000000000
         C           -3.137622242880     0.004520468470    -0.013773266410    12.000000000000
         C           -1.022400242880    -1.115101531530    -0.458743266410    12.000000000000
         C           -1.022614242880     1.117744468470     0.447931733590    12.000000000000
         C           -2.416406242880    -1.110956531530    -0.458854266410    12.000000000000
         C           -2.416580242880     1.116221468470     0.440937733590    12.000000000000
         C            1.887448757120    -1.122047531530     0.452852733590    12.000000000000
         C            1.890735757120     1.118812468470    -0.450645266410    12.000000000000
         C           -4.643682242880    -0.008982531530     0.019766733590    12.000000000000
         C            3.282464757120    -1.123907531530     0.452223733590    12.000000000000
         C            3.285765757120     1.118221468470    -0.445693266410    12.000000000000
         C            3.986247757120    -0.003414531530     0.004399733590    12.000000000000
         H           -0.482851242880    -1.979192531530    -0.841947266410     1.007825032230
         H           -0.384274442880     2.141990768470     0.898967233590     1.007825032230
         H           -2.954191242880    -1.982617531530    -0.829612266410     1.007825032230
         H           -2.954580242880     1.993530468470     0.797850733590     1.007825032230
         H            1.341800757120    -1.984586531530     0.830267733590     1.007825032230
         H            1.347823757120     1.982184468470    -0.830049266410     1.007825032230
         H           -5.049493242880     0.997890468470    -0.114125266410     1.007825032230
         H           -5.049015242880    -0.646474531530    -0.771247266410     1.007825032230
         H           -5.014941242880    -0.391615531530     0.976968733590     1.007825032230
         H            3.821461757120    -1.997229531530     0.812612733590     1.007825032230
         H            3.827373757120     1.990587468470    -0.804476266410     1.007825032230
         H            5.073597757120    -0.004340531530     0.006068733590     1.007825032230

  Basis Set: AUG-CC-PVTZ
    Blend: AUG-CC-PVTZ
  Basis Set: (AUG-CC-PVTZ AUX)
    Blend: AUG-CC-PVTZ-JKFIT
	 Reference Energy          =    -499.4275932692320339 [Eh]
	 Singles Energy            =      -0.0000000000000000 [Eh]
	 Same-Spin Energy          =      -0.5660798101969878 [Eh]
	 Opposite-Spin Energy      =      -1.7821057326947751 [Eh]
	 Correlation Energy        =      -2.3481855428917631 [Eh]
	 Total Energy              =    -501.7757788121238036 [Eh]

	 ================> DF-SCS-MP2 Energies <==================
	-----------------------------------------------------------
	 SCS Same-Spin Scale       =       0.3333333333333333 [-]
	 SCS Opposite-Spin Scale   =       1.2000000000000000 [-]
	 SCS Same-Spin Energy      =      -0.1886932700656626 [Eh]
	 SCS Opposite-Spin Energy  =      -2.1385268792337300 [Eh]
	 SCS Correlation Energy    =      -2.3272201492993925 [Eh]
	 SCS Total Energy          =    -501.7548134185313984 [Eh]
	-----------------------------------------------------------

  Dipole Moment: [D]
     X:    -0.5479      Y:    -0.0826      Z:     0.0035     Total:     0.5541

*** Psi4 exiting successfully. Buy a developer a beer!
