                               Psi4 1.4a3.dev225

  ==> Input File <==

--------------------------------------------------------------------------
#psi4
#
memory 32 gb

molecule  {
0 1
  C       -0.1443646    -0.0748408    -0.0322403
  C        1.2106340     0.0001110     0.0000760
  C       -3.1008180     0.0056250    -0.0137190
  C       -0.9855960    -1.1139970    -0.4586890
  C       -0.9858100     1.1188490     0.4479860
  C       -2.3796020    -1.1098520    -0.4588000
  C       -2.3797760     1.1173260     0.4409920
  C        1.9242530    -1.1209430     0.4529070
  C        1.9275400     1.1199170    -0.4505910
  C       -4.6068780    -0.0078780     0.0198210
  C        3.3192690    -1.1228030     0.4522780
  C        3.3225700     1.1193260    -0.4456390
  C        4.0230520    -0.0023100     0.0044540
  H       -0.4460470    -1.9780880    -0.8418930
  H       -0.4465600     1.9841010     0.8290070
  H       -2.9173870    -1.9815130    -0.8295580
  H       -2.9177760     1.9946350     0.7979050
  H        1.3786050    -1.9834820     0.8303220
  H        1.3846280     1.9832890    -0.8299950
  H       -5.0126890     0.9989950    -0.1140710
  H       -5.0122110    -0.6453700    -0.7711930
  H       -4.9781370    -0.3905110     0.9770230
  H        3.8582660    -1.9961250     0.8126670
  H        3.8641780     1.9916920    -0.8044220
  H        5.1104020    -0.0032360     0.0061230
units angstrom
no_reorient  #important for SAPT in psi4, default
symmetry c1  #important for SAPT in psi4, default
}

set PROPERTIES_ORIGIN ["COM"]
properties('MP2/aug-cc-pvtz', properties = ['dipole'])
--------------------------------------------------------------------------

    Molecular point group: c1
  Charge       = 0
  Multiplicity = 1
  Basis Set: AUG-CC-PVTZ
    Blend: AUG-CC-PVTZ
  Basis Set: (AUG-CC-PVTZ AUX)
    Blend: AUG-CC-PVTZ-JKFIT

    Orbital Energies [Eh]
    ---------------------

    Doubly Occupied:

       1A    -11.247329     2A    -11.245810     3A    -11.244265
       4A    -11.239258     5A    -11.238690     6A    -11.238116
       7A    -11.237297     8A    -11.236362     9A    -11.236297
      10A    -11.235305    11A    -11.232092    12A    -11.231341
      13A    -11.225923    14A     -1.172362    15A     -1.137337
      16A     -1.074334    17A     -1.017290    18A     -1.008227
      19A     -1.000436    20A     -0.929571    21A     -0.846108
      22A     -0.840575    23A     -0.808051    24A     -0.775173
      25A     -0.715848    26A     -0.669769    27A     -0.649670
      28A     -0.643029    29A     -0.615070    30A     -0.611916
      31A     -0.587748    32A     -0.583039    33A     -0.576284
      34A     -0.569450    35A     -0.540378    36A     -0.513225
      37A     -0.510643    38A     -0.499761    39A     -0.497930
      40A     -0.474439    41A     -0.458935    42A     -0.365040
      43A     -0.338829    44A     -0.334745    45A     -0.283491

  @DF-RHF Final Energy:  -499.41954253511000

   => Energetics <=

    Nuclear Repulsion Energy =            687.3351417559423453
    One-Electron Energy =               -2038.0357897539872738
    Two-Electron Energy =                 851.2811054629351020
    Total Energy =                       -499.4195425351099402
  Basis Set: (AUG-CC-PVTZ AUX)
    Blend: AUG-CC-PVTZ-RI
    Molecular point group: c1

    Geometry (in Angstrom), charge = 0, multiplicity = 1:

       Center              X                  Y                   Z               Mass
    ------------   -----------------  -----------------  -----------------  -----------------
         C           -0.189285613423    -0.069585100534    -0.029672853399    12.000000000000
         C            1.165712986577     0.005366699466     0.002643446601    12.000000000000
         C           -3.145739013423     0.010880699466    -0.011151553399    12.000000000000
         C           -1.030517013423    -1.108741300534    -0.456121553399    12.000000000000
         C           -1.030731013423     1.124104699466     0.450553446601    12.000000000000
         C           -2.424523013423    -1.104596300534    -0.456232553399    12.000000000000
         C           -2.424697013423     1.122581699466     0.443559446601    12.000000000000
         C            1.879331986577    -1.115687300534     0.455474446601    12.000000000000
         C            1.882618986577     1.125172699466    -0.448023553399    12.000000000000
         C           -4.651799013423    -0.002622300534     0.022388446601    12.000000000000
         C            3.274347986577    -1.117547300534     0.454845446601    12.000000000000
         C            3.277648986577     1.124581699466    -0.443071553399    12.000000000000
         C            3.978130986577     0.002945699466     0.007021446601    12.000000000000
         H           -0.490968013423    -1.972832300534    -0.839325553399     1.007825032230
         H           -0.491481013423     1.989356699466     0.831574446601     1.007825032230
         H           -2.962308013423    -1.976257300534    -0.826990553399     1.007825032230
         H           -2.962697013423     1.999890699466     0.800472446601     1.007825032230
         H            1.333683986577    -1.978226300534     0.832889446601     1.007825032230
         H            1.339706986577     1.988544699466    -0.827427553399     1.007825032230
         H           -5.057610013423     1.004250699466    -0.111503553399     1.007825032230
         H           -5.057132013423    -0.640114300534    -0.768625553399     1.007825032230
         H           -5.023058013423    -0.385255300534     0.979590446601     1.007825032230
         H            3.813344986577    -1.990869300534     0.815234446601     1.007825032230
         H            3.819256986577     1.996947699466    -0.801854553399     1.007825032230
         H            5.065480986577     0.002019699466     0.008690446601     1.007825032230

  Basis Set: AUG-CC-PVTZ
    Blend: AUG-CC-PVTZ
  Basis Set: (AUG-CC-PVTZ AUX)
    Blend: AUG-CC-PVTZ-JKFIT
	 Reference Energy          =    -499.4195425351099971 [Eh]
	 Singles Energy            =      -0.0000000000000000 [Eh]
	 Same-Spin Energy          =      -0.5677854832137649 [Eh]
	 Opposite-Spin Energy      =      -1.7841138724559940 [Eh]
	 Correlation Energy        =      -2.3518993556697589 [Eh]
	 Total Energy              =    -501.7714418907797835 [Eh]

	 ================> DF-SCS-MP2 Energies <==================
	-----------------------------------------------------------
	 SCS Same-Spin Scale       =       0.3333333333333333 [-]
	 SCS Opposite-Spin Scale   =       1.2000000000000000 [-]
	 SCS Same-Spin Energy      =      -0.1892618277379216 [Eh]
	 SCS Opposite-Spin Energy  =      -2.1409366469471927 [Eh]
	 SCS Correlation Energy    =      -2.3301984746851141 [Eh]
	 SCS Total Energy          =    -501.7497410097951160 [Eh]
	-----------------------------------------------------------

  Dipole Moment: [D]
     X:    -0.3085      Y:    -0.0015      Z:     0.0361     Total:     0.3106

*** Psi4 exiting successfully. Buy a developer a beer!
