                               Psi4 1.4a3.dev225

  ==> Input File <==

--------------------------------------------------------------------------
#psi4
#
memory 32 gb

molecule  {
0 1
  C       -0.2663850     0.0008990    -0.0013960
  C        1.2106340     0.0001110     0.0000760
  C       -3.1008180     0.0056250    -0.0137190
  C       -0.9855960    -1.1139970    -0.4586890
  C       -0.9858100     1.1188490     0.4479860
  C       -2.3796020    -1.1098520    -0.4588000
  C       -2.3797760     1.1173260     0.4409920
  C        1.9242530    -1.1209430     0.4529070
  C        1.9275400     1.1199170    -0.4505910
  C       -4.6068780    -0.0078780     0.0198210
  C        3.3192690    -1.1228030     0.4522780
  C        3.3225700     1.1193260    -0.4456390
  C        3.9222893    -0.1627343     0.0685703
  H       -0.4460470    -1.9780880    -0.8418930
  H       -0.4465600     1.9841010     0.8290070
  H       -2.9173870    -1.9815130    -0.8295580
  H       -2.9177760     1.9946350     0.7979050
  H        1.3786050    -1.9834820     0.8303220
  H        1.3846280     1.9832890    -0.8299950
  H       -5.0126890     0.9989950    -0.1140710
  H       -5.0122110    -0.6453700    -0.7711930
  H       -4.9781370    -0.3905110     0.9770230
  H        3.8582660    -1.9961250     0.8126670
  H        3.8641780     1.9916920    -0.8044220
  H        5.1104020    -0.0032360     0.0061230
units angstrom
no_reorient  #important for SAPT in psi4, default
symmetry c1  #important for SAPT in psi4, default
}

set PROPERTIES_ORIGIN ["COM"]
properties('MP2/aug-cc-pvtz', properties = ['dipole'])
--------------------------------------------------------------------------

    Molecular point group: c1
  Charge       = 0
  Multiplicity = 1
  Basis Set: AUG-CC-PVTZ
    Blend: AUG-CC-PVTZ
  Basis Set: (AUG-CC-PVTZ AUX)
    Blend: AUG-CC-PVTZ-JKFIT

    Orbital Energies [Eh]
    ---------------------

    Doubly Occupied:

       1A    -11.245977     2A    -11.243616     3A    -11.242190
       4A    -11.240991     5A    -11.235109     6A    -11.235062
       7A    -11.234847     8A    -11.234603     9A    -11.231926
      10A    -11.231627    11A    -11.229230    12A    -11.225280
      13A    -11.208833    14A     -1.175370    15A     -1.149978
      16A     -1.074531    17A     -1.027723    18A     -1.012055
      19A     -0.995199    20A     -0.928627    21A     -0.848308
      22A     -0.827771    23A     -0.808565    24A     -0.776536
      25A     -0.713870    26A     -0.655957    27A     -0.648581
      28A     -0.640942    29A     -0.622331    30A     -0.615952
      31A     -0.593985    32A     -0.581994    33A     -0.576065
      34A     -0.558729    35A     -0.541788    36A     -0.518598
      37A     -0.514544    38A     -0.492342    39A     -0.486087
      40A     -0.482211    41A     -0.448454    42A     -0.376475
      43A     -0.336927    44A     -0.335380    45A     -0.294967

  @DF-RHF Final Energy:  -499.38777155806969

   => Energetics <=

    Nuclear Repulsion Energy =            689.6731421332816581
    One-Electron Energy =               -2042.7215603745535191
    Two-Electron Energy =                 853.6606466832023443
    Total Energy =                       -499.3877715580696304
  Basis Set: (AUG-CC-PVTZ AUX)
    Blend: AUG-CC-PVTZ-RI
    Molecular point group: c1

    Geometry (in Angstrom), charge = 0, multiplicity = 1:

       Center              X                  Y                   Z               Mass
    ------------   -----------------  -----------------  -----------------  -----------------
         C           -0.295401824194     0.012200213299    -0.005607664345    12.000000000000
         C            1.181617175806     0.011412213299    -0.004135664345    12.000000000000
         C           -3.129834824194     0.016926213299    -0.017930664345    12.000000000000
         C           -1.014612824194    -1.102695786701    -0.462900664345    12.000000000000
         C           -1.014826824194     1.130150213299     0.443774335655    12.000000000000
         C           -2.408618824194    -1.098550786701    -0.463011664345    12.000000000000
         C           -2.408792824194     1.128627213299     0.436780335655    12.000000000000
         C            1.895236175806    -1.109641786701     0.448695335655    12.000000000000
         C            1.898523175806     1.131218213299    -0.454802664345    12.000000000000
         C           -4.635894824194     0.003423213299     0.015609335655    12.000000000000
         C            3.290252175806    -1.111501786701     0.448066335655    12.000000000000
         C            3.293553175806     1.130627213299    -0.449850664345    12.000000000000
         C            3.893272475806    -0.151433086701     0.064358635655    12.000000000000
         H           -0.475063824194    -1.966786786701    -0.846104664345     1.007825032230
         H           -0.475576824194     1.995402213299     0.824795335655     1.007825032230
         H           -2.946403824194    -1.970211786701    -0.833769664345     1.007825032230
         H           -2.946792824194     2.005936213299     0.793693335655     1.007825032230
         H            1.349588175806    -1.972180786701     0.826110335655     1.007825032230
         H            1.355611175806     1.994590213299    -0.834206664345     1.007825032230
         H           -5.041705824194     1.010296213299    -0.118282664345     1.007825032230
         H           -5.041227824194    -0.634068786701    -0.775404664345     1.007825032230
         H           -5.007153824194    -0.379209786701     0.972811335655     1.007825032230
         H            3.829249175806    -1.984823786701     0.808455335655     1.007825032230
         H            3.835161175806     2.002993213299    -0.808633664345     1.007825032230
         H            5.081385175806     0.008065213299     0.001911335655     1.007825032230

  Basis Set: AUG-CC-PVTZ
    Blend: AUG-CC-PVTZ
  Basis Set: (AUG-CC-PVTZ AUX)
    Blend: AUG-CC-PVTZ-JKFIT
	 Reference Energy          =    -499.3877715580696872 [Eh]
	 Singles Energy            =      -0.0000000000000000 [Eh]
	 Same-Spin Energy          =      -0.5649226715805743 [Eh]
	 Opposite-Spin Energy      =      -1.7811450621210441 [Eh]
	 Correlation Energy        =      -2.3460677337016183 [Eh]
	 Total Energy              =    -501.7338392917712895 [Eh]

	 ================> DF-SCS-MP2 Energies <==================
	-----------------------------------------------------------
	 SCS Same-Spin Scale       =       0.3333333333333333 [-]
	 SCS Opposite-Spin Scale   =       1.2000000000000000 [-]
	 SCS Same-Spin Energy      =      -0.1883075571935248 [Eh]
	 SCS Opposite-Spin Energy  =      -2.1373740745452530 [Eh]
	 SCS Correlation Energy    =      -2.3256816317387776 [Eh]
	 SCS Total Energy          =    -501.7134531898084902 [Eh]
	-----------------------------------------------------------

  Dipole Moment: [D]
     X:    -0.5354      Y:     0.0149      Z:     0.0280     Total:     0.5363

*** Psi4 exiting successfully. Buy a developer a beer!
