                               Psi4 1.4a3.dev225

  ==> Input File <==

--------------------------------------------------------------------------
#psi4
#
memory 32 gb

molecule  {
0 1
  C       -0.2663850     0.0008990    -0.0013960
  C        1.2106340     0.0001110     0.0000760
  C       -3.1008180     0.0056250    -0.0137190
  C       -0.9855960    -1.1139970    -0.4586890
  C       -0.9858100     1.1188490     0.4479860
  C       -2.3796020    -1.1098520    -0.4588000
  C       -2.3797760     1.1173260     0.4409920
  C        1.9242530    -1.1209430     0.4529070
  C        1.9275400     1.1199170    -0.4505910
  C       -4.6068780    -0.0078780     0.0198210
  C        3.3192690    -1.1228030     0.4522780
  C        3.3225700     1.1193260    -0.4456390
  C        4.0230520    -0.0023100     0.0044540
  H       -0.4460470    -1.9780880    -0.8418930
  H       -0.4465600     1.9841010     0.8290070
  H       -2.9173870    -1.9815130    -0.8295580
  H       -2.9177760     1.9946350     0.7979050
  H        1.3284621    -2.0627460     0.8650050
  H        1.3846280     1.9832890    -0.8299950
  H       -5.0126890     0.9989950    -0.1140710
  H       -5.0122110    -0.6453700    -0.7711930
  H       -4.9781370    -0.3905110     0.9770230
  H        3.8582660    -1.9961250     0.8126670
  H        3.8641780     1.9916920    -0.8044220
  H        5.1104020    -0.0032360     0.0061230
units angstrom
no_reorient  #important for SAPT in psi4, default
symmetry c1  #important for SAPT in psi4, default
}

set PROPERTIES_ORIGIN ["COM"]
properties('MP2/aug-cc-pvtz', properties = ['dipole'])
--------------------------------------------------------------------------

    Molecular point group: c1
  Charge       = 0
  Multiplicity = 1
  Basis Set: AUG-CC-PVTZ
    Blend: AUG-CC-PVTZ
  Basis Set: (AUG-CC-PVTZ AUX)
    Blend: AUG-CC-PVTZ-JKFIT

    Orbital Energies [Eh]
    ---------------------

    Doubly Occupied:

       1A    -11.246491     2A    -11.245289     3A    -11.242503
       4A    -11.241182     5A    -11.237927     6A    -11.237502
       7A    -11.235280     8A    -11.235247     9A    -11.235006
      10A    -11.234958    11A    -11.231947    12A    -11.231837
      13A    -11.225424    14A     -1.167983    15A     -1.141427
      16A     -1.065394    17A     -1.015820    18A     -1.008061
      19A     -1.003851    20A     -0.928611    21A     -0.839603
      22A     -0.832174    23A     -0.809113    24A     -0.779181
      25A     -0.709557    26A     -0.662128    27A     -0.646024
      28A     -0.640783    29A     -0.613991    30A     -0.611196
      31A     -0.584909    32A     -0.577803    33A     -0.576210
      34A     -0.569289    35A     -0.541253    36A     -0.512224
      37A     -0.508288    38A     -0.494978    39A     -0.482026
      40A     -0.480977    41A     -0.477042    42A     -0.359413
      43A     -0.337824    44A     -0.335911    45A     -0.296353

  @DF-RHF Final Energy:  -499.44251177590223

   => Energetics <=

    Nuclear Repulsion Energy =            686.8783722613090958
    One-Electron Energy =               -2037.2617886909556546
    Two-Electron Energy =                 850.9409046537443828
    Total Energy =                       -499.4425117759021759
  Basis Set: (AUG-CC-PVTZ AUX)
    Blend: AUG-CC-PVTZ-RI
    Molecular point group: c1

    Geometry (in Angstrom), charge = 0, multiplicity = 1:

       Center              X                  Y                   Z               Mass
    ------------   -----------------  -----------------  -----------------  -----------------
         C           -0.302294502201     0.001222971695    -0.001238432608    12.000000000000
         C            1.174724497799     0.000434971695     0.000233567392    12.000000000000
         C           -3.136727502201     0.005948971695    -0.013561432608    12.000000000000
         C           -1.021505502201    -1.113673028305    -0.458531432608    12.000000000000
         C           -1.021719502201     1.119172971695     0.448143567392    12.000000000000
         C           -2.415511502201    -1.109528028305    -0.458642432608    12.000000000000
         C           -2.415685502201     1.117649971695     0.441149567392    12.000000000000
         C            1.888343497799    -1.120619028305     0.453064567392    12.000000000000
         C            1.891630497799     1.120240971695    -0.450433432608    12.000000000000
         C           -4.642787502201    -0.007554028305     0.019978567392    12.000000000000
         C            3.283359497799    -1.122479028305     0.452435567392    12.000000000000
         C            3.286660497799     1.119649971695    -0.445481432608    12.000000000000
         C            3.987142497799    -0.001986028305     0.004611567392    12.000000000000
         H           -0.481956502201    -1.977764028305    -0.841735432608     1.007825032230
         H           -0.482469502201     1.984424971695     0.829164567392     1.007825032230
         H           -2.953296502201    -1.981189028305    -0.829400432608     1.007825032230
         H           -2.953685502201     1.994958971695     0.798062567392     1.007825032230
         H            1.292552597799    -2.062422028305     0.865162567392     1.007825032230
         H            1.348718497799     1.983612971695    -0.829837432608     1.007825032230
         H           -5.048598502201     0.999318971695    -0.113913432608     1.007825032230
         H           -5.048120502201    -0.645046028305    -0.771035432608     1.007825032230
         H           -5.014046502201    -0.390187028305     0.977180567392     1.007825032230
         H            3.822356497799    -1.995801028305     0.812824567392     1.007825032230
         H            3.828268497799     1.992015971695    -0.804264432608     1.007825032230
         H            5.074492497799    -0.002912028305     0.006280567392     1.007825032230

  Basis Set: AUG-CC-PVTZ
    Blend: AUG-CC-PVTZ
  Basis Set: (AUG-CC-PVTZ AUX)
    Blend: AUG-CC-PVTZ-JKFIT
	 Reference Energy          =    -499.4425117759022328 [Eh]
	 Singles Energy            =      -0.0000000000000000 [Eh]
	 Same-Spin Energy          =      -0.5656945363971548 [Eh]
	 Opposite-Spin Energy      =      -1.7806405759768924 [Eh]
	 Correlation Energy        =      -2.3463351123740472 [Eh]
	 Total Energy              =    -501.7888468882762822 [Eh]

	 ================> DF-SCS-MP2 Energies <==================
	-----------------------------------------------------------
	 SCS Same-Spin Scale       =       0.3333333333333333 [-]
	 SCS Opposite-Spin Scale   =       1.2000000000000000 [-]
	 SCS Same-Spin Energy      =      -0.1885648454657183 [Eh]
	 SCS Opposite-Spin Energy  =      -2.1367686911722710 [Eh]
	 SCS Correlation Energy    =      -2.3253335366379893 [Eh]
	 SCS Total Energy          =    -501.7678453125402029 [Eh]
	-----------------------------------------------------------

  Dipole Moment: [D]
     X:    -0.4613      Y:     0.0139      Z:     0.0235     Total:     0.4621

*** Psi4 exiting successfully. Buy a developer a beer!
