                               Psi4 1.4a3.dev225

  ==> Input File <==

--------------------------------------------------------------------------
#psi4
#
memory 32 gb

molecule  {
0 1
  C       -0.2663850     0.0008990    -0.0013960
  C        1.2106340     0.0001110     0.0000760
  C       -3.1008180     0.0056250    -0.0137190
  C       -0.9855960    -1.1139970    -0.4586890
  C       -0.9858100     1.1188490     0.4479860
  C       -2.3796020    -1.1098520    -0.4588000
  C       -2.3997757     1.1173041     0.4408917
  C        1.9242530    -1.1209430     0.4529070
  C        1.9275400     1.1199170    -0.4505910
  C       -4.6068780    -0.0078780     0.0198210
  C        3.3192690    -1.1228030     0.4522780
  C        3.3225700     1.1193260    -0.4456390
  C        4.0230520    -0.0023100     0.0044540
  H       -0.4460470    -1.9780880    -0.8418930
  H       -0.4465600     1.9841010     0.8290070
  H       -2.9173870    -1.9815130    -0.8295580
  H       -2.9177760     1.9946350     0.7979050
  H        1.3786050    -1.9834820     0.8303220
  H        1.3846280     1.9832890    -0.8299950
  H       -5.0126890     0.9989950    -0.1140710
  H       -5.0122110    -0.6453700    -0.7711930
  H       -4.9781370    -0.3905110     0.9770230
  H        3.8582660    -1.9961250     0.8126670
  H        3.8641780     1.9916920    -0.8044220
  H        5.1104020    -0.0032360     0.0061230
units angstrom
no_reorient  #important for SAPT in psi4, default
symmetry c1  #important for SAPT in psi4, default
}

set PROPERTIES_ORIGIN ["COM"]
properties('MP2/aug-cc-pvtz', properties = ['dipole'])
--------------------------------------------------------------------------

    Molecular point group: c1
  Charge       = 0
  Multiplicity = 1
  Basis Set: AUG-CC-PVTZ
    Blend: AUG-CC-PVTZ
  Basis Set: (AUG-CC-PVTZ AUX)
    Blend: AUG-CC-PVTZ-JKFIT

    Orbital Energies [Eh]
    ---------------------

    Doubly Occupied:

       1A    -11.245011     2A    -11.241592     3A    -11.241319
       4A    -11.237273     5A    -11.237198     6A    -11.236948
       7A    -11.235611     8A    -11.234559     9A    -11.234380
      10A    -11.234154    11A    -11.232343    12A    -11.232192
      13A    -11.224875    14A     -1.167666    15A     -1.141177
      16A     -1.066036    17A     -1.016169    18A     -1.007824
      19A     -1.003381    20A     -0.928811    21A     -0.841804
      22A     -0.832593    23A     -0.812287    24A     -0.779030
      25A     -0.711948    26A     -0.666105    27A     -0.645355
      28A     -0.642506    29A     -0.615084    30A     -0.613231
      31A     -0.587665    32A     -0.580017    33A     -0.576215
      34A     -0.571410    35A     -0.540803    36A     -0.511672
      37A     -0.508379    38A     -0.499060    39A     -0.482508
      40A     -0.479988    41A     -0.479198    42A     -0.359744
      43A     -0.337003    44A     -0.334161    45A     -0.297052

  @DF-RHF Final Energy:  -499.44948301428673

   => Energetics <=

    Nuclear Repulsion Energy =            687.1489125141711156
    One-Electron Energy =               -2037.7901225423438518
    Two-Electron Energy =                 851.1917270138859521
    Total Energy =                       -499.4494830142867841
  Basis Set: (AUG-CC-PVTZ AUX)
    Blend: AUG-CC-PVTZ-RI
    Molecular point group: c1

    Geometry (in Angstrom), charge = 0, multiplicity = 1:

       Center              X                  Y                   Z               Mass
    ------------   -----------------  -----------------  -----------------  -----------------
         C           -0.301167387357     0.000749299283    -0.001023326673    12.000000000000
         C            1.175851612643    -0.000038700717     0.000448673327    12.000000000000
         C           -3.135600387357     0.005475299283    -0.013346326673    12.000000000000
         C           -1.020378387357    -1.114146700717    -0.458316326673    12.000000000000
         C           -1.020592387357     1.118699299283     0.448358673327    12.000000000000
         C           -2.414384387357    -1.110001700717    -0.458427326673    12.000000000000
         C           -2.434558087357     1.117154399283     0.441264373327    12.000000000000
         C            1.889470612643    -1.121092700717     0.453279673327    12.000000000000
         C            1.892757612643     1.119767299283    -0.450218326673    12.000000000000
         C           -4.641660387357    -0.008027700717     0.020193673327    12.000000000000
         C            3.284486612643    -1.122952700717     0.452650673327    12.000000000000
         C            3.287787612643     1.119176299283    -0.445266326673    12.000000000000
         C            3.988269612643    -0.002459700717     0.004826673327    12.000000000000
         H           -0.480829387357    -1.978237700717    -0.841520326673     1.007825032230
         H           -0.481342387357     1.983951299283     0.829379673327     1.007825032230
         H           -2.952169387357    -1.981662700717    -0.829185326673     1.007825032230
         H           -2.952558387357     1.994485299283     0.798277673327     1.007825032230
         H            1.343822612643    -1.983631700717     0.830694673327     1.007825032230
         H            1.349845612643     1.983139299283    -0.829622326673     1.007825032230
         H           -5.047471387357     0.998845299283    -0.113698326673     1.007825032230
         H           -5.046993387357    -0.645519700717    -0.770820326673     1.007825032230
         H           -5.012919387357    -0.390660700717     0.977395673327     1.007825032230
         H            3.823483612643    -1.996274700717     0.813039673327     1.007825032230
         H            3.829395612643     1.991542299283    -0.804049326673     1.007825032230
         H            5.075619612643    -0.003385700717     0.006495673327     1.007825032230

  Basis Set: AUG-CC-PVTZ
    Blend: AUG-CC-PVTZ
  Basis Set: (AUG-CC-PVTZ AUX)
    Blend: AUG-CC-PVTZ-JKFIT
	 Reference Energy          =    -499.4494830142867272 [Eh]
	 Singles Energy            =      -0.0000000000000000 [Eh]
	 Same-Spin Energy          =      -0.5653516740906656 [Eh]
	 Opposite-Spin Energy      =      -1.7796901033298900 [Eh]
	 Correlation Energy        =      -2.3450417774205556 [Eh]
	 Total Energy              =    -501.7945247917072606 [Eh]

	 ================> DF-SCS-MP2 Energies <==================
	-----------------------------------------------------------
	 SCS Same-Spin Scale       =       0.3333333333333333 [-]
	 SCS Opposite-Spin Scale   =       1.2000000000000000 [-]
	 SCS Same-Spin Energy      =      -0.1884505580302218 [Eh]
	 SCS Opposite-Spin Energy  =      -2.1356281239958679 [Eh]
	 SCS Correlation Energy    =      -2.3240786820260899 [Eh]
	 SCS Total Energy          =    -501.7735616963128109 [Eh]
	-----------------------------------------------------------

  Dipole Moment: [D]
     X:    -0.4706      Y:    -0.0094      Z:     0.0383     Total:     0.4722

*** Psi4 exiting successfully. Buy a developer a beer!
