                               Psi4 1.4a3.dev225

  ==> Input File <==

--------------------------------------------------------------------------
#psi4
#
memory 32 gb

molecule  {
0 1
  C       -0.2663850     0.0008990    -0.0013960
  C        1.2106340     0.0001110     0.0000760
  C       -3.1008180     0.0056250    -0.0137190
  C       -0.9855960    -1.1139970    -0.4586890
  C       -0.9858100     1.1188490     0.4479860
  C       -2.3796020    -1.1098520    -0.4588000
  C       -2.3694821     1.1331972     0.4474837
  C        1.9242530    -1.1209430     0.4529070
  C        1.9275400     1.1199170    -0.4505910
  C       -4.6068780    -0.0078780     0.0198210
  C        3.3192690    -1.1228030     0.4522780
  C        3.3225700     1.1193260    -0.4456390
  C        4.0230520    -0.0023100     0.0044540
  H       -0.4460470    -1.9780880    -0.8418930
  H       -0.4465600     1.9841010     0.8290070
  H       -2.9173870    -1.9815130    -0.8295580
  H       -2.9177760     1.9946350     0.7979050
  H        1.3786050    -1.9834820     0.8303220
  H        1.3846280     1.9832890    -0.8299950
  H       -5.0126890     0.9989950    -0.1140710
  H       -5.0122110    -0.6453700    -0.7711930
  H       -4.9781370    -0.3905110     0.9770230
  H        3.8582660    -1.9961250     0.8126670
  H        3.8641780     1.9916920    -0.8044220
  H        5.1104020    -0.0032360     0.0061230
units angstrom
no_reorient  #important for SAPT in psi4, default
symmetry c1  #important for SAPT in psi4, default
}

set PROPERTIES_ORIGIN ["COM"]
properties('MP2/aug-cc-pvtz', properties = ['dipole'])
--------------------------------------------------------------------------

    Molecular point group: c1
  Charge       = 0
  Multiplicity = 1
  Basis Set: AUG-CC-PVTZ
    Blend: AUG-CC-PVTZ
  Basis Set: (AUG-CC-PVTZ AUX)
    Blend: AUG-CC-PVTZ-JKFIT

    Orbital Energies [Eh]
    ---------------------

    Doubly Occupied:

       1A    -11.244915     2A    -11.244818     3A    -11.241092
       4A    -11.237060     5A    -11.236813     6A    -11.235359
       7A    -11.234416     8A    -11.234400     9A    -11.234220
      10A    -11.234000    11A    -11.232278    12A    -11.231720
      13A    -11.225765    14A     -1.167618    15A     -1.140526
      16A     -1.064132    17A     -1.017511    18A     -1.009512
      19A     -1.004091    20A     -0.928462    21A     -0.840359
      22A     -0.832318    23A     -0.811004    24A     -0.779891
      25A     -0.712075    26A     -0.666309    27A     -0.645827
      28A     -0.641861    29A     -0.614425    30A     -0.613133
      31A     -0.588146    32A     -0.580903    33A     -0.576101
      34A     -0.570496    35A     -0.542203    36A     -0.512674
      37A     -0.508607    38A     -0.497112    39A     -0.482359
      40A     -0.481282    41A     -0.477725    42A     -0.358135
      43A     -0.338452    44A     -0.336200    45A     -0.294824

  @DF-RHF Final Energy:  -499.44945743637930

   => Energetics <=

    Nuclear Repulsion Energy =            687.1596992163898676
    One-Electron Energy =               -2037.8160588543469203
    Two-Electron Energy =                 851.2069022015775772
    Total Energy =                       -499.4494574363793618
  Basis Set: (AUG-CC-PVTZ AUX)
    Blend: AUG-CC-PVTZ-RI
    Molecular point group: c1

    Geometry (in Angstrom), charge = 0, multiplicity = 1:

       Center              X                  Y                   Z               Mass
    ------------   -----------------  -----------------  -----------------  -----------------
         C           -0.303330007174    -0.000385287990    -0.001493920786    12.000000000000
         C            1.173688992826    -0.001173287990    -0.000021920786    12.000000000000
         C           -3.137763007174     0.004340712010    -0.013816920786    12.000000000000
         C           -1.022541007174    -1.115281287990    -0.458786920786    12.000000000000
         C           -1.022755007174     1.117564712010     0.447888079214    12.000000000000
         C           -2.416547007174    -1.111136287990    -0.458897920786    12.000000000000
         C           -2.406427107174     1.131912912010     0.447385779214    12.000000000000
         C            1.887307992826    -1.122227287990     0.452809079214    12.000000000000
         C            1.890594992826     1.118632712010    -0.450688920786    12.000000000000
         C           -4.643823007174    -0.009162287990     0.019723079214    12.000000000000
         C            3.282323992826    -1.124087287990     0.452180079214    12.000000000000
         C            3.285624992826     1.118041712010    -0.445736920786    12.000000000000
         C            3.986106992826    -0.003594287990     0.004356079214    12.000000000000
         H           -0.482992007174    -1.979372287990    -0.841990920786     1.007825032230
         H           -0.483505007174     1.982816712010     0.828909079214     1.007825032230
         H           -2.954332007174    -1.982797287990    -0.829655920786     1.007825032230
         H           -2.954721007174     1.993350712010     0.797807079214     1.007825032230
         H            1.341659992826    -1.984766287990     0.830224079214     1.007825032230
         H            1.347682992826     1.982004712010    -0.830092920786     1.007825032230
         H           -5.049634007174     0.997710712010    -0.114168920786     1.007825032230
         H           -5.049156007174    -0.646654287990    -0.771290920786     1.007825032230
         H           -5.015082007174    -0.391795287990     0.976925079214     1.007825032230
         H            3.821320992826    -1.997409287990     0.812569079214     1.007825032230
         H            3.827232992826     1.990407712010    -0.804519920786     1.007825032230
         H            5.073456992826    -0.004520287990     0.006025079214     1.007825032230

  Basis Set: AUG-CC-PVTZ
    Blend: AUG-CC-PVTZ
  Basis Set: (AUG-CC-PVTZ AUX)
    Blend: AUG-CC-PVTZ-JKFIT
	 Reference Energy          =    -499.4494574363793049 [Eh]
	 Singles Energy            =      -0.0000000000000000 [Eh]
	 Same-Spin Energy          =      -0.5653601405317901 [Eh]
	 Opposite-Spin Energy      =      -1.7796441358923805 [Eh]
	 Correlation Energy        =      -2.3450042764241705 [Eh]
	 Total Energy              =    -501.7944617128034679 [Eh]

	 ================> DF-SCS-MP2 Energies <==================
	-----------------------------------------------------------
	 SCS Same-Spin Scale       =       0.3333333333333333 [-]
	 SCS Opposite-Spin Scale   =       1.2000000000000000 [-]
	 SCS Same-Spin Energy      =      -0.1884533801772633 [Eh]
	 SCS Opposite-Spin Energy  =      -2.1355729630708566 [Eh]
	 SCS Correlation Energy    =      -2.3240263432481201 [Eh]
	 SCS Total Energy          =    -501.7734837796274405 [Eh]
	-----------------------------------------------------------

  Dipole Moment: [D]
     X:    -0.4997      Y:    -0.0101      Z:     0.0384     Total:     0.5012

*** Psi4 exiting successfully. Buy a developer a beer!
