                               Psi4 1.4a3.dev225

  ==> Input File <==

--------------------------------------------------------------------------
#psi4
#
memory 32 gb

molecule  {
0 1
  C       -0.2663850     0.0008990    -0.0013960
  C        1.2106340     0.0001110     0.0000760
  C       -3.1008180     0.0056250    -0.0137190
  C       -0.9855960    -1.1139970    -0.4586890
  C       -0.9858100     1.1188490     0.4479860
  C       -2.3796020    -1.1098520    -0.4588000
  C       -2.3797760     1.1173260     0.4409920
  C        1.9242530    -1.1209430     0.4529070
  C        1.9275400     1.1199170    -0.4505910
  C       -4.6068780    -0.0078780     0.0198210
  C        3.3192690    -1.1228030     0.4522780
  C        3.3225700     1.1193260    -0.4456390
  C        4.0230520    -0.0023100     0.0044540
  H       -0.4460470    -1.9780880    -0.8418930
  H       -0.4465600     1.9841010     0.8290070
  H       -2.9173870    -1.9815130    -0.8295580
  H       -2.9177760     1.9946350     0.7979050
  H        1.3786050    -1.9834820     0.8303220
  H        1.3846280     1.9832890    -0.8299950
  H       -5.0868909     1.1831002    -0.1385529
  H       -5.0122110    -0.6453700    -0.7711930
  H       -4.9781370    -0.3905110     0.9770230
  H        3.8582660    -1.9961250     0.8126670
  H        3.8641780     1.9916920    -0.8044220
  H        5.1104020    -0.0032360     0.0061230
units angstrom
no_reorient  #important for SAPT in psi4, default
symmetry c1  #important for SAPT in psi4, default
}

set PROPERTIES_ORIGIN ["COM"]
properties('MP2/aug-cc-pvtz', properties = ['dipole'])
--------------------------------------------------------------------------

    Molecular point group: c1
  Charge       = 0
  Multiplicity = 1
  Basis Set: AUG-CC-PVTZ
    Blend: AUG-CC-PVTZ
  Basis Set: (AUG-CC-PVTZ AUX)
    Blend: AUG-CC-PVTZ-JKFIT

    Orbital Energies [Eh]
    ---------------------

    Doubly Occupied:

       1A    -11.248351     2A    -11.245466     3A    -11.244602
       4A    -11.242177     5A    -11.237586     6A    -11.237337
       7A    -11.236260     8A    -11.235756     9A    -11.234994
      10A    -11.234836    11A    -11.234586    12A    -11.233887
      13A    -11.232686    14A     -1.168727    15A     -1.141894
      16A     -1.064782    17A     -1.017474    18A     -1.009394
      19A     -1.002087    20A     -0.921705    21A     -0.841362
      22A     -0.831185    23A     -0.811955    24A     -0.779200
      25A     -0.712261    26A     -0.666328    27A     -0.645476
      28A     -0.641275    29A     -0.614385    30A     -0.612994
      31A     -0.588286    32A     -0.580910    33A     -0.575773
      34A     -0.569444    35A     -0.522737    36A     -0.513253
      37A     -0.504222    38A     -0.495215    39A     -0.482194
      40A     -0.480237    41A     -0.476879    42A     -0.359583
      43A     -0.338119    44A     -0.336398    45A     -0.296733

  @DF-RHF Final Energy:  -499.42987233283810

   => Energetics <=

    Nuclear Repulsion Energy =            686.5608435750633589
    One-Electron Energy =               -2036.5794503561439797
    Two-Electron Energy =                 850.5887344482423487
    Total Energy =                       -499.4298723328381584
  Basis Set: (AUG-CC-PVTZ AUX)
    Blend: AUG-CC-PVTZ-RI
    Molecular point group: c1

    Geometry (in Angstrom), charge = 0, multiplicity = 1:

       Center              X                  Y                   Z               Mass
    ------------   -----------------  -----------------  -----------------  -----------------
         C           -0.302150253882    -0.000356086628    -0.000883703096    12.000000000000
         C            1.174868746118    -0.001144086628     0.000588296904    12.000000000000
         C           -3.136583253882     0.004369913372    -0.013206703096    12.000000000000
         C           -1.021361253882    -1.115252086628    -0.458176703096    12.000000000000
         C           -1.021575253882     1.117593913372     0.448498296904    12.000000000000
         C           -2.415367253882    -1.111107086628    -0.458287703096    12.000000000000
         C           -2.415541253882     1.116070913372     0.441504296904    12.000000000000
         C            1.888487746118    -1.122198086628     0.453419296904    12.000000000000
         C            1.891774746118     1.118661913372    -0.450078703096    12.000000000000
         C           -4.642643253882    -0.009133086628     0.020333296904    12.000000000000
         C            3.283503746118    -1.124058086628     0.452790296904    12.000000000000
         C            3.286804746118     1.118070913372    -0.445126703096    12.000000000000
         C            3.987286746118    -0.003565086628     0.004966296904    12.000000000000
         H           -0.481812253882    -1.979343086628    -0.841380703096     1.007825032230
         H           -0.482325253882     1.982845913372     0.829519296904     1.007825032230
         H           -2.953152253882    -1.982768086628    -0.829045703096     1.007825032230
         H           -2.953541253882     1.993379913372     0.798417296904     1.007825032230
         H            1.342839746118    -1.984737086628     0.830834296904     1.007825032230
         H            1.348862746118     1.982033913372    -0.829482703096     1.007825032230
         H           -5.122656153882     1.181845113372    -0.138040603096     1.007825032230
         H           -5.047976253882    -0.646625086628    -0.770680703096     1.007825032230
         H           -5.013902253882    -0.391766086628     0.977535296904     1.007825032230
         H            3.822500746118    -1.997380086628     0.813179296904     1.007825032230
         H            3.828412746118     1.990436913372    -0.803909703096     1.007825032230
         H            5.074636746118    -0.004491086628     0.006635296904     1.007825032230

  Basis Set: AUG-CC-PVTZ
    Blend: AUG-CC-PVTZ
  Basis Set: (AUG-CC-PVTZ AUX)
    Blend: AUG-CC-PVTZ-JKFIT
	 Reference Energy          =    -499.4298723328381016 [Eh]
	 Singles Energy            =      -0.0000000000000000 [Eh]
	 Same-Spin Energy          =      -0.5654131269071271 [Eh]
	 Opposite-Spin Energy      =      -1.7812588820984383 [Eh]
	 Correlation Energy        =      -2.3466720090055655 [Eh]
	 Total Energy              =    -501.7765443418436462 [Eh]

	 ================> DF-SCS-MP2 Energies <==================
	-----------------------------------------------------------
	 SCS Same-Spin Scale       =       0.3333333333333333 [-]
	 SCS Opposite-Spin Scale   =       1.2000000000000000 [-]
	 SCS Same-Spin Energy      =      -0.1884710423023757 [Eh]
	 SCS Opposite-Spin Energy  =      -2.1375106585181260 [Eh]
	 SCS Correlation Energy    =      -2.3259817008205017 [Eh]
	 SCS Total Energy          =    -501.7558540336585793 [Eh]
	-----------------------------------------------------------

  Dipole Moment: [D]
     X:    -0.3567      Y:    -0.1105      Z:     0.0476     Total:     0.3764

*** Psi4 exiting successfully. Buy a developer a beer!
