                               Psi4 1.4a3.dev225

  ==> Input File <==

--------------------------------------------------------------------------
#psi4
#
memory 32 gb

molecule  {
0 1
  C       -0.2875117    -0.0102773    -0.0067467
  C        1.2106340     0.0001110     0.0000760
  C       -3.1008180     0.0056250    -0.0137190
  C       -0.9855960    -1.1139970    -0.4586890
  C       -0.9858100     1.1188490     0.4479860
  C       -2.3796020    -1.1098520    -0.4588000
  C       -2.3797760     1.1173260     0.4409920
  C        1.9242530    -1.1209430     0.4529070
  C        1.9275400     1.1199170    -0.4505910
  C       -4.6068780    -0.0078780     0.0198210
  C        3.3192690    -1.1228030     0.4522780
  C        3.3225700     1.1193260    -0.4456390
  C        4.0230520    -0.0023100     0.0044540
  H       -0.4460470    -1.9780880    -0.8418930
  H       -0.4465600     1.9841010     0.8290070
  H       -2.9173870    -1.9815130    -0.8295580
  H       -2.9177760     1.9946350     0.7979050
  H        1.3786050    -1.9834820     0.8303220
  H        1.3846280     1.9832890    -0.8299950
  H       -5.0126890     0.9989950    -0.1140710
  H       -5.0122110    -0.6453700    -0.7711930
  H       -4.9781370    -0.3905110     0.9770230
  H        3.8582660    -1.9961250     0.8126670
  H        3.8641780     1.9916920    -0.8044220
  H        5.1104020    -0.0032360     0.0061230
units angstrom
no_reorient  #important for SAPT in psi4, default
symmetry c1  #important for SAPT in psi4, default
}

set PROPERTIES_ORIGIN ["COM"]
properties('MP2/aug-cc-pvtz', properties = ['dipole'])
--------------------------------------------------------------------------

    Molecular point group: c1
  Charge       = 0
  Multiplicity = 1
  Basis Set: AUG-CC-PVTZ
    Blend: AUG-CC-PVTZ
  Basis Set: (AUG-CC-PVTZ AUX)
    Blend: AUG-CC-PVTZ-JKFIT

    Orbital Energies [Eh]
    ---------------------

    Doubly Occupied:

       1A    -11.245726     2A    -11.242310     3A    -11.240400
       4A    -11.236907     5A    -11.236631     6A    -11.235246
       7A    -11.234211     8A    -11.233982     9A    -11.233711
      10A    -11.233131    11A    -11.232241    12A    -11.231789
      13A    -11.225441    14A     -1.168226    15A     -1.141815
      16A     -1.064321    17A     -1.017207    18A     -1.009185
      19A     -1.004013    20A     -0.928767    21A     -0.841061
      22A     -0.830831    23A     -0.812068    24A     -0.780035
      25A     -0.711218    26A     -0.665735    27A     -0.646103
      28A     -0.641420    29A     -0.613991    30A     -0.613292
      31A     -0.588539    32A     -0.580977    33A     -0.576298
      34A     -0.569038    35A     -0.541481    36A     -0.512687
      37A     -0.508592    38A     -0.497841    39A     -0.483632
      40A     -0.481123    41A     -0.476619    42A     -0.358202
      43A     -0.337566    44A     -0.335800    45A     -0.297977

  @DF-RHF Final Energy:  -499.44995666296728

   => Energetics <=

    Nuclear Repulsion Energy =            687.3686107988362437
    One-Electron Energy =               -2038.2423658879959021
    Two-Electron Energy =                 851.4237984261924339
    Total Energy =                       -499.4499566629672245
  Basis Set: (AUG-CC-PVTZ AUX)
    Blend: AUG-CC-PVTZ-RI
    Molecular point group: c1

    Geometry (in Angstrom), charge = 0, multiplicity = 1:

       Center              X                  Y                   Z               Mass
    ------------   -----------------  -----------------  -----------------  -----------------
         C           -0.322213632326    -0.009630702935    -0.005999207599    12.000000000000
         C            1.175932067674     0.000757597065     0.000823492401    12.000000000000
         C           -3.135519932326     0.006271597065    -0.012971507599    12.000000000000
         C           -1.020297932326    -1.113350402935    -0.457941507599    12.000000000000
         C           -1.020511932326     1.119495597065     0.448733492401    12.000000000000
         C           -2.414303932326    -1.109205402935    -0.458052507599    12.000000000000
         C           -2.414477932326     1.117972597065     0.441739492401    12.000000000000
         C            1.889551067674    -1.120296402935     0.453654492401    12.000000000000
         C            1.892838067674     1.120563597065    -0.449843507599    12.000000000000
         C           -4.641579932326    -0.007231402935     0.020568492401    12.000000000000
         C            3.284567067674    -1.122156402935     0.453025492401    12.000000000000
         C            3.287868067674     1.119972597065    -0.444891507599    12.000000000000
         C            3.988350067674    -0.001663402935     0.005201492401    12.000000000000
         H           -0.480748932326    -1.977441402935    -0.841145507599     1.007825032230
         H           -0.481261932326     1.984747597065     0.829754492401     1.007825032230
         H           -2.952088932326    -1.980866402935    -0.828810507599     1.007825032230
         H           -2.952477932326     1.995281597065     0.798652492401     1.007825032230
         H            1.343903067674    -1.982835402935     0.831069492401     1.007825032230
         H            1.349926067674     1.983935597065    -0.829247507599     1.007825032230
         H           -5.047390932326     0.999641597065    -0.113323507599     1.007825032230
         H           -5.046912932326    -0.644723402935    -0.770445507599     1.007825032230
         H           -5.012838932326    -0.389864402935     0.977770492401     1.007825032230
         H            3.823564067674    -1.995478402935     0.813414492401     1.007825032230
         H            3.829476067674     1.992338597065    -0.803674507599     1.007825032230
         H            5.075700067674    -0.002589402935     0.006870492401     1.007825032230

  Basis Set: AUG-CC-PVTZ
    Blend: AUG-CC-PVTZ
  Basis Set: (AUG-CC-PVTZ AUX)
    Blend: AUG-CC-PVTZ-JKFIT
	 Reference Energy          =    -499.4499566629672813 [Eh]
	 Singles Energy            =      -0.0000000000000000 [Eh]
	 Same-Spin Energy          =      -0.5651197909512891 [Eh]
	 Opposite-Spin Energy      =      -1.7792097057395340 [Eh]
	 Correlation Energy        =      -2.3443294966908228 [Eh]
	 Total Energy              =    -501.7942861596580997 [Eh]

	 ================> DF-SCS-MP2 Energies <==================
	-----------------------------------------------------------
	 SCS Same-Spin Scale       =       0.3333333333333333 [-]
	 SCS Opposite-Spin Scale   =       1.2000000000000000 [-]
	 SCS Same-Spin Energy      =      -0.1883732636504297 [Eh]
	 SCS Opposite-Spin Energy  =      -2.1350516468874408 [Eh]
	 SCS Correlation Energy    =      -2.3234249105378706 [Eh]
	 SCS Total Energy          =    -501.7733815735051621 [Eh]
	-----------------------------------------------------------

  Dipole Moment: [D]
     X:    -0.5128      Y:    -0.0117      Z:     0.0362     Total:     0.5142

*** Psi4 exiting successfully. Buy a developer a beer!
