                               Psi4 1.4a3.dev225

  ==> Input File <==

--------------------------------------------------------------------------
#psi4
#
memory 32 gb

molecule  {
0 1
  C       -0.3088510    -0.0211097    -0.0119590
  C        1.2106340     0.0001110     0.0000760
  C       -3.1008180     0.0056250    -0.0137190
  C       -0.9855960    -1.1139970    -0.4586890
  C       -0.9858100     1.1188490     0.4479860
  C       -2.3796020    -1.1098520    -0.4588000
  C       -2.3797760     1.1173260     0.4409920
  C        1.9242530    -1.1209430     0.4529070
  C        1.9275400     1.1199170    -0.4505910
  C       -4.6068780    -0.0078780     0.0198210
  C        3.3192690    -1.1228030     0.4522780
  C        3.3225700     1.1193260    -0.4456390
  C        4.0230520    -0.0023100     0.0044540
  H       -0.4460470    -1.9780880    -0.8418930
  H       -0.4465600     1.9841010     0.8290070
  H       -2.9173870    -1.9815130    -0.8295580
  H       -2.9177760     1.9946350     0.7979050
  H        1.3786050    -1.9834820     0.8303220
  H        1.3846280     1.9832890    -0.8299950
  H       -5.0126890     0.9989950    -0.1140710
  H       -5.0122110    -0.6453700    -0.7711930
  H       -4.9781370    -0.3905110     0.9770230
  H        3.8582660    -1.9961250     0.8126670
  H        3.8641780     1.9916920    -0.8044220
  H        5.1104020    -0.0032360     0.0061230
units angstrom
no_reorient  #important for SAPT in psi4, default
symmetry c1  #important for SAPT in psi4, default
}

set PROPERTIES_ORIGIN ["COM"]
properties('MP2/aug-cc-pvtz', properties = ['dipole'])
--------------------------------------------------------------------------

    Molecular point group: c1
  Charge       = 0
  Multiplicity = 1
  Basis Set: AUG-CC-PVTZ
    Blend: AUG-CC-PVTZ
  Basis Set: (AUG-CC-PVTZ AUX)
    Blend: AUG-CC-PVTZ-JKFIT

    Orbital Energies [Eh]
    ---------------------

    Doubly Occupied:

       1A    -11.246417     2A    -11.242040     3A    -11.239598
       4A    -11.236675     5A    -11.236321     6A    -11.235289
       7A    -11.233960     8A    -11.233625     9A    -11.233247
      10A    -11.232457    11A    -11.232381    12A    -11.230140
      13A    -11.225390    14A     -1.168745    15A     -1.142220
      16A     -1.063593    17A     -1.017808    18A     -1.009571
      19A     -1.003732    20A     -0.928681    21A     -0.841436
      22A     -0.828826    23A     -0.812599    24A     -0.780502
      25A     -0.710627    26A     -0.665461    27A     -0.646387
      28A     -0.640758    29A     -0.614243    30A     -0.613115
      31A     -0.589773    32A     -0.581586    33A     -0.576306
      34A     -0.566976    35A     -0.541610    36A     -0.512691
      37A     -0.508664    38A     -0.497863    39A     -0.485413
      40A     -0.482577    41A     -0.472168    42A     -0.357458
      43A     -0.337787    44A     -0.335681    45A     -0.299751

  @DF-RHF Final Energy:  -499.44832536460791

   => Energetics <=

    Nuclear Repulsion Energy =            687.4117520312775014
    One-Electron Energy =               -2038.3358484200273324
    Two-Electron Energy =                 851.4757710241419773
    Total Energy =                       -499.4483253646078538
  Basis Set: (AUG-CC-PVTZ AUX)
    Blend: AUG-CC-PVTZ-RI
    Molecular point group: c1

    Geometry (in Angstrom), charge = 0, multiplicity = 1:

       Center              X                  Y                   Z               Mass
    ------------   -----------------  -----------------  -----------------  -----------------
         C           -0.342029548078    -0.019689792306    -0.010839408434    12.000000000000
         C            1.177455451922     0.001530907694     0.001195591566    12.000000000000
         C           -3.133996548078     0.007044907694    -0.012599408434    12.000000000000
         C           -1.018774548078    -1.112577092306    -0.457569408434    12.000000000000
         C           -1.018988548078     1.120268907694     0.449105591566    12.000000000000
         C           -2.412780548078    -1.108432092306    -0.457680408434    12.000000000000
         C           -2.412954548078     1.118745907694     0.442111591566    12.000000000000
         C            1.891074451922    -1.119523092306     0.454026591566    12.000000000000
         C            1.894361451922     1.121336907694    -0.449471408434    12.000000000000
         C           -4.640056548078    -0.006458092306     0.020940591566    12.000000000000
         C            3.286090451922    -1.121383092306     0.453397591566    12.000000000000
         C            3.289391451922     1.120745907694    -0.444519408434    12.000000000000
         C            3.989873451922    -0.000890092306     0.005573591566    12.000000000000
         H           -0.479225548078    -1.976668092306    -0.840773408434     1.007825032230
         H           -0.479738548078     1.985520907694     0.830126591566     1.007825032230
         H           -2.950565548078    -1.980093092306    -0.828438408434     1.007825032230
         H           -2.950954548078     1.996054907694     0.799024591566     1.007825032230
         H            1.345426451922    -1.982062092306     0.831441591566     1.007825032230
         H            1.351449451922     1.984708907694    -0.828875408434     1.007825032230
         H           -5.045867548078     1.000414907694    -0.112951408434     1.007825032230
         H           -5.045389548078    -0.643950092306    -0.770073408434     1.007825032230
         H           -5.011315548078    -0.389091092306     0.978142591566     1.007825032230
         H            3.825087451922    -1.994705092306     0.813786591566     1.007825032230
         H            3.830999451922     1.993111907694    -0.803302408434     1.007825032230
         H            5.077223451922    -0.001816092306     0.007242591566     1.007825032230

  Basis Set: AUG-CC-PVTZ
    Blend: AUG-CC-PVTZ
  Basis Set: (AUG-CC-PVTZ AUX)
    Blend: AUG-CC-PVTZ-JKFIT
	 Reference Energy          =    -499.4483253646079106 [Eh]
	 Singles Energy            =      -0.0000000000000000 [Eh]
	 Same-Spin Energy          =      -0.5649057257198199 [Eh]
	 Opposite-Spin Energy      =      -1.7789205620463906 [Eh]
	 Correlation Energy        =      -2.3438262877662104 [Eh]
	 Total Energy              =    -501.7921516523741161 [Eh]

	 ================> DF-SCS-MP2 Energies <==================
	-----------------------------------------------------------
	 SCS Same-Spin Scale       =       0.3333333333333333 [-]
	 SCS Opposite-Spin Scale   =       1.2000000000000000 [-]
	 SCS Same-Spin Energy      =      -0.1883019085732733 [Eh]
	 SCS Opposite-Spin Energy  =      -2.1347046744556688 [Eh]
	 SCS Correlation Energy    =      -2.3230065830289419 [Eh]
	 SCS Total Energy          =    -501.7713319476368383 [Eh]
	-----------------------------------------------------------

  Dipole Moment: [D]
     X:    -0.5412      Y:    -0.0098      Z:     0.0356     Total:     0.5425

*** Psi4 exiting successfully. Buy a developer a beer!
