                               Psi4 1.4a3.dev225

  ==> Input File <==

--------------------------------------------------------------------------
#psi4
#
memory 32 gb

molecule  {
0 1
  C       -0.2663850     0.0008990    -0.0013960
  C        1.2106340     0.0001110     0.0000760
  C       -3.1008180     0.0056250    -0.0137190
  C       -0.9855960    -1.1139970    -0.4586890
  C       -0.9858100     1.1188490     0.4479860
  C       -2.3796020    -1.1098520    -0.4588000
  C       -2.3797760     1.1173260     0.4409920
  C        1.9242530    -1.1209430     0.4529070
  C        1.9275400     1.1199170    -0.4505910
  C       -4.6068780    -0.0078780     0.0198210
  C        3.3192690    -1.1228030     0.4522780
  C        3.3425699     1.1193175    -0.4455680
  C        4.0230520    -0.0023100     0.0044540
  H       -0.4460470    -1.9780880    -0.8418930
  H       -0.4465600     1.9841010     0.8290070
  H       -2.9173870    -1.9815130    -0.8295580
  H       -2.9177760     1.9946350     0.7979050
  H        1.3786050    -1.9834820     0.8303220
  H        1.3846280     1.9832890    -0.8299950
  H       -5.0126890     0.9989950    -0.1140710
  H       -5.0122110    -0.6453700    -0.7711930
  H       -4.9781370    -0.3905110     0.9770230
  H        3.8582660    -1.9961250     0.8126670
  H        3.8641780     1.9916920    -0.8044220
  H        5.1104020    -0.0032360     0.0061230
units angstrom
no_reorient  #important for SAPT in psi4, default
symmetry c1  #important for SAPT in psi4, default
}

set PROPERTIES_ORIGIN ["COM"]
properties('MP2/aug-cc-pvtz', properties = ['dipole'])
--------------------------------------------------------------------------

    Molecular point group: c1
  Charge       = 0
  Multiplicity = 1
  Basis Set: AUG-CC-PVTZ
    Blend: AUG-CC-PVTZ
  Basis Set: (AUG-CC-PVTZ AUX)
    Blend: AUG-CC-PVTZ-JKFIT

    Orbital Energies [Eh]
    ---------------------

    Doubly Occupied:

       1A    -11.244852     2A    -11.242552     3A    -11.241191
       4A    -11.237466     5A    -11.237113     6A    -11.236192
       7A    -11.235271     8A    -11.235134     9A    -11.234644
      10A    -11.233545    11A    -11.232056    12A    -11.231988
      13A    -11.225476    14A     -1.167610    15A     -1.140830
      16A     -1.065660    17A     -1.015847    18A     -1.007869
      19A     -1.004662    20A     -0.928798    21A     -0.841540
      22A     -0.831877    23A     -0.812389    24A     -0.779281
      25A     -0.711935    26A     -0.665942    27A     -0.645633
      28A     -0.642730    29A     -0.615367    30A     -0.612787
      31A     -0.587286    32A     -0.580183    33A     -0.576120
      34A     -0.571022    35A     -0.541328    36A     -0.511127
      37A     -0.508425    38A     -0.499883    39A     -0.481746
      40A     -0.480005    41A     -0.479569    42A     -0.359977
      43A     -0.336874    44A     -0.334183    45A     -0.296699

  @DF-RHF Final Energy:  -499.44947298302480

   => Energetics <=

    Nuclear Repulsion Energy =            687.0798000789560547
    One-Electron Energy =               -2037.6532214322703567
    Two-Electron Energy =                 851.1239483702894404
    Total Energy =                       -499.4494729830247479
  Basis Set: (AUG-CC-PVTZ AUX)
    Blend: AUG-CC-PVTZ-RI
    Molecular point group: c1

    Geometry (in Angstrom), charge = 0, multiplicity = 1:

       Center              X                  Y                   Z               Mass
    ------------   -----------------  -----------------  -----------------  -----------------
         C           -0.304022905606     0.000748342675    -0.001035555552    12.000000000000
         C            1.172996094394    -0.000039657325     0.000436444448    12.000000000000
         C           -3.138455905606     0.005474342675    -0.013358555552    12.000000000000
         C           -1.023233905606    -1.114147657325    -0.458328555552    12.000000000000
         C           -1.023447905606     1.118698342675     0.448346444448    12.000000000000
         C           -2.417239905606    -1.110002657325    -0.458439555552    12.000000000000
         C           -2.417413905606     1.117175342675     0.441352444448    12.000000000000
         C            1.886615094394    -1.121093657325     0.453267444448    12.000000000000
         C            1.889902094394     1.119766342675    -0.450230555552    12.000000000000
         C           -4.644515905606    -0.008028657325     0.020181444448    12.000000000000
         C            3.281631094394    -1.122953657325     0.452638444448    12.000000000000
         C            3.304931994394     1.119166842675    -0.445207555552    12.000000000000
         C            3.985414094394    -0.002460657325     0.004814444448    12.000000000000
         H           -0.483684905606    -1.978238657325    -0.841532555552     1.007825032230
         H           -0.484197905606     1.983950342675     0.829367444448     1.007825032230
         H           -2.955024905606    -1.981663657325    -0.829197555552     1.007825032230
         H           -2.955413905606     1.994484342675     0.798265444448     1.007825032230
         H            1.340967094394    -1.983632657325     0.830682444448     1.007825032230
         H            1.346990094394     1.983138342675    -0.829634555552     1.007825032230
         H           -5.050326905606     0.998844342675    -0.113710555552     1.007825032230
         H           -5.049848905606    -0.645520657325    -0.770832555552     1.007825032230
         H           -5.015774905606    -0.390661657325     0.977383444448     1.007825032230
         H            3.820628094394    -1.996275657325     0.813027444448     1.007825032230
         H            3.826540094394     1.991541342675    -0.804061555552     1.007825032230
         H            5.072764094394    -0.003386657325     0.006483444448     1.007825032230

  Basis Set: AUG-CC-PVTZ
    Blend: AUG-CC-PVTZ
  Basis Set: (AUG-CC-PVTZ AUX)
    Blend: AUG-CC-PVTZ-JKFIT
	 Reference Energy          =    -499.4494729830248048 [Eh]
	 Singles Energy            =      -0.0000000000000000 [Eh]
	 Same-Spin Energy          =      -0.5653564656855633 [Eh]
	 Opposite-Spin Energy      =      -1.7796818471744813 [Eh]
	 Correlation Energy        =      -2.3450383128600447 [Eh]
	 Total Energy              =    -501.7945112958848313 [Eh]

	 ================> DF-SCS-MP2 Energies <==================
	-----------------------------------------------------------
	 SCS Same-Spin Scale       =       0.3333333333333333 [-]
	 SCS Opposite-Spin Scale   =       1.2000000000000000 [-]
	 SCS Same-Spin Energy      =      -0.1884521552285211 [Eh]
	 SCS Opposite-Spin Energy  =      -2.1356182166093776 [Eh]
	 SCS Correlation Energy    =      -2.3240703718378986 [Eh]
	 SCS Total Energy          =    -501.7735433548626816 [Eh]
	-----------------------------------------------------------

  Dipole Moment: [D]
     X:    -0.4866      Y:    -0.0085      Z:     0.0343     Total:     0.4878

*** Psi4 exiting successfully. Buy a developer a beer!
