                               Psi4 1.4a3.dev225

  ==> Input File <==

--------------------------------------------------------------------------
#psi4
#
memory 32 gb

molecule  {
0 1
  P        0.0000000    -0.0000010    -0.1246070
  H        1.0146657    -0.5589390     0.5966109
  H       -1.0277210    -0.6212000     0.6230360
  H       -0.0241230     1.2006360     0.6230260
units angstrom
no_reorient  #important for SAPT in psi4, default
symmetry c1  #important for SAPT in psi4, default
}

set PROPERTIES_ORIGIN ["COM"]
properties('MP2/aug-cc-pvtz', properties = ['dipole'])
--------------------------------------------------------------------------

    Molecular point group: c1
  Charge       = 0
  Multiplicity = 1
  Basis Set: AUG-CC-PVTZ
    Blend: AUG-CC-PVTZ
  Basis Set: (AUG-CC-PVTZ AUX)
    Blend: AUG-CC-PVTZ-JKFIT

    Orbital Energies [Eh]
    ---------------------

    Doubly Occupied:

       1A    -79.941011     2A     -7.485260     3A     -5.378869
       4A     -5.378652     5A     -5.377816     6A     -0.860776
       7A     -0.532047     8A     -0.523654     9A     -0.384443

  @DF-RHF Final Energy:  -342.48720806378168

   => Energetics <=

    Nuclear Repulsion Energy =             17.8117461290505297
    One-Electron Energy =                -508.8728488512067543
    Two-Electron Energy =                 148.5738946583746269
    Total Energy =                       -342.4872080637816225
  Basis Set: (AUG-CC-PVTZ AUX)
    Blend: AUG-CC-PVTZ-RI
    Molecular point group: c1

    Geometry (in Angstrom), charge = 0, multiplicity = 1:

       Center              X                  Y                   Z               Mass
    ------------   -----------------  -----------------  -----------------  -----------------
         P            0.001102125484    -0.000607708594    -0.065706458144    30.973761998420
         H            1.015767825484    -0.559545708594     0.655511441856     1.007825032230
         H           -1.026618874516    -0.621806708594     0.681936541856     1.007825032230
         H           -0.023020874516     1.200029291406     0.681926541856     1.007825032230

  Basis Set: AUG-CC-PVTZ
    Blend: AUG-CC-PVTZ
  Basis Set: (AUG-CC-PVTZ AUX)
    Blend: AUG-CC-PVTZ-JKFIT
	 Reference Energy          =    -342.4872080637816794 [Eh]
	 Singles Energy            =      -0.0000000000000000 [Eh]
	 Same-Spin Energy          =      -0.0428292774928793 [Eh]
	 Opposite-Spin Energy      =      -0.1790565391261471 [Eh]
	 Correlation Energy        =      -0.2218858166190263 [Eh]
	 Total Energy              =    -342.7090938804007010 [Eh]

	 ================> DF-SCS-MP2 Energies <==================
	-----------------------------------------------------------
	 SCS Same-Spin Scale       =       0.3333333333333333 [-]
	 SCS Opposite-Spin Scale   =       1.2000000000000000 [-]
	 SCS Same-Spin Energy      =      -0.0142764258309598 [Eh]
	 SCS Opposite-Spin Energy  =      -0.2148678469513765 [Eh]
	 SCS Correlation Energy    =      -0.2291442727823362 [Eh]
	 SCS Total Energy          =    -342.7163523365640003 [Eh]
	-----------------------------------------------------------

  Dipole Moment: [D]
     X:     0.0377      Y:    -0.0208      Z:     0.6578     Total:     0.6592

*** Psi4 exiting successfully. Buy a developer a beer!
