                               Psi4 1.3.2 release

  ==> Input File <==

--------------------------------------------------------------------------
#psi4
#
memory 32 gb

molecule  {
0 1
  P       -0.0000140     0.0000000    -0.1246250
  H        0.5091906     0.8967215     0.5173770
  H        0.6080740    -1.0356730     0.6230830
  H       -1.2008880    -0.0086850     0.6232170
units angstrom
no_reorient  #important for SAPT in psi4, default
symmetry c1  #important for SAPT in psi4, default
}

set PROPERTIES_ORIGIN ["COM"]
properties('MP2/aug-cc-pvtz', properties = ['dipole'])
--------------------------------------------------------------------------

    Molecular point group: c1
  Charge       = 0
  Multiplicity = 1
  Basis Set: AUG-CC-PVTZ
    Blend: AUG-CC-PVTZ
  Basis Set: (AUG-CC-PVTZ AUX)
    Blend: AUG-CC-PVTZ-JKFIT

    Orbital Energies [Eh]
    ---------------------

    Doubly Occupied:

       1A    -79.926933     2A     -7.476386     3A     -5.370859
       4A     -5.369207     5A     -5.368509     6A     -0.880808
       7A     -0.554054     8A     -0.522182     9A     -0.383314

  @DF-RHF Final Energy:  -342.46626771591451

   => Energetics <=

    Nuclear Repulsion Energy =             18.5565365665872619
    One-Electron Energy =                -510.3411055823421520
    Two-Electron Energy =                 149.3183012998403569
    Total Energy =                       -342.4662677159145119
  Basis Set: (AUG-CC-PVTZ AUX)
    Blend: AUG-CC-PVTZ-RI
    Molecular point group: c1

    Geometry (in Angstrom), charge = 0, multiplicity = 1:

       Center              X                  Y                   Z               Mass
    ------------   -----------------  -----------------  -----------------  -----------------
         P            0.002477713907     0.004376583896    -0.063366279068    30.973761998420
         H            0.511682313907     0.901098083896     0.578635720932     1.007825032230
         H            0.610565713907    -1.031296416104     0.684341720932     1.007825032230
         H           -1.198396286093    -0.004308416104     0.684475720932     1.007825032230

  Basis Set: AUG-CC-PVTZ
    Blend: AUG-CC-PVTZ
  Basis Set: (AUG-CC-PVTZ AUX)
    Blend: AUG-CC-PVTZ-JKFIT
	 Reference Energy          =    -342.4662677159145119 [Eh]
	 Singles Energy            =      -0.0000000000000000 [Eh]
	 Same-Spin Energy          =      -0.0432536836901486 [Eh]
	 Opposite-Spin Energy      =      -0.1795783543805884 [Eh]
	 Correlation Energy        =      -0.2228320380707370 [Eh]
	 Total Energy              =    -342.6890997539852606 [Eh]

	 ================> DF-SCS-MP2 Energies <==================
	-----------------------------------------------------------
	 SCS Same-Spin Scale       =       0.3333333333333333 [-]
	 SCS Opposite-Spin Scale   =       1.2000000000000000 [-]
	 SCS Same-Spin Energy      =      -0.0144178945633829 [Eh]
	 SCS Opposite-Spin Energy  =      -0.2154940252567060 [Eh]
	 SCS Correlation Energy    =      -0.2299119198200889 [Eh]
	 SCS Total Energy          =    -342.6961796357346088 [Eh]
	-----------------------------------------------------------

  Dipole Moment: [D]
     X:     0.0780      Y:     0.1374      Z:     0.7209     Total:     0.7380

*** Psi4 exiting successfully. Buy a developer a beer!
