                               Psi4 1.4a3.dev225

  ==> Input File <==

--------------------------------------------------------------------------
#psi4
#
memory 32 gb

molecule  {
0 1
  P        0.0000000    -0.0000010    -0.1246070
  H        1.0369727    -0.5712270     0.6124666
  H       -1.0277210    -0.6212000     0.6230360
  H       -0.0241230     1.2006360     0.6230260
units angstrom
no_reorient  #important for SAPT in psi4, default
symmetry c1  #important for SAPT in psi4, default
}

set PROPERTIES_ORIGIN ["COM"]
properties('MP2/aug-cc-pvtz', properties = ['dipole'])
--------------------------------------------------------------------------

    Molecular point group: c1
  Charge       = 0
  Multiplicity = 1
  Basis Set: AUG-CC-PVTZ
    Blend: AUG-CC-PVTZ
  Basis Set: (AUG-CC-PVTZ AUX)
    Blend: AUG-CC-PVTZ-JKFIT

    Orbital Energies [Eh]
    ---------------------

    Doubly Occupied:

       1A    -79.943648     2A     -7.487124     3A     -5.380637
       4A     -5.380562     5A     -5.379687     6A     -0.857669
       7A     -0.527411     8A     -0.524032     9A     -0.384684

  @DF-RHF Final Energy:  -342.48799698028211

   => Energetics <=

    Nuclear Repulsion Energy =             17.6811441343163800
    One-Electron Energy =                -508.6073753878002890
    Two-Electron Energy =                 148.4382342732018003
    Total Energy =                       -342.4879969802821051
  Basis Set: (AUG-CC-PVTZ AUX)
    Blend: AUG-CC-PVTZ-RI
    Molecular point group: c1

    Geometry (in Angstrom), charge = 0, multiplicity = 1:

       Center              X                  Y                   Z               Mass
    ------------   -----------------  -----------------  -----------------  -----------------
         P            0.000440849601    -0.000243439170    -0.066176489615    30.973761998420
         H            1.037413549601    -0.571469439170     0.670897110385     1.007825032230
         H           -1.027280150399    -0.621442439170     0.681466510385     1.007825032230
         H           -0.023682150399     1.200393560830     0.681456510385     1.007825032230

  Basis Set: AUG-CC-PVTZ
    Blend: AUG-CC-PVTZ
  Basis Set: (AUG-CC-PVTZ AUX)
    Blend: AUG-CC-PVTZ-JKFIT
	 Reference Energy          =    -342.4879969802821051 [Eh]
	 Singles Energy            =      -0.0000000000000000 [Eh]
	 Same-Spin Energy          =      -0.0427549074332597 [Eh]
	 Opposite-Spin Energy      =      -0.1790272594640705 [Eh]
	 Correlation Energy        =      -0.2217821668973302 [Eh]
	 Total Energy              =    -342.7097791471794608 [Eh]

	 ================> DF-SCS-MP2 Energies <==================
	-----------------------------------------------------------
	 SCS Same-Spin Scale       =       0.3333333333333333 [-]
	 SCS Opposite-Spin Scale   =       1.2000000000000000 [-]
	 SCS Same-Spin Energy      =      -0.0142516358110866 [Eh]
	 SCS Opposite-Spin Energy  =      -0.2148327113568846 [Eh]
	 SCS Correlation Energy    =      -0.2290843471679712 [Eh]
	 SCS Total Energy          =    -342.7170813274501029 [Eh]
	-----------------------------------------------------------

  Dipole Moment: [D]
     X:     0.0153      Y:    -0.0084      Z:     0.6441     Total:     0.6443

*** Psi4 exiting successfully. Buy a developer a beer!
