                               Psi4 1.3.2 release

  ==> Input File <==

--------------------------------------------------------------------------
#psi4
#
memory 32 gb

molecule  {
0 1
  P       -0.0000140     0.0000000    -0.1246250
  H        0.6768674     1.1920045     0.7287830
  H        0.6080740    -1.0356730     0.6230830
  H       -1.2008880    -0.0086850     0.6232170
units angstrom
no_reorient  #important for SAPT in psi4, default
symmetry c1  #important for SAPT in psi4, default
}

set PROPERTIES_ORIGIN ["COM"]
properties('MP2/aug-cc-pvtz', properties = ['dipole'])
--------------------------------------------------------------------------

    Molecular point group: c1
  Charge       = 0
  Multiplicity = 1
  Basis Set: AUG-CC-PVTZ
    Blend: AUG-CC-PVTZ
  Basis Set: (AUG-CC-PVTZ AUX)
    Blend: AUG-CC-PVTZ-JKFIT

    Orbital Energies [Eh]
    ---------------------

    Doubly Occupied:

       1A    -79.961243     2A     -7.500801     3A     -5.394209
       4A     -5.393894     5A     -5.393116     6A     -0.842607
       7A     -0.527633     8A     -0.493544     9A     -0.386156

  @DF-RHF Final Energy:  -342.47485912717212

   => Energetics <=

    Nuclear Repulsion Energy =             16.8659832718649909
    One-Electron Energy =                -506.8952770770985126
    Two-Electron Energy =                 147.5544346780613694
    Total Energy =                       -342.4748591271721807
  Basis Set: (AUG-CC-PVTZ AUX)
    Blend: AUG-CC-PVTZ-RI
    Molecular point group: c1

    Geometry (in Angstrom), charge = 0, multiplicity = 1:

       Center              X                  Y                   Z               Mass
    ------------   -----------------  -----------------  -----------------  -----------------
         P           -0.002492951088    -0.004376880339    -0.069633266534    30.973761998420
         H            0.674388448912     1.187627619661     0.783774733466     1.007825032230
         H            0.605595048912    -1.040049880339     0.678074733466     1.007825032230
         H           -1.203366951088    -0.013061880339     0.678208733466     1.007825032230

  Basis Set: AUG-CC-PVTZ
    Blend: AUG-CC-PVTZ
  Basis Set: (AUG-CC-PVTZ AUX)
    Blend: AUG-CC-PVTZ-JKFIT
	 Reference Energy          =    -342.4748591271721239 [Eh]
	 Singles Energy            =      -0.0000000000000000 [Eh]
	 Same-Spin Energy          =      -0.0423007774556111 [Eh]
	 Opposite-Spin Energy      =      -0.1795085772866376 [Eh]
	 Correlation Energy        =      -0.2218093547422487 [Eh]
	 Total Energy              =    -342.6966684819144007 [Eh]

	 ================> DF-SCS-MP2 Energies <==================
	-----------------------------------------------------------
	 SCS Same-Spin Scale       =       0.3333333333333333 [-]
	 SCS Opposite-Spin Scale   =       1.2000000000000000 [-]
	 SCS Same-Spin Energy      =      -0.0141002591518704 [Eh]
	 SCS Opposite-Spin Energy  =      -0.2154102927439651 [Eh]
	 SCS Correlation Energy    =      -0.2295105518958355 [Eh]
	 SCS Total Energy          =    -342.7043696790679519 [Eh]
	-----------------------------------------------------------

  Dipole Moment: [D]
     X:    -0.0946      Y:    -0.1666      Z:     0.5329     Total:     0.5663

*** Psi4 exiting successfully. Buy a developer a beer!
