                               Psi4 1.3.2 release

  ==> Input File <==

--------------------------------------------------------------------------
#psi4
#
memory 32 gb

molecule  {
0 1
  P       -0.0000140     0.0000000    -0.1246250
  H        0.6156395     1.0104220     0.6509231
  H        0.6080740    -1.0356730     0.6230830
  H       -1.2008880    -0.0086850     0.6232170
units angstrom
no_reorient  #important for SAPT in psi4, default
symmetry c1  #important for SAPT in psi4, default
}

set PROPERTIES_ORIGIN ["COM"]
properties('MP2/aug-cc-pvtz', properties = ['dipole'])
--------------------------------------------------------------------------

    Molecular point group: c1
  Charge       = 0
  Multiplicity = 1
  Basis Set: AUG-CC-PVTZ
    Blend: AUG-CC-PVTZ
  Basis Set: (AUG-CC-PVTZ AUX)
    Blend: AUG-CC-PVTZ-JKFIT

    Orbital Energies [Eh]
    ---------------------

    Doubly Occupied:

       1A    -79.945389     2A     -7.488374     3A     -5.381816
       4A     -5.381805     5A     -5.380906     6A     -0.855972
       7A     -0.525666     8A     -0.520281     9A     -0.386529

  @DF-RHF Final Energy:  -342.48786860382040

   => Energetics <=

    Nuclear Repulsion Energy =             17.5992423990245186
    One-Electron Energy =                -508.4407430594382618
    Two-Electron Energy =                 148.3536320565933693
    Total Energy =                       -342.4878686038204023
  Basis Set: (AUG-CC-PVTZ AUX)
    Blend: AUG-CC-PVTZ-RI
    Molecular point group: c1

    Geometry (in Angstrom), charge = 0, multiplicity = 1:

       Center              X                  Y                   Z               Mass
    ------------   -----------------  -----------------  -----------------  -----------------
         P           -0.000677891526     0.001006009700    -0.067325162613    30.973761998420
         H            0.614975608474     1.011428009700     0.708222937387     1.007825032230
         H            0.607410108474    -1.034666990300     0.680382837387     1.007825032230
         H           -1.201551891526    -0.007678990300     0.680516837387     1.007825032230

  Basis Set: AUG-CC-PVTZ
    Blend: AUG-CC-PVTZ
  Basis Set: (AUG-CC-PVTZ AUX)
    Blend: AUG-CC-PVTZ-JKFIT
	 Reference Energy          =    -342.4878686038204023 [Eh]
	 Singles Energy            =      -0.0000000000000000 [Eh]
	 Same-Spin Energy          =      -0.0427933257278470 [Eh]
	 Opposite-Spin Energy      =      -0.1791701092342485 [Eh]
	 Correlation Energy        =      -0.2219634349620955 [Eh]
	 Total Energy              =    -342.7098320387825083 [Eh]

	 ================> DF-SCS-MP2 Energies <==================
	-----------------------------------------------------------
	 SCS Same-Spin Scale       =       0.3333333333333333 [-]
	 SCS Opposite-Spin Scale   =       1.2000000000000000 [-]
	 SCS Same-Spin Energy      =      -0.0142644419092823 [Eh]
	 SCS Opposite-Spin Energy  =      -0.2150041310810982 [Eh]
	 SCS Correlation Energy    =      -0.2292685729903805 [Eh]
	 SCS Total Energy          =    -342.7171371768108088 [Eh]
	-----------------------------------------------------------

  Dipole Moment: [D]
     X:    -0.0163      Y:    -0.0076      Z:     0.6225     Total:     0.6227

*** Psi4 exiting successfully. Buy a developer a beer!
