                               Psi4 1.3.2 release

  ==> Input File <==

--------------------------------------------------------------------------
#psi4
#
memory 32 gb

molecule  {
0 1
  P       -0.0000140     0.0000000    -0.1246250
  H        0.6044263     1.0275490     0.6371176
  H        0.6080740    -1.0356730     0.6230830
  H       -1.2008880    -0.0086850     0.6232170
units angstrom
no_reorient  #important for SAPT in psi4, default
symmetry c1  #important for SAPT in psi4, default
}

set PROPERTIES_ORIGIN ["COM"]
properties('MP2/aug-cc-pvtz', properties = ['dipole'])
--------------------------------------------------------------------------

    Molecular point group: c1
  Charge       = 0
  Multiplicity = 1
  Basis Set: AUG-CC-PVTZ
    Blend: AUG-CC-PVTZ
  Basis Set: (AUG-CC-PVTZ AUX)
    Blend: AUG-CC-PVTZ-JKFIT

    Orbital Energies [Eh]
    ---------------------

    Doubly Occupied:

       1A    -79.945397     2A     -7.488384     3A     -5.381835
       4A     -5.381829     5A     -5.380929     6A     -0.855840
       7A     -0.524963     8A     -0.522289     9A     -0.385695

  @DF-RHF Final Energy:  -342.48799464151801

   => Energetics <=

    Nuclear Repulsion Energy =             17.5972901066945902
    One-Electron Energy =                -508.4362485312846616
    Two-Electron Energy =                 148.3509637830720749
    Total Energy =                       -342.4879946415180143
  Basis Set: (AUG-CC-PVTZ AUX)
    Blend: AUG-CC-PVTZ-RI
    Molecular point group: c1

    Geometry (in Angstrom), charge = 0, multiplicity = 1:

       Center              X                  Y                   Z               Mass
    ------------   -----------------  -----------------  -----------------  -----------------
         P           -0.000345483818     0.000498291403    -0.066915907930    30.973761998420
         H            0.604094816182     1.028047291403     0.694826692070     1.007825032230
         H            0.607742516182    -1.035174708597     0.680792092070     1.007825032230
         H           -1.201219483818    -0.008186708597     0.680926092070     1.007825032230

  Basis Set: AUG-CC-PVTZ
    Blend: AUG-CC-PVTZ
  Basis Set: (AUG-CC-PVTZ AUX)
    Blend: AUG-CC-PVTZ-JKFIT
	 Reference Energy          =    -342.4879946415180143 [Eh]
	 Singles Energy            =      -0.0000000000000000 [Eh]
	 Same-Spin Energy          =      -0.0427486721186464 [Eh]
	 Opposite-Spin Energy      =      -0.1790944602019078 [Eh]
	 Correlation Energy        =      -0.2218431323205542 [Eh]
	 Total Energy              =    -342.7098377738385580 [Eh]

	 ================> DF-SCS-MP2 Energies <==================
	-----------------------------------------------------------
	 SCS Same-Spin Scale       =       0.3333333333333333 [-]
	 SCS Opposite-Spin Scale   =       1.2000000000000000 [-]
	 SCS Same-Spin Energy      =      -0.0142495573728821 [Eh]
	 SCS Opposite-Spin Energy  =      -0.2149133522422894 [Eh]
	 SCS Correlation Energy    =      -0.2291629096151715 [Eh]
	 SCS Total Energy          =    -342.7171575511331980 [Eh]
	-----------------------------------------------------------

  Dipole Moment: [D]
     X:    -0.0082      Y:    -0.0039      Z:     0.6284     Total:     0.6285

*** Psi4 exiting successfully. Buy a developer a beer!
