                               Psi4 1.3.2 release

  ==> Input File <==

--------------------------------------------------------------------------
#psi4
#
memory 32 gb

molecule  {
0 1
  P       -0.0000140     0.0000000    -0.1246250
  H        0.5814510     1.0608589     0.6088147
  H        0.6080740    -1.0356730     0.6230830
  H       -1.2008880    -0.0086850     0.6232170
units angstrom
no_reorient  #important for SAPT in psi4, default
symmetry c1  #important for SAPT in psi4, default
}

set PROPERTIES_ORIGIN ["COM"]
properties('MP2/aug-cc-pvtz', properties = ['dipole'])
--------------------------------------------------------------------------

    Molecular point group: c1
  Charge       = 0
  Multiplicity = 1
  Basis Set: AUG-CC-PVTZ
    Blend: AUG-CC-PVTZ
  Basis Set: (AUG-CC-PVTZ AUX)
    Blend: AUG-CC-PVTZ-JKFIT

    Orbital Energies [Eh]
    ---------------------

    Doubly Occupied:

       1A    -79.945416     2A     -7.488411     3A     -5.381884
       4A     -5.381878     5A     -5.380982     6A     -0.855604
       7A     -0.526197     8A     -0.523593     9A     -0.384009

  @DF-RHF Final Energy:  -342.48807408338001

   => Energetics <=

    Nuclear Repulsion Energy =             17.5935557583927036
    One-Electron Energy =                -508.4273097508259411
    Two-Electron Energy =                 148.3456799090532172
    Total Energy =                       -342.4880740833800132
  Basis Set: (AUG-CC-PVTZ AUX)
    Blend: AUG-CC-PVTZ-RI
    Molecular point group: c1

    Geometry (in Angstrom), charge = 0, multiplicity = 1:

       Center              X                  Y                   Z               Mass
    ------------   -----------------  -----------------  -----------------  -----------------
         P            0.000335603366    -0.000489157987    -0.066076887659    30.973761998420
         H            0.581800603366     1.060369742013     0.667362812341     1.007825032230
         H            0.608423603366    -1.036162157987     0.681631112341     1.007825032230
         H           -1.200538396634    -0.009174157987     0.681765112341     1.007825032230

  Basis Set: AUG-CC-PVTZ
    Blend: AUG-CC-PVTZ
  Basis Set: (AUG-CC-PVTZ AUX)
    Blend: AUG-CC-PVTZ-JKFIT
	 Reference Energy          =    -342.4880740833800132 [Eh]
	 Singles Energy            =      -0.0000000000000000 [Eh]
	 Same-Spin Energy          =      -0.0426677163005914 [Eh]
	 Opposite-Spin Energy      =      -0.1789534493862679 [Eh]
	 Correlation Energy        =      -0.2216211656868593 [Eh]
	 Total Energy              =    -342.7096952490668968 [Eh]

	 ================> DF-SCS-MP2 Energies <==================
	-----------------------------------------------------------
	 SCS Same-Spin Scale       =       0.3333333333333333 [-]
	 SCS Opposite-Spin Scale   =       1.2000000000000000 [-]
	 SCS Same-Spin Energy      =      -0.0142225721001971 [Eh]
	 SCS Opposite-Spin Energy  =      -0.2147441392635215 [Eh]
	 SCS Correlation Energy    =      -0.2289667113637186 [Eh]
	 SCS Total Energy          =    -342.7170407947437525 [Eh]
	-----------------------------------------------------------

  Dipole Moment: [D]
     X:     0.0084      Y:     0.0040      Z:     0.6406     Total:     0.6407

*** Psi4 exiting successfully. Buy a developer a beer!
