                               Psi4 1.3.2 release

  ==> Input File <==

--------------------------------------------------------------------------
#psi4
#
memory 32 gb

molecule  {
0 1
  P       -0.0000140     0.0000000    -0.1246250
  H        0.6375000     0.9752500     0.6778214
  H        0.6080740    -1.0356730     0.6230830
  H       -1.2008880    -0.0086850     0.6232170
units angstrom
no_reorient  #important for SAPT in psi4, default
symmetry c1  #important for SAPT in psi4, default
}

set PROPERTIES_ORIGIN ["COM"]
properties('MP2/aug-cc-pvtz', properties = ['dipole'])
--------------------------------------------------------------------------

    Molecular point group: c1
  Charge       = 0
  Multiplicity = 1
  Basis Set: AUG-CC-PVTZ
    Blend: AUG-CC-PVTZ
  Basis Set: (AUG-CC-PVTZ AUX)
    Blend: AUG-CC-PVTZ-JKFIT

    Orbital Energies [Eh]
    ---------------------

    Doubly Occupied:

       1A    -79.945378     2A     -7.488360     3A     -5.381784
       4A     -5.381763     5A     -5.380867     6A     -0.856269
       7A     -0.527110     8A     -0.516157     9A     -0.388180

  @DF-RHF Final Energy:  -342.48744183752882

   => Energetics <=

    Nuclear Repulsion Energy =             17.6033251213618627
    One-Electron Energy =                -508.4497941763196991
    Two-Electron Energy =                 148.3590272174289737
    Total Energy =                       -342.4874418375288769
  Basis Set: (AUG-CC-PVTZ AUX)
    Blend: AUG-CC-PVTZ-RI
    Molecular point group: c1

    Geometry (in Angstrom), charge = 0, multiplicity = 1:

       Center              X                  Y                   Z               Mass
    ------------   -----------------  -----------------  -----------------  -----------------
         P           -0.001325931220     0.002048659782    -0.068122544471    30.973761998420
         H            0.636188068780     0.977298659782     0.734323855529     1.007825032230
         H            0.606762068780    -1.033624340218     0.679585455529     1.007825032230
         H           -1.202199931220    -0.006636340218     0.679719455529     1.007825032230

  Basis Set: AUG-CC-PVTZ
    Blend: AUG-CC-PVTZ
  Basis Set: (AUG-CC-PVTZ AUX)
    Blend: AUG-CC-PVTZ-JKFIT
	 Reference Energy          =    -342.4874418375288201 [Eh]
	 Singles Energy            =      -0.0000000000000000 [Eh]
	 Same-Spin Energy          =      -0.0428911721808643 [Eh]
	 Opposite-Spin Energy      =      -0.1793315600094012 [Eh]
	 Correlation Energy        =      -0.2222227321902654 [Eh]
	 Total Energy              =    -342.7096645697191093 [Eh]

	 ================> DF-SCS-MP2 Energies <==================
	-----------------------------------------------------------
	 SCS Same-Spin Scale       =       0.3333333333333333 [-]
	 SCS Opposite-Spin Scale   =       1.2000000000000000 [-]
	 SCS Same-Spin Energy      =      -0.0142970573936214 [Eh]
	 SCS Opposite-Spin Energy  =      -0.2151978720112814 [Eh]
	 SCS Correlation Energy    =      -0.2294949294049028 [Eh]
	 SCS Total Energy          =    -342.7169367669337134 [Eh]
	-----------------------------------------------------------

  Dipole Moment: [D]
     X:    -0.0321      Y:    -0.0146      Z:     0.6108     Total:     0.6118

*** Psi4 exiting successfully. Buy a developer a beer!
