                               Psi4 1.3.2 release

  ==> Input File <==

--------------------------------------------------------------------------
#psi4
#
memory 32 gb

molecule  {
0 1
  P       -0.0000140     0.0000000    -0.1246250
  H        0.5696959     1.0770316     0.5943259
  H        0.6080740    -1.0356730     0.6230830
  H       -1.2008880    -0.0086850     0.6232170
units angstrom
no_reorient  #important for SAPT in psi4, default
symmetry c1  #important for SAPT in psi4, default
}

set PROPERTIES_ORIGIN ["COM"]
properties('MP2/aug-cc-pvtz', properties = ['dipole'])
--------------------------------------------------------------------------

    Molecular point group: c1
  Charge       = 0
  Multiplicity = 1
  Basis Set: AUG-CC-PVTZ
    Blend: AUG-CC-PVTZ
  Basis Set: (AUG-CC-PVTZ AUX)
    Blend: AUG-CC-PVTZ-JKFIT

    Orbital Energies [Eh]
    ---------------------

    Doubly Occupied:

       1A    -79.945429     2A     -7.488428     3A     -5.381916
       4A     -5.381904     5A     -5.381013     6A     -0.855500
       7A     -0.528099     8A     -0.522924     9A     -0.383156

  @DF-RHF Final Energy:  -342.48802833136375

   => Energetics <=

    Nuclear Repulsion Energy =             17.5917706830676011
    One-Electron Energy =                -508.4228611045354569
    Two-Electron Energy =                 148.3430620901041550
    Total Energy =                       -342.4880283313636937
  Basis Set: (AUG-CC-PVTZ AUX)
    Blend: AUG-CC-PVTZ-RI
    Molecular point group: c1

    Geometry (in Angstrom), charge = 0, multiplicity = 1:

       Center              X                  Y                   Z               Mass
    ------------   -----------------  -----------------  -----------------  -----------------
         P            0.000684075331    -0.000968586708    -0.065647377011    30.973761998420
         H            0.570393975331     1.076063013292     0.653303522989     1.007825032230
         H            0.608772075331    -1.036641586708     0.682060622989     1.007825032230
         H           -1.200189924669    -0.009653586708     0.682194622989     1.007825032230

  Basis Set: AUG-CC-PVTZ
    Blend: AUG-CC-PVTZ
  Basis Set: (AUG-CC-PVTZ AUX)
    Blend: AUG-CC-PVTZ-JKFIT
	 Reference Energy          =    -342.4880283313637506 [Eh]
	 Singles Energy            =      -0.0000000000000000 [Eh]
	 Same-Spin Energy          =      -0.0426313422330353 [Eh]
	 Opposite-Spin Energy      =      -0.1788881422542349 [Eh]
	 Correlation Energy        =      -0.2215194844872702 [Eh]
	 Total Energy              =    -342.7095478158510105 [Eh]

	 ================> DF-SCS-MP2 Energies <==================
	-----------------------------------------------------------
	 SCS Same-Spin Scale       =       0.3333333333333333 [-]
	 SCS Opposite-Spin Scale   =       1.2000000000000000 [-]
	 SCS Same-Spin Energy      =      -0.0142104474110118 [Eh]
	 SCS Opposite-Spin Energy  =      -0.2146657707050819 [Eh]
	 SCS Correlation Energy    =      -0.2288762181160937 [Eh]
	 SCS Total Energy          =    -342.7169045494798638 [Eh]
	-----------------------------------------------------------

  Dipole Moment: [D]
     X:     0.0168      Y:     0.0082      Z:     0.6468     Total:     0.6471

*** Psi4 exiting successfully. Buy a developer a beer!
