                               Psi4 1.3.2 release

  ==> Input File <==

--------------------------------------------------------------------------
#psi4
#
memory 32 gb

molecule  {
0 1
  P       -0.0000140     0.0000000    -0.1246250
  H        0.5209768     1.1383940     0.5342260
  H        0.6080740    -1.0356730     0.6230830
  H       -1.2008880    -0.0086850     0.6232170
units angstrom
no_reorient  #important for SAPT in psi4, default
symmetry c1  #important for SAPT in psi4, default
}

set PROPERTIES_ORIGIN ["COM"]
properties('MP2/aug-cc-pvtz', properties = ['dipole'])
--------------------------------------------------------------------------

    Molecular point group: c1
  Charge       = 0
  Multiplicity = 1
  Basis Set: AUG-CC-PVTZ
    Blend: AUG-CC-PVTZ
  Basis Set: (AUG-CC-PVTZ AUX)
    Blend: AUG-CC-PVTZ-JKFIT

    Orbital Energies [Eh]
    ---------------------

    Doubly Occupied:

       1A    -79.945501     2A     -7.488523     3A     -5.382070
       4A     -5.382031     5A     -5.381164     6A     -0.855166
       7A     -0.535361     8A     -0.520353     9A     -0.379683

  @DF-RHF Final Energy:  -342.48728564187678

   => Energetics <=

    Nuclear Repulsion Energy =             17.5851405359352917
    One-Electron Energy =                -508.4051501609951060
    Two-Electron Energy =                 148.3327239831830298
    Total Energy =                       -342.4872856418767810
  Basis Set: (AUG-CC-PVTZ AUX)
    Blend: AUG-CC-PVTZ-RI
    Molecular point group: c1

    Geometry (in Angstrom), charge = 0, multiplicity = 1:

       Center              X                  Y                   Z               Mass
    ------------   -----------------  -----------------  -----------------  -----------------
         P            0.002128320003    -0.002787633432    -0.063865756243    30.973761998420
         H            0.523119120003     1.135606366568     0.594985243757     1.007825032230
         H            0.610216320003    -1.038460633432     0.683842243757     1.007825032230
         H           -1.198745679997    -0.011472633432     0.683976243757     1.007825032230

  Basis Set: AUG-CC-PVTZ
    Blend: AUG-CC-PVTZ
  Basis Set: (AUG-CC-PVTZ AUX)
    Blend: AUG-CC-PVTZ-JKFIT
	 Reference Energy          =    -342.4872856418767810 [Eh]
	 Singles Energy            =      -0.0000000000000000 [Eh]
	 Same-Spin Energy          =      -0.0425124060901548 [Eh]
	 Opposite-Spin Energy      =      -0.1786622567331064 [Eh]
	 Correlation Energy        =      -0.2211746628232612 [Eh]
	 Total Energy              =    -342.7084603047000542 [Eh]

	 ================> DF-SCS-MP2 Energies <==================
	-----------------------------------------------------------
	 SCS Same-Spin Scale       =       0.3333333333333333 [-]
	 SCS Opposite-Spin Scale   =       1.2000000000000000 [-]
	 SCS Same-Spin Energy      =      -0.0141708020300516 [Eh]
	 SCS Opposite-Spin Energy  =      -0.2143947080797277 [Eh]
	 SCS Correlation Energy    =      -0.2285655101097793 [Eh]
	 SCS Total Energy          =    -342.7158511519865556 [Eh]
	-----------------------------------------------------------

  Dipole Moment: [D]
     X:     0.0514      Y:     0.0267      Z:     0.6718     Total:     0.6743

*** Psi4 exiting successfully. Buy a developer a beer!
