                               Psi4 1.3.2 release

  ==> Input File <==

--------------------------------------------------------------------------
#psi4
#
memory 32 gb

molecule  {
0 1
  P       -0.0000140     0.0000000    -0.1246250
  H        0.5456688     1.1083880     0.5646959
  H        0.6080740    -1.0356730     0.6230830
  H       -1.2008880    -0.0086850     0.6232170
units angstrom
no_reorient  #important for SAPT in psi4, default
symmetry c1  #important for SAPT in psi4, default
}

set PROPERTIES_ORIGIN ["COM"]
properties('MP2/aug-cc-pvtz', properties = ['dipole'])
--------------------------------------------------------------------------

    Molecular point group: c1
  Charge       = 0
  Multiplicity = 1
  Basis Set: AUG-CC-PVTZ
    Blend: AUG-CC-PVTZ
  Basis Set: (AUG-CC-PVTZ AUX)
    Blend: AUG-CC-PVTZ-JKFIT

    Orbital Energies [Eh]
    ---------------------

    Doubly Occupied:

       1A    -79.945460     2A     -7.488470     3A     -5.381987
       4A     -5.381962     5A     -5.381082     6A     -0.855318
       7A     -0.531798     8A     -0.521619     9A     -0.381432

  @DF-RHF Final Energy:  -342.48776803857839

   => Energetics <=

    Nuclear Repulsion Energy =             17.5883561113637690
    One-Electron Energy =                -508.4139922177036510
    Two-Electron Energy =                 148.3378680677614625
    Total Energy =                       -342.4877680385783947
  Basis Set: (AUG-CC-PVTZ AUX)
    Blend: AUG-CC-PVTZ-RI
    Molecular point group: c1

    Geometry (in Angstrom), charge = 0, multiplicity = 1:

       Center              X                  Y                   Z               Mass
    ------------   -----------------  -----------------  -----------------  -----------------
         P            0.001396342412    -0.001898125916    -0.064769015760    30.973761998420
         H            0.547079142412     1.106489874084     0.624551884240     1.007825032230
         H            0.609484342412    -1.037571125916     0.682938984240     1.007825032230
         H           -1.199477657588    -0.010583125916     0.683072984240     1.007825032230

  Basis Set: AUG-CC-PVTZ
    Blend: AUG-CC-PVTZ
  Basis Set: (AUG-CC-PVTZ AUX)
    Blend: AUG-CC-PVTZ-JKFIT
	 Reference Energy          =    -342.4877680385783947 [Eh]
	 Singles Energy            =      -0.0000000000000000 [Eh]
	 Same-Spin Energy          =      -0.0425666278624850 [Eh]
	 Opposite-Spin Energy      =      -0.1787680675560685 [Eh]
	 Correlation Energy        =      -0.2213346954185534 [Eh]
	 Total Energy              =    -342.7091027339969287 [Eh]

	 ================> DF-SCS-MP2 Energies <==================
	-----------------------------------------------------------
	 SCS Same-Spin Scale       =       0.3333333333333333 [-]
	 SCS Opposite-Spin Scale   =       1.2000000000000000 [-]
	 SCS Same-Spin Energy      =      -0.0141888759541617 [Eh]
	 SCS Opposite-Spin Energy  =      -0.2145216810672822 [Eh]
	 SCS Correlation Energy    =      -0.2287105570214438 [Eh]
	 SCS Total Energy          =    -342.7164785955998241 [Eh]
	-----------------------------------------------------------

  Dipole Moment: [D]
     X:     0.0339      Y:     0.0171      Z:     0.6593     Total:     0.6604

*** Psi4 exiting successfully. Buy a developer a beer!
