                               Psi4 1.3.2 release

  ==> Input File <==

--------------------------------------------------------------------------
#psi4
#
memory 32 gb

molecule  {
0 1
  P       -0.0000140     0.0000000    -0.1246250
  H        0.5930290     1.0443630     0.6230800
  H        0.6080740    -1.0356730     0.6230830
  H       -1.2008880    -0.0086850     0.6232170
units angstrom
no_reorient  #important for SAPT in psi4, default
symmetry c1  #important for SAPT in psi4, default
}

set PROPERTIES_ORIGIN ["COM"]
properties('MP2/aug-cc-pvtz', properties = ['dipole'])
--------------------------------------------------------------------------

    Molecular point group: c1
  Charge       = 0
  Multiplicity = 1
  Basis Set: AUG-CC-PVTZ
    Blend: AUG-CC-PVTZ
  Basis Set: (AUG-CC-PVTZ AUX)
    Blend: AUG-CC-PVTZ-JKFIT

    Orbital Energies [Eh]
    ---------------------

    Doubly Occupied:

       1A    -79.945406     2A     -7.488397     3A     -5.381855
       4A     -5.381855     5A     -5.380954     6A     -0.855717
       7A     -0.524272     8A     -0.524261     9A     -0.384855

  @DF-RHF Final Energy:  -342.48806299551472

   => Energetics <=

    Nuclear Repulsion Energy =             17.5953951764241836
    One-Electron Energy =                -508.4317717270994876
    Two-Electron Energy =                 148.3483135551605869
    Total Energy =                       -342.4880629955147242
  Basis Set: (AUG-CC-PVTZ AUX)
    Blend: AUG-CC-PVTZ-RI
    Molecular point group: c1

    Geometry (in Angstrom), charge = 0, multiplicity = 1:

       Center              X                  Y                   Z               Mass
    ------------   -----------------  -----------------  -----------------  -----------------
         P           -0.000007618591    -0.000000148222    -0.066499772801    30.973761998420
         H            0.593035381409     1.044362851778     0.681205227199     1.007825032230
         H            0.608080381409    -1.035673148222     0.681208227199     1.007825032230
         H           -1.200881618591    -0.008685148222     0.681342227199     1.007825032230

  Basis Set: AUG-CC-PVTZ
    Blend: AUG-CC-PVTZ
  Basis Set: (AUG-CC-PVTZ AUX)
    Blend: AUG-CC-PVTZ-JKFIT
	 Reference Energy          =    -342.4880629955147242 [Eh]
	 Singles Energy            =      -0.0000000000000000 [Eh]
	 Same-Spin Energy          =      -0.0427068143913725 [Eh]
	 Opposite-Spin Energy      =      -0.1790222310344743 [Eh]
	 Correlation Energy        =      -0.2217290454258468 [Eh]
	 Total Energy              =    -342.7097920409405560 [Eh]

	 ================> DF-SCS-MP2 Energies <==================
	-----------------------------------------------------------
	 SCS Same-Spin Scale       =       0.3333333333333333 [-]
	 SCS Opposite-Spin Scale   =       1.2000000000000000 [-]
	 SCS Same-Spin Energy      =      -0.0142356047971242 [Eh]
	 SCS Opposite-Spin Energy  =      -0.2148266772413691 [Eh]
	 SCS Correlation Energy    =      -0.2290622820384933 [Eh]
	 SCS Total Energy          =    -342.7171252775532366 [Eh]
	-----------------------------------------------------------

  Dipole Moment: [D]
     X:     0.0000      Y:     0.0000      Z:     0.6345     Total:     0.6345

*** Psi4 exiting successfully. Buy a developer a beer!
