                               Psi4 1.4a3.dev225

  ==> Input File <==

--------------------------------------------------------------------------
#psi4
#
memory 32 gb

molecule  {
0 1
  P        0.0000000    -0.0000010    -0.1246070
  H        1.0890223    -0.5998990     0.6494631
  H       -1.0277210    -0.6212000     0.6230360
  H       -0.0241230     1.2006360     0.6230260
units angstrom
no_reorient  #important for SAPT in psi4, default
symmetry c1  #important for SAPT in psi4, default
}

set PROPERTIES_ORIGIN ["COM"]
properties('MP2/aug-cc-pvtz', properties = ['dipole'])
--------------------------------------------------------------------------

    Molecular point group: c1
  Charge       = 0
  Multiplicity = 1
  Basis Set: AUG-CC-PVTZ
    Blend: AUG-CC-PVTZ
  Basis Set: (AUG-CC-PVTZ AUX)
    Blend: AUG-CC-PVTZ-JKFIT

    Orbital Energies [Eh]
    ---------------------

    Doubly Occupied:

       1A    -79.949563     2A     -7.491496     3A     -5.384983
       4A     -5.384844     5A     -5.384016     6A     -0.851490
       7A     -0.525027     8A     -0.516499     9A     -0.385236

  @DF-RHF Final Energy:  -342.48686500996388

   => Energetics <=

    Nuclear Repulsion Energy =             17.3965966887508365
    One-Electron Energy =                -508.0206173189828291
    Two-Electron Energy =                 148.1371556202680608
    Total Energy =                       -342.4868650099639353
  Basis Set: (AUG-CC-PVTZ AUX)
    Blend: AUG-CC-PVTZ-RI
    Molecular point group: c1

    Geometry (in Angstrom), charge = 0, multiplicity = 1:

       Center              X                  Y                   Z               Mass
    ------------   -----------------  -----------------  -----------------  -----------------
         P           -0.001102125484     0.000606522821    -0.067273225762    30.973761998420
         H            1.087920174516    -0.599291477179     0.706796874238     1.007825032230
         H           -1.028823125484    -0.620592477179     0.680369774238     1.007825032230
         H           -0.025225125484     1.201243522821     0.680359774238     1.007825032230

  Basis Set: AUG-CC-PVTZ
    Blend: AUG-CC-PVTZ
  Basis Set: (AUG-CC-PVTZ AUX)
    Blend: AUG-CC-PVTZ-JKFIT
	 Reference Energy          =    -342.4868650099638785 [Eh]
	 Singles Energy            =      -0.0000000000000000 [Eh]
	 Same-Spin Energy          =      -0.0425954560350716 [Eh]
	 Opposite-Spin Energy      =      -0.1790544064664645 [Eh]
	 Correlation Energy        =      -0.2216498625015361 [Eh]
	 Total Energy              =    -342.7085148724654005 [Eh]

	 ================> DF-SCS-MP2 Energies <==================
	-----------------------------------------------------------
	 SCS Same-Spin Scale       =       0.3333333333333333 [-]
	 SCS Opposite-Spin Scale   =       1.2000000000000000 [-]
	 SCS Same-Spin Energy      =      -0.0141984853450239 [Eh]
	 SCS Opposite-Spin Energy  =      -0.2148652877597574 [Eh]
	 SCS Correlation Energy    =      -0.2290637731047813 [Eh]
	 SCS Total Energy          =    -342.7159287830686480 [Eh]
	-----------------------------------------------------------

  Dipole Moment: [D]
     X:    -0.0396      Y:     0.0218      Z:     0.6107     Total:     0.6124

*** Psi4 exiting successfully. Buy a developer a beer!
