                               Psi4 1.3.2 release

  ==> Input File <==

--------------------------------------------------------------------------
#psi4
#
memory 32 gb

molecule  {
0 1
  P       -0.0000140     0.0000000    -0.1246250
  H        0.6585837     0.9388898     0.7037420
  H        0.6080740    -1.0356730     0.6230830
  H       -1.2008880    -0.0086850     0.6232170
units angstrom
no_reorient  #important for SAPT in psi4, default
symmetry c1  #important for SAPT in psi4, default
}

set PROPERTIES_ORIGIN ["COM"]
properties('MP2/aug-cc-pvtz', properties = ['dipole'])
--------------------------------------------------------------------------

    Molecular point group: c1
  Charge       = 0
  Multiplicity = 1
  Basis Set: AUG-CC-PVTZ
    Blend: AUG-CC-PVTZ
  Basis Set: (AUG-CC-PVTZ AUX)
    Blend: AUG-CC-PVTZ-JKFIT

    Orbital Energies [Eh]
    ---------------------

    Doubly Occupied:

       1A    -79.945371     2A     -7.488353     3A     -5.381758
       4A     -5.381729     5A     -5.380836     6A     -0.856614
       7A     -0.528608     8A     -0.511888     9A     -0.389807

  @DF-RHF Final Energy:  -342.48677950742791

   => Energetics <=

    Nuclear Repulsion Energy =             17.6076587402005416
    One-Electron Energy =                -508.4589496542881761
    Two-Electron Energy =                 148.3645114066596875
    Total Energy =                       -342.4867795074279684
  Basis Set: (AUG-CC-PVTZ AUX)
    Blend: AUG-CC-PVTZ-RI
    Molecular point group: c1

    Geometry (in Angstrom), charge = 0, multiplicity = 1:

       Center              X                  Y                   Z               Mass
    ------------   -----------------  -----------------  -----------------  -----------------
         P           -0.001950943204     0.003126533246    -0.068890943075    30.973761998420
         H            0.656646756796     0.942016333246     0.759476056925     1.007825032230
         H            0.606137056796    -1.032546466754     0.678817056925     1.007825032230
         H           -1.202824943204    -0.005558466754     0.678951056925     1.007825032230

  Basis Set: AUG-CC-PVTZ
    Blend: AUG-CC-PVTZ
  Basis Set: (AUG-CC-PVTZ AUX)
    Blend: AUG-CC-PVTZ-JKFIT
	 Reference Energy          =    -342.4867795074279115 [Eh]
	 Singles Energy            =      -0.0000000000000000 [Eh]
	 Same-Spin Energy          =      -0.0430006751696283 [Eh]
	 Opposite-Spin Energy      =      -0.1795063705599840 [Eh]
	 Correlation Energy        =      -0.2225070457296123 [Eh]
	 Total Energy              =    -342.7092865531575399 [Eh]

	 ================> DF-SCS-MP2 Energies <==================
	-----------------------------------------------------------
	 SCS Same-Spin Scale       =       0.3333333333333333 [-]
	 SCS Opposite-Spin Scale   =       1.2000000000000000 [-]
	 SCS Same-Spin Energy      =      -0.0143335583898761 [Eh]
	 SCS Opposite-Spin Energy  =      -0.2154076446719808 [Eh]
	 SCS Correlation Energy    =      -0.2297412030618569 [Eh]
	 SCS Total Energy          =    -342.7165207104897604 [Eh]
	-----------------------------------------------------------

  Dipole Moment: [D]
     X:    -0.0473      Y:    -0.0210      Z:     0.5996     Total:     0.6018

*** Psi4 exiting successfully. Buy a developer a beer!
