                               Psi4 1.3.2 release

  ==> Input File <==

--------------------------------------------------------------------------
#psi4
#
memory 32 gb

molecule  {
0 1
  P       -0.0000140     0.0000000    -0.1246250
  H        0.6349482     1.1181837     0.6759315
  H        0.6080740    -1.0356730     0.6230830
  H       -1.2008880    -0.0086850     0.6232170
units angstrom
no_reorient  #important for SAPT in psi4, default
symmetry c1  #important for SAPT in psi4, default
}

set PROPERTIES_ORIGIN ["COM"]
properties('MP2/aug-cc-pvtz', properties = ['dipole'])
--------------------------------------------------------------------------

    Molecular point group: c1
  Charge       = 0
  Multiplicity = 1
  Basis Set: AUG-CC-PVTZ
    Blend: AUG-CC-PVTZ
  Basis Set: (AUG-CC-PVTZ AUX)
    Blend: AUG-CC-PVTZ-JKFIT

    Orbital Energies [Eh]
    ---------------------

    Doubly Occupied:

       1A    -79.953628     2A     -7.494639     3A     -5.388121
       4A     -5.387895     5A     -5.387098     6A     -0.847890
       7A     -0.525801     8A     -0.508689     9A     -0.385610

  @DF-RHF Final Energy:  -342.48403123771175

   => Energetics <=

    Nuclear Repulsion Energy =             17.2073722486988956
    One-Electron Energy =                -507.6240631640180254
    Two-Electron Energy =                 147.9326596776074041
    Total Energy =                       -342.4840312377117471
  Basis Set: (AUG-CC-PVTZ AUX)
    Blend: AUG-CC-PVTZ-RI
    Molecular point group: c1

    Geometry (in Angstrom), charge = 0, multiplicity = 1:

       Center              X                  Y                   Z               Mass
    ------------   -----------------  -----------------  -----------------  -----------------
         P           -0.001250284839    -0.002188512798    -0.068066519667    30.973761998420
         H            0.633711915161     1.115995187202     0.732489980333     1.007825032230
         H            0.606837715161    -1.037861512798     0.679641480333     1.007825032230
         H           -1.202124284839    -0.010873512798     0.679775480333     1.007825032230

  Basis Set: AUG-CC-PVTZ
    Blend: AUG-CC-PVTZ
  Basis Set: (AUG-CC-PVTZ AUX)
    Blend: AUG-CC-PVTZ-JKFIT
	 Reference Energy          =    -342.4840312377117471 [Eh]
	 Singles Energy            =      -0.0000000000000000 [Eh]
	 Same-Spin Energy          =      -0.0424912904353836 [Eh]
	 Opposite-Spin Energy      =      -0.1791510365305620 [Eh]
	 Correlation Energy        =      -0.2216423269659457 [Eh]
	 Total Energy              =    -342.7056735646776815 [Eh]

	 ================> DF-SCS-MP2 Energies <==================
	-----------------------------------------------------------
	 SCS Same-Spin Scale       =       0.3333333333333333 [-]
	 SCS Opposite-Spin Scale   =       1.2000000000000000 [-]
	 SCS Same-Spin Energy      =      -0.0141637634784612 [Eh]
	 SCS Opposite-Spin Energy  =      -0.2149812438366744 [Eh]
	 SCS Correlation Energy    =      -0.2291450073151356 [Eh]
	 SCS Total Energy          =    -342.7131762450268866 [Eh]
	-----------------------------------------------------------

  Dipole Moment: [D]
     X:    -0.0456      Y:    -0.0803      Z:     0.5855     Total:     0.5927

*** Psi4 exiting successfully. Buy a developer a beer!
