                               Psi4 1.3.2 release

  ==> Input File <==

--------------------------------------------------------------------------
#psi4
#
memory 32 gb

molecule  {
0 1
  P       -0.0000140     0.0000000    -0.1246250
  H        0.5511098     0.9705423     0.5702285
  H        0.6080740    -1.0356730     0.6230830
  H       -1.2008880    -0.0086850     0.6232170
units angstrom
no_reorient  #important for SAPT in psi4, default
symmetry c1  #important for SAPT in psi4, default
}

set PROPERTIES_ORIGIN ["COM"]
properties('MP2/aug-cc-pvtz', properties = ['dipole'])
--------------------------------------------------------------------------

    Molecular point group: c1
  Charge       = 0
  Multiplicity = 1
  Basis Set: AUG-CC-PVTZ
    Blend: AUG-CC-PVTZ
  Basis Set: (AUG-CC-PVTZ AUX)
    Blend: AUG-CC-PVTZ-JKFIT

    Orbital Energies [Eh]
    ---------------------

    Doubly Occupied:

       1A    -79.936514     2A     -7.482217     3A     -5.376032
       4A     -5.375490     5A     -5.374711     6A     -0.866572
       7A     -0.539614     8A     -0.523058     9A     -0.384055

  @DF-RHF Final Energy:  -342.48376649821898

   => Energetics <=

    Nuclear Repulsion Energy =             18.0404947426180975
    One-Electron Energy =                -509.3319983537300004
    Two-Electron Energy =                 148.8077371128928803
    Total Energy =                       -342.4837664982190404
  Basis Set: (AUG-CC-PVTZ AUX)
    Blend: AUG-CC-PVTZ-RI
    Molecular point group: c1

    Geometry (in Angstrom), charge = 0, multiplicity = 1:

       Center              X                  Y                   Z               Mass
    ------------   -----------------  -----------------  -----------------  -----------------
         P            0.001235047658     0.002188216355    -0.064933025934    30.973761998420
         H            0.552358847658     0.972730516355     0.629920474066     1.007825032230
         H            0.609323047658    -1.033484783645     0.682774974066     1.007825032230
         H           -1.199638952342    -0.006496783645     0.682908974066     1.007825032230

  Basis Set: AUG-CC-PVTZ
    Blend: AUG-CC-PVTZ
  Basis Set: (AUG-CC-PVTZ AUX)
    Blend: AUG-CC-PVTZ-JKFIT
	 Reference Energy          =    -342.4837664982189835 [Eh]
	 Singles Energy            =      -0.0000000000000000 [Eh]
	 Same-Spin Energy          =      -0.0429610219767328 [Eh]
	 Opposite-Spin Energy      =      -0.1791620426371140 [Eh]
	 Correlation Energy        =      -0.2221230646138468 [Eh]
	 Total Energy              =    -342.7058895628328514 [Eh]

	 ================> DF-SCS-MP2 Energies <==================
	-----------------------------------------------------------
	 SCS Same-Spin Scale       =       0.3333333333333333 [-]
	 SCS Opposite-Spin Scale   =       1.2000000000000000 [-]
	 SCS Same-Spin Energy      =      -0.0143203406589109 [Eh]
	 SCS Opposite-Spin Energy  =      -0.2149944511645367 [Eh]
	 SCS Correlation Energy    =      -0.2293147918234477 [Eh]
	 SCS Total Energy          =    -342.7130812900424530 [Eh]
	-----------------------------------------------------------

  Dipole Moment: [D]
     X:     0.0414      Y:     0.0729      Z:     0.6797     Total:     0.6848

*** Psi4 exiting successfully. Buy a developer a beer!
