                               Psi4 1.4a3.dev225

  ==> Input File <==

--------------------------------------------------------------------------
#psi4
#
memory 32 gb

molecule  {
0 1
  P        0.0000000    -0.0000010    -0.1246070
  H        1.0667153    -0.5876110     0.6336074
  H       -1.0277210    -0.6212000     0.6230360
  H       -0.0241230     1.2006360     0.6230260
units angstrom
no_reorient  #important for SAPT in psi4, default
symmetry c1  #important for SAPT in psi4, default
}

set PROPERTIES_ORIGIN ["COM"]
properties('MP2/aug-cc-pvtz', properties = ['dipole'])
--------------------------------------------------------------------------

    Molecular point group: c1
  Charge       = 0
  Multiplicity = 1
  Basis Set: AUG-CC-PVTZ
    Blend: AUG-CC-PVTZ
  Basis Set: (AUG-CC-PVTZ AUX)
    Blend: AUG-CC-PVTZ-JKFIT

    Orbital Energies [Eh]
    ---------------------

    Doubly Occupied:

       1A    -79.947067     2A     -7.489621     3A     -5.383095
       4A     -5.383032     5A     -5.382167     6A     -0.853960
       7A     -0.524582     8A     -0.521182     9A     -0.385003

  @DF-RHF Final Energy:  -342.48780572272858

   => Energetics <=

    Nuclear Repulsion Energy =             17.5152508840855745
    One-Electron Energy =                -508.2666924671294169
    Two-Electron Energy =                 148.2636358603152757
    Total Energy =                       -342.4878057227285808
  Basis Set: (AUG-CC-PVTZ AUX)
    Blend: AUG-CC-PVTZ-RI
    Molecular point group: c1

    Geometry (in Angstrom), charge = 0, multiplicity = 1:

       Center              X                  Y                   Z               Mass
    ------------   -----------------  -----------------  -----------------  -----------------
         P           -0.000440849601     0.000242253397    -0.066803194291    30.973761998420
         H            1.066274450399    -0.587367746603     0.691411205709     1.007825032230
         H           -1.028161849601    -0.620956746603     0.680839805709     1.007825032230
         H           -0.024563849601     1.200879253397     0.680829805709     1.007825032230

  Basis Set: AUG-CC-PVTZ
    Blend: AUG-CC-PVTZ
  Basis Set: (AUG-CC-PVTZ AUX)
    Blend: AUG-CC-PVTZ-JKFIT
	 Reference Energy          =    -342.4878057227285808 [Eh]
	 Singles Energy            =      -0.0000000000000000 [Eh]
	 Same-Spin Energy          =      -0.0426615190008683 [Eh]
	 Opposite-Spin Energy      =      -0.1790268575574214 [Eh]
	 Correlation Energy        =      -0.2216883765582896 [Eh]
	 Total Energy              =    -342.7094940992868715 [Eh]

	 ================> DF-SCS-MP2 Energies <==================
	-----------------------------------------------------------
	 SCS Same-Spin Scale       =       0.3333333333333333 [-]
	 SCS Opposite-Spin Scale   =       1.2000000000000000 [-]
	 SCS Same-Spin Energy      =      -0.0142205063336228 [Eh]
	 SCS Opposite-Spin Energy  =      -0.2148322290689056 [Eh]
	 SCS Correlation Energy    =      -0.2290527354025284 [Eh]
	 SCS Total Energy          =    -342.7168584581311279 [Eh]
	-----------------------------------------------------------

  Dipole Moment: [D]
     X:    -0.0156      Y:     0.0086      Z:     0.6252     Total:     0.6255

*** Psi4 exiting successfully. Buy a developer a beer!
