                               Psi4 1.3.2 release

  ==> Input File <==

--------------------------------------------------------------------------
#psi4
#
memory 32 gb

molecule  {
0 1
  C       -2.8859240     0.0139080     0.0157160
  C        1.4367670    -0.0149690     0.0041590
  C        0.7466220     1.1986450    -0.0028730
  C        0.7284570    -1.2193500    -0.0024690
  C       -0.6498160     1.2004800    -0.0088600
  C       -0.6636910    -1.1986650    -0.0089510
  C       -1.3793250     0.0073430    -0.0161260
  O        2.8101880    -0.0968780     0.0088050
  H        1.2938976     2.1408426    -0.0535893
  H        3.1696110     0.8075920     0.0126850
  H        1.2824350    -2.1540410    -0.0024010
  H       -1.1767190     2.1533030    -0.0171340
  H       -1.2060620    -2.1429340    -0.0174000
  H       -3.2954860    -0.8156320    -0.5681670
  H       -3.2834940     0.9453750    -0.3973120
  H       -3.2640020    -0.0839940     1.0392920
units angstrom
no_reorient  #important for SAPT in psi4, default
symmetry c1  #important for SAPT in psi4, default
}

set PROPERTIES_ORIGIN ["COM"]
properties('MP2/aug-cc-pvtz', properties = ['dipole'])
--------------------------------------------------------------------------

    Molecular point group: c1
  Charge       = 0
  Multiplicity = 1
  Basis Set: AUG-CC-PVTZ
    Blend: AUG-CC-PVTZ
  Basis Set: (AUG-CC-PVTZ AUX)
    Blend: AUG-CC-PVTZ-JKFIT

    Orbital Energies [Eh]
    ---------------------

    Doubly Occupied:

       1A    -20.589552     2A    -11.299905     3A    -11.238793
       4A    -11.237138     5A    -11.235253     6A    -11.234994
       7A    -11.229172     8A    -11.223352     9A     -1.397853
      10A     -1.149123    11A     -1.036626    12A     -1.016896
      13A     -0.926280    14A     -0.843784    15A     -0.800660
      16A     -0.727375    17A     -0.669914    18A     -0.642380
      19A     -0.604818    20A     -0.588745    21A     -0.586593
      22A     -0.574626    23A     -0.570357    24A     -0.531314
      25A     -0.503791    26A     -0.487294    27A     -0.469966
      28A     -0.341051    29A     -0.305535

  @DF-RHF Final Energy:  -344.71875274727125

   => Energetics <=

    Nuclear Repulsion Energy =            341.7478833741938615
    One-Electron Energy =               -1144.8069963498662673
    Two-Electron Energy =                 458.3403602284011527
    Total Energy =                       -344.7187527472712532
  Basis Set: (AUG-CC-PVTZ AUX)
    Blend: AUG-CC-PVTZ-RI
    Molecular point group: c1

    Geometry (in Angstrom), charge = 0, multiplicity = 1:

       Center              X                  Y                   Z               Mass
    ------------   -----------------  -----------------  -----------------  -----------------
         C           -2.945293058566     0.021715735157     0.016605068963    12.000000000000
         C            1.377397941434    -0.007161264843     0.005048068963    12.000000000000
         C            0.687252941434     1.206452735157    -0.001983931037    12.000000000000
         C            0.669087941434    -1.211542264843    -0.001579931037    12.000000000000
         C           -0.709185058566     1.208287735157    -0.007970931037    12.000000000000
         C           -0.723060058566    -1.190857264843    -0.008061931037    12.000000000000
         C           -1.438694058566     0.015150735157    -0.015236931037    12.000000000000
         O            2.750818941434    -0.089070264843     0.009694068963    15.994914619570
         H            1.234528541434     2.148650335157    -0.052700231037     1.007825032230
         H            3.110241941434     0.815399735157     0.013574068963     1.007825032230
         H            1.223065941434    -2.146233264843    -0.001511931037     1.007825032230
         H           -1.236088058566     2.161110735157    -0.016244931037     1.007825032230
         H           -1.265431058566    -2.135126264843    -0.016510931037     1.007825032230
         H           -3.354855058566    -0.807824264843    -0.567277931037     1.007825032230
         H           -3.342863058566     0.953182735157    -0.396422931037     1.007825032230
         H           -3.323371058566    -0.076186264843     1.040181068963     1.007825032230

  Basis Set: AUG-CC-PVTZ
    Blend: AUG-CC-PVTZ
  Basis Set: (AUG-CC-PVTZ AUX)
    Blend: AUG-CC-PVTZ-JKFIT
	 Reference Energy          =    -344.7187527472712532 [Eh]
	 Singles Energy            =      -0.0000000000000000 [Eh]
	 Same-Spin Energy          =      -0.3695520800976362 [Eh]
	 Opposite-Spin Energy      =      -1.1637462242415824 [Eh]
	 Correlation Energy        =      -1.5332983043392185 [Eh]
	 Total Energy              =    -346.2520510516104650 [Eh]

	 ================> DF-SCS-MP2 Energies <==================
	-----------------------------------------------------------
	 SCS Same-Spin Scale       =       0.3333333333333333 [-]
	 SCS Opposite-Spin Scale   =       1.2000000000000000 [-]
	 SCS Same-Spin Energy      =      -0.1231840266992121 [Eh]
	 SCS Opposite-Spin Energy  =      -1.3964954690898987 [Eh]
	 SCS Correlation Energy    =      -1.5196794957891109 [Eh]
	 SCS Total Energy          =    -346.2384322430603447 [Eh]
	-----------------------------------------------------------

  Dipole Moment: [D]
     X:    -0.4735      Y:     1.2641      Z:     0.0034     Total:     1.3498

*** Psi4 exiting successfully. Buy a developer a beer!
