                               Psi4 1.3.2 release

  ==> Input File <==

--------------------------------------------------------------------------
#psi4
#
memory 32 gb

molecule  {
0 1
  C       -2.8859240     0.0139080     0.0157160
  C        1.4367670    -0.0149690     0.0041590
  C        0.7466220     1.1986450    -0.0028730
  C        0.7284570    -1.2193500    -0.0024690
  C       -0.6498160     1.2004800    -0.0088600
  C       -0.6636910    -1.1986650    -0.0089510
  C       -1.3793250     0.0073430    -0.0161260
  O        2.8096352    -0.0968571     0.1088035
  H        1.2936820     2.1410080    -0.0035900
  H        3.1696110     0.8075920     0.0126850
  H        1.2824350    -2.1540410    -0.0024010
  H       -1.1767190     2.1533030    -0.0171340
  H       -1.2060620    -2.1429340    -0.0174000
  H       -3.2954860    -0.8156320    -0.5681670
  H       -3.2834940     0.9453750    -0.3973120
  H       -3.2640020    -0.0839940     1.0392920
units angstrom
no_reorient  #important for SAPT in psi4, default
symmetry c1  #important for SAPT in psi4, default
}

set PROPERTIES_ORIGIN ["COM"]
properties('MP2/aug-cc-pvtz', properties = ['dipole'])
--------------------------------------------------------------------------

    Molecular point group: c1
  Charge       = 0
  Multiplicity = 1
  Basis Set: AUG-CC-PVTZ
    Blend: AUG-CC-PVTZ
  Basis Set: (AUG-CC-PVTZ AUX)
    Blend: AUG-CC-PVTZ-JKFIT

    Orbital Energies [Eh]
    ---------------------

    Doubly Occupied:

       1A    -20.589752     2A    -11.299744     3A    -11.238881
       4A    -11.237180     5A    -11.235484     6A    -11.235267
       7A    -11.229403     8A    -11.223509     9A     -1.395491
      10A     -1.149212    11A     -1.036638    12A     -1.017024
      13A     -0.926148    14A     -0.843538    15A     -0.800128
      16A     -0.725570    17A     -0.669816    18A     -0.642518
      19A     -0.605859    20A     -0.587292    21A     -0.586551
      22A     -0.575242    23A     -0.569277    24A     -0.531204
      25A     -0.503865    26A     -0.487451    27A     -0.470111
      28A     -0.341128    29A     -0.305926

  @DF-RHF Final Energy:  -344.71789211534150

   => Energetics <=

    Nuclear Repulsion Energy =            341.6566212831900771
    One-Electron Energy =               -1144.6306090834009410
    Two-Electron Energy =                 458.2560956848693081
    Total Energy =                       -344.7178921153414990
  Basis Set: (AUG-CC-PVTZ AUX)
    Blend: AUG-CC-PVTZ-RI
    Molecular point group: c1

    Geometry (in Angstrom), charge = 0, multiplicity = 1:

       Center              X                  Y                   Z               Mass
    ------------   -----------------  -----------------  -----------------  -----------------
         C           -2.945209221030     0.021711098848     0.001336736931    12.000000000000
         C            1.377481778970    -0.007165901152    -0.010220263069    12.000000000000
         C            0.687336778970     1.206448098848    -0.017252263069    12.000000000000
         C            0.669171778970    -1.211546901152    -0.016848263069    12.000000000000
         C           -0.709101221030     1.208283098848    -0.023239263069    12.000000000000
         C           -0.722976221030    -1.190861901152    -0.023330263069    12.000000000000
         C           -1.438610221030     0.015146098848    -0.030505263069    12.000000000000
         O            2.750349978970    -0.089054001152     0.094424236931    15.994914619570
         H            1.234396778970     2.148811098848    -0.017969263069     1.007825032230
         H            3.110325778970     0.815395098848    -0.001694263069     1.007825032230
         H            1.223149778970    -2.146237901152    -0.016780263069     1.007825032230
         H           -1.236004221030     2.161106098848    -0.031513263069     1.007825032230
         H           -1.265347221030    -2.135130901152    -0.031779263069     1.007825032230
         H           -3.354771221030    -0.807828901152    -0.582546263069     1.007825032230
         H           -3.342779221030     0.953178098848    -0.411691263069     1.007825032230
         H           -3.323287221030    -0.076190901152     1.024912736931     1.007825032230

  Basis Set: AUG-CC-PVTZ
    Blend: AUG-CC-PVTZ
  Basis Set: (AUG-CC-PVTZ AUX)
    Blend: AUG-CC-PVTZ-JKFIT
	 Reference Energy          =    -344.7178921153414990 [Eh]
	 Singles Energy            =      -0.0000000000000000 [Eh]
	 Same-Spin Energy          =      -0.3696407559913057 [Eh]
	 Opposite-Spin Energy      =      -1.1640025898310435 [Eh]
	 Correlation Energy        =      -1.5336433458223493 [Eh]
	 Total Energy              =    -346.2515354611638259 [Eh]

	 ================> DF-SCS-MP2 Energies <==================
	-----------------------------------------------------------
	 SCS Same-Spin Scale       =       0.3333333333333333 [-]
	 SCS Opposite-Spin Scale   =       1.2000000000000000 [-]
	 SCS Same-Spin Energy      =      -0.1232135853304352 [Eh]
	 SCS Opposite-Spin Energy  =      -1.3968031077972523 [Eh]
	 SCS Correlation Energy    =      -1.5200166931276875 [Eh]
	 SCS Total Energy          =    -346.2379088084691716 [Eh]
	-----------------------------------------------------------

  Dipole Moment: [D]
     X:    -0.4980      Y:     1.2616      Z:    -0.1251     Total:     1.3621

*** Psi4 exiting successfully. Buy a developer a beer!
