                               Psi4 1.3.2 release

  ==> Input File <==

--------------------------------------------------------------------------
#psi4
#
memory 32 gb

molecule  {
0 1
  C       -2.8859240     0.0139080     0.0157160
  C        1.4367670    -0.0149690     0.0041590
  C        0.7466220     1.1986450    -0.0028730
  C        0.7284570    -1.2193500    -0.0024690
  C       -0.6498160     1.2004800    -0.0088600
  C       -0.6636910    -1.1986650    -0.0089510
  C       -1.3793250     0.0073430    -0.0161260
  O        2.8101880    -0.0968780     0.0088050
  H        1.2941132     2.1406772    -0.1035885
  H        3.1696110     0.8075920     0.0126850
  H        1.2824350    -2.1540410    -0.0024010
  H       -1.1767190     2.1533030    -0.0171340
  H       -1.2060620    -2.1429340    -0.0174000
  H       -3.2954860    -0.8156320    -0.5681670
  H       -3.2834940     0.9453750    -0.3973120
  H       -3.2640020    -0.0839940     1.0392920
units angstrom
no_reorient  #important for SAPT in psi4, default
symmetry c1  #important for SAPT in psi4, default
}

set PROPERTIES_ORIGIN ["COM"]
properties('MP2/aug-cc-pvtz', properties = ['dipole'])
--------------------------------------------------------------------------

    Molecular point group: c1
  Charge       = 0
  Multiplicity = 1
  Basis Set: AUG-CC-PVTZ
    Blend: AUG-CC-PVTZ
  Basis Set: (AUG-CC-PVTZ AUX)
    Blend: AUG-CC-PVTZ-JKFIT

    Orbital Energies [Eh]
    ---------------------

    Doubly Occupied:

       1A    -20.589577     2A    -11.300003     3A    -11.238860
       4A    -11.237237     5A    -11.235509     6A    -11.235055
       7A    -11.229210     8A    -11.223375     9A     -1.397875
      10A     -1.149161    11A     -1.036641    12A     -1.016842
      13A     -0.926311    14A     -0.843645    15A     -0.800639
      16A     -0.727290    17A     -0.669902    18A     -0.642053
      19A     -0.604773    20A     -0.589252    21A     -0.585886
      22A     -0.574617    23A     -0.570383    24A     -0.531347
      25A     -0.503794    26A     -0.487359    27A     -0.469750
      28A     -0.341042    29A     -0.305577

  @DF-RHF Final Energy:  -344.71832372105547

   => Energetics <=

    Nuclear Repulsion Energy =            341.7343404249531886
    One-Electron Energy =               -1144.7793964417317056
    Two-Electron Energy =                 458.3267322957230476
    Total Energy =                       -344.7183237210554694
  Basis Set: (AUG-CC-PVTZ AUX)
    Blend: AUG-CC-PVTZ-RI
    Molecular point group: c1

    Geometry (in Angstrom), charge = 0, multiplicity = 1:

       Center              X                  Y                   Z               Mass
    ------------   -----------------  -----------------  -----------------  -----------------
         C           -2.945295069413     0.021717277800     0.017071398819    12.000000000000
         C            1.377395930587    -0.007159722200     0.005514398819    12.000000000000
         C            0.687250930587     1.206454277800    -0.001517601181    12.000000000000
         C            0.669085930587    -1.211540722200    -0.001113601181    12.000000000000
         C           -0.709187069413     1.208289277800    -0.007504601181    12.000000000000
         C           -0.723062069413    -1.190855722200    -0.007595601181    12.000000000000
         C           -1.438696069413     0.015152277800    -0.014770601181    12.000000000000
         O            2.750816930587    -0.089068722200     0.010160398819    15.994914619570
         H            1.234742130587     2.148486477800    -0.102233101181     1.007825032230
         H            3.110239930587     0.815401277800     0.014040398819     1.007825032230
         H            1.223063930587    -2.146231722200    -0.001045601181     1.007825032230
         H           -1.236090069413     2.161112277800    -0.015778601181     1.007825032230
         H           -1.265433069413    -2.135124722200    -0.016044601181     1.007825032230
         H           -3.354857069413    -0.807822722200    -0.566811601181     1.007825032230
         H           -3.342865069413     0.953184277800    -0.395956601181     1.007825032230
         H           -3.323373069413    -0.076184722200     1.040647398819     1.007825032230

  Basis Set: AUG-CC-PVTZ
    Blend: AUG-CC-PVTZ
  Basis Set: (AUG-CC-PVTZ AUX)
    Blend: AUG-CC-PVTZ-JKFIT
	 Reference Energy          =    -344.7183237210554694 [Eh]
	 Singles Energy            =      -0.0000000000000000 [Eh]
	 Same-Spin Energy          =      -0.3695782864491156 [Eh]
	 Opposite-Spin Energy      =      -1.1637987159232157 [Eh]
	 Correlation Energy        =      -1.5333770023723314 [Eh]
	 Total Energy              =    -346.2517007234278026 [Eh]

	 ================> DF-SCS-MP2 Energies <==================
	-----------------------------------------------------------
	 SCS Same-Spin Scale       =       0.3333333333333333 [-]
	 SCS Opposite-Spin Scale   =       1.2000000000000000 [-]
	 SCS Same-Spin Energy      =      -0.1231927621497052 [Eh]
	 SCS Opposite-Spin Energy  =      -1.3965584591078588 [Eh]
	 SCS Correlation Energy    =      -1.5197512212575641 [Eh]
	 SCS Total Energy          =    -346.2380749423130055 [Eh]
	-----------------------------------------------------------

  Dipole Moment: [D]
     X:    -0.4768      Y:     1.2575      Z:    -0.0299     Total:     1.3452

*** Psi4 exiting successfully. Buy a developer a beer!
