                               Psi4 1.3.2 release

  ==> Input File <==

--------------------------------------------------------------------------
#psi4
#
memory 32 gb

molecule  {
0 1
  C       -2.8859240     0.0139080     0.0157160
  C        1.4367670    -0.0149690     0.0041590
  C        0.7466220     1.1986450    -0.0028730
  C        0.7284570    -1.2193500    -0.0024690
  C       -0.6498160     1.2004800    -0.0088600
  C       -0.6636910    -1.1986650    -0.0089510
  C       -1.3793250     0.0073430    -0.0161260
  O        2.8101880    -0.0968780     0.0088050
  H        1.2936820     2.1410080    -0.0035900
  H        3.1696110     0.8075920     0.0126850
  H        1.2824350    -2.1540410    -0.0024010
  H       -1.1750040     2.1530237    -0.2671280
  H       -1.2060620    -2.1429340    -0.0174000
  H       -3.2954860    -0.8156320    -0.5681670
  H       -3.2834940     0.9453750    -0.3973120
  H       -3.2640020    -0.0839940     1.0392920
units angstrom
no_reorient  #important for SAPT in psi4, default
symmetry c1  #important for SAPT in psi4, default
}

set PROPERTIES_ORIGIN ["COM"]
properties('MP2/aug-cc-pvtz', properties = ['dipole'])
--------------------------------------------------------------------------

    Molecular point group: c1
  Charge       = 0
  Multiplicity = 1
  Basis Set: AUG-CC-PVTZ
    Blend: AUG-CC-PVTZ
  Basis Set: (AUG-CC-PVTZ AUX)
    Blend: AUG-CC-PVTZ-JKFIT

    Orbital Energies [Eh]
    ---------------------

    Doubly Occupied:

       1A    -20.589716     2A    -11.300101     3A    -11.241321
       4A    -11.237451     5A    -11.235769     6A    -11.235624
       7A    -11.229877     8A    -11.223461     9A     -1.398047
      10A     -1.149324    11A     -1.036838    12A     -1.016586
      13A     -0.926277    14A     -0.842890    15A     -0.800084
      16A     -0.726773    17A     -0.669382    18A     -0.642335
      19A     -0.603292    20A     -0.589601    21A     -0.583871
      22A     -0.574899    23A     -0.569765    24A     -0.530918
      25A     -0.504127    26A     -0.488166    27A     -0.467713
      28A     -0.340902    29A     -0.305755

  @DF-RHF Final Energy:  -344.71456631604548

   => Energetics <=

    Nuclear Repulsion Energy =            341.6394272252179007
    One-Electron Energy =               -1144.5862562216750575
    Two-Electron Energy =                 458.2322626804116794
    Total Energy =                       -344.7145663160454774
  Basis Set: (AUG-CC-PVTZ AUX)
    Blend: AUG-CC-PVTZ-RI
    Molecular point group: c1

    Geometry (in Angstrom), charge = 0, multiplicity = 1:

       Center              X                  Y                   Z               Mass
    ------------   -----------------  -----------------  -----------------  -----------------
         C           -2.945307043090     0.021716797473     0.018470368801    12.000000000000
         C            1.377383956910    -0.007160202527     0.006913368801    12.000000000000
         C            0.687238956910     1.206453797473    -0.000118631199    12.000000000000
         C            0.669073956910    -1.211541202527     0.000285368801    12.000000000000
         C           -0.709199043090     1.208288797473    -0.006105631199    12.000000000000
         C           -0.723074043090    -1.190856202527    -0.006196631199    12.000000000000
         C           -1.438708043090     0.015151797473    -0.013371631199    12.000000000000
         O            2.750804956910    -0.089069202527     0.011559368801    15.994914619570
         H            1.234298956910     2.148816797473    -0.000835631199     1.007825032230
         H            3.110227956910     0.815400797473     0.015439368801     1.007825032230
         H            1.223051956910    -2.146232202527     0.000353368801     1.007825032230
         H           -1.234387043090     2.160832497473    -0.264373631199     1.007825032230
         H           -1.265445043090    -2.135125202527    -0.014645631199     1.007825032230
         H           -3.354869043090    -0.807823202527    -0.565412631199     1.007825032230
         H           -3.342877043090     0.953183797473    -0.394557631199     1.007825032230
         H           -3.323385043090    -0.076185202527     1.042046368801     1.007825032230

  Basis Set: AUG-CC-PVTZ
    Blend: AUG-CC-PVTZ
  Basis Set: (AUG-CC-PVTZ AUX)
    Blend: AUG-CC-PVTZ-JKFIT
	 Reference Energy          =    -344.7145663160454774 [Eh]
	 Singles Energy            =      -0.0000000000000000 [Eh]
	 Same-Spin Energy          =      -0.3698052068584461 [Eh]
	 Opposite-Spin Energy      =      -1.1643193726835466 [Eh]
	 Correlation Energy        =      -1.5341245795419927 [Eh]
	 Total Energy              =    -346.2486908955874583 [Eh]

	 ================> DF-SCS-MP2 Energies <==================
	-----------------------------------------------------------
	 SCS Same-Spin Scale       =       0.3333333333333333 [-]
	 SCS Opposite-Spin Scale   =       1.2000000000000000 [-]
	 SCS Same-Spin Energy      =      -0.1232684022861487 [Eh]
	 SCS Opposite-Spin Energy  =      -1.3971832472202559 [Eh]
	 SCS Correlation Energy    =      -1.5204516495064047 [Eh]
	 SCS Total Energy          =    -346.2350179655518900 [Eh]
	-----------------------------------------------------------

  Dipole Moment: [D]
     X:    -0.4423      Y:     1.2134      Z:    -0.1071     Total:     1.2959

*** Psi4 exiting successfully. Buy a developer a beer!
