                               Psi4 1.3.2 release

  ==> Input File <==

--------------------------------------------------------------------------
#psi4
#
memory 32 gb

molecule  {
0 1
  C       -2.8859240     0.0139080     0.0157160
  C        1.4367670    -0.0149690     0.0041590
  C        0.7466220     1.1986450    -0.0028730
  C        0.7284570    -1.2193500    -0.0024690
  C       -0.6498160     1.2004800    -0.0088600
  C       -0.6636910    -1.1986650    -0.0089510
  C       -1.3793250     0.0073430    -0.0161260
  O        2.8101880    -0.0968780     0.0088050
  H        1.2936820     2.1410080    -0.0035900
  H        3.1696110     0.8075920     0.0126850
  H        1.2824350    -2.1540410    -0.0024010
  H       -1.1767190     2.1533030    -0.0171340
  H       -1.2060620    -2.1429340    -0.0174000
  H       -3.2954860    -0.8156320    -0.5681670
  H       -3.2834940     0.9453750    -0.3973120
  H       -3.2640020    -0.0839940     1.0392920
units angstrom
no_reorient  #important for SAPT in psi4, default
symmetry c1  #important for SAPT in psi4, default
}

set PROPERTIES_ORIGIN ["COM"]
properties('MP2/aug-cc-pvtz', properties = ['dipole'])
--------------------------------------------------------------------------

    Molecular point group: c1
  Charge       = 0
  Multiplicity = 1
  Basis Set: AUG-CC-PVTZ
    Blend: AUG-CC-PVTZ
  Basis Set: (AUG-CC-PVTZ AUX)
    Blend: AUG-CC-PVTZ-JKFIT

    Orbital Energies [Eh]
    ---------------------

    Doubly Occupied:

       1A    -20.589537     2A    -11.299861     3A    -11.238776
       4A    -11.237099     5A    -11.235179     6A    -11.234963
       7A    -11.229155     8A    -11.223346     9A     -1.397840
      10A     -1.149109    11A     -1.036620    12A     -1.016913
      13A     -0.926270    14A     -0.843830    15A     -0.800666
      16A     -0.727400    17A     -0.669917    18A     -0.642492
      19A     -0.604847    20A     -0.588425    21A     -0.586935
      22A     -0.574647    23A     -0.570346    24A     -0.531302
      25A     -0.503780    26A     -0.487272    27A     -0.470061
      28A     -0.341054    29A     -0.305513

  @DF-RHF Final Energy:  -344.71889372617511

   => Energetics <=

    Nuclear Repulsion Energy =            341.7523885768362106
    One-Electron Energy =               -1144.8162579786487640
    Two-Electron Energy =                 458.3449756756374427
    Total Energy =                       -344.7188937261751107
  Basis Set: (AUG-CC-PVTZ AUX)
    Blend: AUG-CC-PVTZ-RI
    Molecular point group: c1

    Geometry (in Angstrom), charge = 0, multiplicity = 1:

       Center              X                  Y                   Z               Mass
    ------------   -----------------  -----------------  -----------------  -----------------
         C           -2.945291047720     0.021714192513     0.016138738174    12.000000000000
         C            1.377399952280    -0.007162807487     0.004581738174    12.000000000000
         C            0.687254952280     1.206451192513    -0.002450261826    12.000000000000
         C            0.669089952280    -1.211543807487    -0.002046261826    12.000000000000
         C           -0.709183047720     1.208286192513    -0.008437261826    12.000000000000
         C           -0.723058047720    -1.190858807487    -0.008528261826    12.000000000000
         C           -1.438692047720     0.015149192513    -0.015703261826    12.000000000000
         O            2.750820952280    -0.089071807487     0.009227738174    15.994914619570
         H            1.234314952280     2.148814192513    -0.003167261826     1.007825032230
         H            3.110243952280     0.815398192513     0.013107738174     1.007825032230
         H            1.223067952280    -2.146234807487    -0.001978261826     1.007825032230
         H           -1.236086047720     2.161109192513    -0.016711261826     1.007825032230
         H           -1.265429047720    -2.135127807487    -0.016977261826     1.007825032230
         H           -3.354853047720    -0.807825807487    -0.567744261826     1.007825032230
         H           -3.342861047720     0.953181192513    -0.396889261826     1.007825032230
         H           -3.323369047720    -0.076187807487     1.039714738174     1.007825032230

  Basis Set: AUG-CC-PVTZ
    Blend: AUG-CC-PVTZ
  Basis Set: (AUG-CC-PVTZ AUX)
    Blend: AUG-CC-PVTZ-JKFIT
	 Reference Energy          =    -344.7188937261751107 [Eh]
	 Singles Energy            =      -0.0000000000000000 [Eh]
	 Same-Spin Energy          =      -0.3695425545387644 [Eh]
	 Opposite-Spin Energy      =      -1.1637292327231465 [Eh]
	 Correlation Energy        =      -1.5332717872619108 [Eh]
	 Total Energy              =    -346.2521655134370349 [Eh]

	 ================> DF-SCS-MP2 Energies <==================
	-----------------------------------------------------------
	 SCS Same-Spin Scale       =       0.3333333333333333 [-]
	 SCS Opposite-Spin Scale   =       1.2000000000000000 [-]
	 SCS Same-Spin Energy      =      -0.1231808515129215 [Eh]
	 SCS Opposite-Spin Energy  =      -1.3964750792677758 [Eh]
	 SCS Correlation Energy    =      -1.5196559307806972 [Eh]
	 SCS Total Energy          =    -346.2385496569557972 [Eh]
	-----------------------------------------------------------

  Dipole Moment: [D]
     X:    -0.4728      Y:     1.2666      Z:     0.0368     Total:     1.3525

*** Psi4 exiting successfully. Buy a developer a beer!
