                               Psi4 1.3.2 release

  ==> Input File <==

--------------------------------------------------------------------------
#psi4
#
memory 32 gb

molecule  {
0 1
  C       -2.8859240     0.0139080     0.0157160
  C        1.4367670    -0.0149690     0.0041590
  C        0.7466220     1.1986450    -0.0028730
  C        0.7284570    -1.2193500    -0.0024690
  C       -0.6498160     1.2004800    -0.0088600
  C       -0.6636910    -1.1986650    -0.0089510
  C       -1.3793250     0.0073430    -0.0161260
  O        2.8093588    -0.0968467     0.1588027
  H        1.2936820     2.1410080    -0.0035900
  H        3.1696110     0.8075920     0.0126850
  H        1.2824350    -2.1540410    -0.0024010
  H       -1.1767190     2.1533030    -0.0171340
  H       -1.2060620    -2.1429340    -0.0174000
  H       -3.2954860    -0.8156320    -0.5681670
  H       -3.2834940     0.9453750    -0.3973120
  H       -3.2640020    -0.0839940     1.0392920
units angstrom
no_reorient  #important for SAPT in psi4, default
symmetry c1  #important for SAPT in psi4, default
}

set PROPERTIES_ORIGIN ["COM"]
properties('MP2/aug-cc-pvtz', properties = ['dipole'])
--------------------------------------------------------------------------

    Molecular point group: c1
  Charge       = 0
  Multiplicity = 1
  Basis Set: AUG-CC-PVTZ
    Blend: AUG-CC-PVTZ
  Basis Set: (AUG-CC-PVTZ AUX)
    Blend: AUG-CC-PVTZ-JKFIT

    Orbital Energies [Eh]
    ---------------------

    Doubly Occupied:

       1A    -20.590018     2A    -11.299606     3A    -11.239023
       4A    -11.237304     5A    -11.235876     6A    -11.235654
       7A    -11.229734     8A    -11.223730     9A     -1.392496
      10A     -1.149352    11A     -1.036677    12A     -1.017173
      13A     -0.926021    14A     -0.843199    15A     -0.799496
      16A     -0.723194    17A     -0.669693    18A     -0.642534
      19A     -0.606765    20A     -0.587360    21A     -0.585198
      22A     -0.575403    23A     -0.568263    24A     -0.531078
      25A     -0.503968    26A     -0.487673    27A     -0.470178
      28A     -0.341228    29A     -0.306465

  @DF-RHF Final Energy:  -344.71653004820553

   => Energetics <=

    Nuclear Repulsion Energy =            341.5345693855832678
    One-Electron Energy =               -1144.3934780365773349
    Two-Electron Energy =                 458.1423786027885399
    Total Energy =                       -344.7165300482055272
  Basis Set: (AUG-CC-PVTZ AUX)
    Blend: AUG-CC-PVTZ-RI
    Molecular point group: c1

    Geometry (in Angstrom), charge = 0, multiplicity = 1:

       Center              X                  Y                   Z               Mass
    ------------   -----------------  -----------------  -----------------  -----------------
         C           -2.945168307684     0.021709559417    -0.006064256290    12.000000000000
         C            1.377522692316    -0.007167440583    -0.017621256290    12.000000000000
         C            0.687377692316     1.206446559417    -0.024653256290    12.000000000000
         C            0.669212692316    -1.211548440583    -0.024249256290    12.000000000000
         C           -0.709060307684     1.208281559417    -0.030640256290    12.000000000000
         C           -0.722935307684    -1.190863440583    -0.030731256290    12.000000000000
         C           -1.438569307684     0.015144559417    -0.037906256290    12.000000000000
         O            2.750114492316    -0.089045140583     0.137022443710    15.994914619570
         H            1.234437692316     2.148809559417    -0.025370256290     1.007825032230
         H            3.110366692316     0.815393559417    -0.009095256290     1.007825032230
         H            1.223190692316    -2.146239440583    -0.024181256290     1.007825032230
         H           -1.235963307684     2.161104559417    -0.038914256290     1.007825032230
         H           -1.265306307684    -2.135132440583    -0.039180256290     1.007825032230
         H           -3.354730307684    -0.807830440583    -0.589947256290     1.007825032230
         H           -3.342738307684     0.953176559417    -0.419092256290     1.007825032230
         H           -3.323246307684    -0.076192440583     1.017511743710     1.007825032230

  Basis Set: AUG-CC-PVTZ
    Blend: AUG-CC-PVTZ
  Basis Set: (AUG-CC-PVTZ AUX)
    Blend: AUG-CC-PVTZ-JKFIT
	 Reference Energy          =    -344.7165300482055272 [Eh]
	 Singles Energy            =      -0.0000000000000000 [Eh]
	 Same-Spin Energy          =      -0.3697679805734959 [Eh]
	 Opposite-Spin Energy      =      -1.1643682994591527 [Eh]
	 Correlation Energy        =      -1.5341362800326486 [Eh]
	 Total Energy              =    -346.2506663282381965 [Eh]

	 ================> DF-SCS-MP2 Energies <==================
	-----------------------------------------------------------
	 SCS Same-Spin Scale       =       0.3333333333333333 [-]
	 SCS Opposite-Spin Scale   =       1.2000000000000000 [-]
	 SCS Same-Spin Energy      =      -0.1232559935244986 [Eh]
	 SCS Opposite-Spin Energy  =      -1.3972419593509831 [Eh]
	 SCS Correlation Energy    =      -1.5204979528754816 [Eh]
	 SCS Total Energy          =    -346.2370280010810006 [Eh]
	-----------------------------------------------------------

  Dipole Moment: [D]
     X:    -0.5308      Y:     1.2552      Z:    -0.2058     Total:     1.3783

*** Psi4 exiting successfully. Buy a developer a beer!
