                               Psi4 1.3.2 release

  ==> Input File <==

--------------------------------------------------------------------------
#psi4
#
memory 32 gb

molecule  {
0 1
  C       -2.8859240     0.0139080     0.0157160
  C        1.4367670    -0.0149690     0.0041590
  C        0.7466220     1.1986450    -0.0028730
  C        0.7284570    -1.2193500    -0.0024690
  C       -0.6498160     1.2004800    -0.0088600
  C       -0.6636910    -1.1986650    -0.0089510
  C       -1.3793250     0.0073430    -0.0161260
  O        2.8101880    -0.0968780     0.0088050
  H        1.2943289     2.1405118    -0.1535878
  H        3.1696110     0.8075920     0.0126850
  H        1.2824350    -2.1540410    -0.0024010
  H       -1.1767190     2.1533030    -0.0171340
  H       -1.2060620    -2.1429340    -0.0174000
  H       -3.2954860    -0.8156320    -0.5681670
  H       -3.2834940     0.9453750    -0.3973120
  H       -3.2640020    -0.0839940     1.0392920
units angstrom
no_reorient  #important for SAPT in psi4, default
symmetry c1  #important for SAPT in psi4, default
}

set PROPERTIES_ORIGIN ["COM"]
properties('MP2/aug-cc-pvtz', properties = ['dipole'])
--------------------------------------------------------------------------

    Molecular point group: c1
  Charge       = 0
  Multiplicity = 1
  Basis Set: AUG-CC-PVTZ
    Blend: AUG-CC-PVTZ
  Basis Set: (AUG-CC-PVTZ AUX)
    Blend: AUG-CC-PVTZ-JKFIT

    Orbital Energies [Eh]
    ---------------------

    Doubly Occupied:

       1A    -20.589614     2A    -11.300157     3A    -11.238979
       4A    -11.237395     5A    -11.235958     6A    -11.235129
       7A    -11.229272     8A    -11.223417     9A     -1.397906
      10A     -1.149223    11A     -1.036668    12A     -1.016754
      13A     -0.926364    14A     -0.843422    15A     -0.800604
      16A     -0.727151    17A     -0.669887    18A     -0.641520
      19A     -0.604712    20A     -0.589758    21A     -0.585001
      22A     -0.574617    23A     -0.570423    24A     -0.531402
      25A     -0.503789    26A     -0.487462    27A     -0.469417
      28A     -0.341028    29A     -0.305640

  @DF-RHF Final Energy:  -344.71758595738595

   => Energetics <=

    Nuclear Repulsion Energy =            341.7119457329437182
    One-Electron Energy =               -1144.7337290297614345
    Two-Electron Energy =                 458.3041973394317665
    Total Energy =                       -344.7175859573859498
  Basis Set: (AUG-CC-PVTZ AUX)
    Blend: AUG-CC-PVTZ-RI
    Molecular point group: c1

    Geometry (in Angstrom), charge = 0, multiplicity = 1:

       Center              X                  Y                   Z               Mass
    ------------   -----------------  -----------------  -----------------  -----------------
         C           -2.945297081192     0.021718820444     0.017537729608    12.000000000000
         C            1.377393918808    -0.007158179556     0.005980729608    12.000000000000
         C            0.687248918808     1.206455820444    -0.001051270392    12.000000000000
         C            0.669083918808    -1.211539179556    -0.000647270392    12.000000000000
         C           -0.709189081192     1.208290820444    -0.007038270392    12.000000000000
         C           -0.723064081192    -1.190854179556    -0.007129270392    12.000000000000
         C           -1.438698081192     0.015153820444    -0.014304270392    12.000000000000
         O            2.750814918808    -0.089067179556     0.010626729608    15.994914619570
         H            1.234955818808     2.148322620444    -0.151766070392     1.007825032230
         H            3.110237918808     0.815402820444     0.014506729608     1.007825032230
         H            1.223061918808    -2.146230179556    -0.000579270392     1.007825032230
         H           -1.236092081192     2.161113820444    -0.015312270392     1.007825032230
         H           -1.265435081192    -2.135123179556    -0.015578270392     1.007825032230
         H           -3.354859081192    -0.807821179556    -0.566345270392     1.007825032230
         H           -3.342867081192     0.953185820444    -0.395490270392     1.007825032230
         H           -3.323375081192    -0.076183179556     1.041113729608     1.007825032230

  Basis Set: AUG-CC-PVTZ
    Blend: AUG-CC-PVTZ
  Basis Set: (AUG-CC-PVTZ AUX)
    Blend: AUG-CC-PVTZ-JKFIT
	 Reference Energy          =    -344.7175859573859498 [Eh]
	 Singles Energy            =      -0.0000000000000000 [Eh]
	 Same-Spin Energy          =      -0.3696210747735372 [Eh]
	 Opposite-Spin Energy      =      -1.1638916246204094 [Eh]
	 Correlation Energy        =      -1.5335126993939467 [Eh]
	 Total Energy              =    -346.2510986567799023 [Eh]

	 ================> DF-SCS-MP2 Energies <==================
	-----------------------------------------------------------
	 SCS Same-Spin Scale       =       0.3333333333333333 [-]
	 SCS Opposite-Spin Scale   =       1.2000000000000000 [-]
	 SCS Same-Spin Energy      =      -0.1232070249245124 [Eh]
	 SCS Opposite-Spin Energy  =      -1.3966699495444912 [Eh]
	 SCS Correlation Energy    =      -1.5198769744690037 [Eh]
	 SCS Total Energy          =    -346.2374629318549637 [Eh]
	-----------------------------------------------------------

  Dipole Moment: [D]
     X:    -0.4829      Y:     1.2468      Z:    -0.0628     Total:     1.3386

*** Psi4 exiting successfully. Buy a developer a beer!
