                               Psi4 1.3.2 release

  ==> Input File <==

--------------------------------------------------------------------------
#psi4
#
memory 32 gb

molecule  {
0 1
  C       -2.8859240     0.0139080     0.0157160
  C        1.4367670    -0.0149690     0.0041590
  C        0.7466220     1.1986450    -0.0028730
  C        0.7284570    -1.2193500    -0.0024690
  C       -0.6498160     1.2004800    -0.0088600
  C       -0.6636910    -1.1986650    -0.0089510
  C       -1.3793250     0.0073430    -0.0161260
  O        2.8101880    -0.0968780     0.0088050
  H        1.2945445     2.1403464    -0.2035870
  H        3.1696110     0.8075920     0.0126850
  H        1.2824350    -2.1540410    -0.0024010
  H       -1.1767190     2.1533030    -0.0171340
  H       -1.2060620    -2.1429340    -0.0174000
  H       -3.2954860    -0.8156320    -0.5681670
  H       -3.2834940     0.9453750    -0.3973120
  H       -3.2640020    -0.0839940     1.0392920
units angstrom
no_reorient  #important for SAPT in psi4, default
symmetry c1  #important for SAPT in psi4, default
}

set PROPERTIES_ORIGIN ["COM"]
properties('MP2/aug-cc-pvtz', properties = ['dipole'])
--------------------------------------------------------------------------

    Molecular point group: c1
  Charge       = 0
  Multiplicity = 1
  Basis Set: AUG-CC-PVTZ
    Blend: AUG-CC-PVTZ
  Basis Set: (AUG-CC-PVTZ AUX)
    Blend: AUG-CC-PVTZ-JKFIT

    Orbital Energies [Eh]
    ---------------------

    Doubly Occupied:

       1A    -20.589663     2A    -11.300366     3A    -11.239154
       4A    -11.237614     5A    -11.236587     6A    -11.235221
       7A    -11.229356     8A    -11.223477     9A     -1.397946
      10A     -1.149312    11A     -1.036707    12A     -1.016636
      13A     -0.926438    14A     -0.843125    15A     -0.800558
      16A     -0.726966    17A     -0.669874    18A     -0.640800
      19A     -0.604635    20A     -0.590224    21A     -0.583975
      22A     -0.574620    23A     -0.570476    24A     -0.531479
      25A     -0.503773    26A     -0.487595    27A     -0.468972
      28A     -0.341010    29A     -0.305724

  @DF-RHF Final Energy:  -344.71650765690833

   => Energetics <=

    Nuclear Repulsion Energy =            341.6810005761319644
    One-Electron Energy =               -1144.6704564428537196
    Two-Electron Energy =                 458.2729482098134213
    Total Energy =                       -344.7165076569083340
  Basis Set: (AUG-CC-PVTZ AUX)
    Blend: AUG-CC-PVTZ-RI
    Molecular point group: c1

    Geometry (in Angstrom), charge = 0, multiplicity = 1:

       Center              X                  Y                   Z               Mass
    ------------   -----------------  -----------------  -----------------  -----------------
         C           -2.945299092039     0.021720363088     0.018004059464    12.000000000000
         C            1.377391907961    -0.007156636912     0.006447059464    12.000000000000
         C            0.687246907961     1.206457363088    -0.000584940536    12.000000000000
         C            0.669081907961    -1.211537636912    -0.000180940536    12.000000000000
         C           -0.709191092039     1.208292363088    -0.006571940536    12.000000000000
         C           -0.723066092039    -1.190852636912    -0.006662940536    12.000000000000
         C           -1.438700092039     0.015155363088    -0.013837940536    12.000000000000
         O            2.750812907961    -0.089065636912     0.011093059464    15.994914619570
         H            1.235169407961     2.148158763088    -0.201298940536     1.007825032230
         H            3.110235907961     0.815404363088     0.014973059464     1.007825032230
         H            1.223059907961    -2.146228636912    -0.000112940536     1.007825032230
         H           -1.236094092039     2.161115363088    -0.014845940536     1.007825032230
         H           -1.265437092039    -2.135121636912    -0.015111940536     1.007825032230
         H           -3.354861092039    -0.807819636912    -0.565878940536     1.007825032230
         H           -3.342869092039     0.953187363088    -0.395023940536     1.007825032230
         H           -3.323377092039    -0.076181636912     1.041580059464     1.007825032230

  Basis Set: AUG-CC-PVTZ
    Blend: AUG-CC-PVTZ
  Basis Set: (AUG-CC-PVTZ AUX)
    Blend: AUG-CC-PVTZ-JKFIT
	 Reference Energy          =    -344.7165076569083340 [Eh]
	 Singles Energy            =      -0.0000000000000000 [Eh]
	 Same-Spin Energy          =      -0.3696799479329101 [Eh]
	 Opposite-Spin Energy      =      -1.1640282777746749 [Eh]
	 Correlation Energy        =      -1.5337082257075849 [Eh]
	 Total Energy              =    -346.2502158826159189 [Eh]

	 ================> DF-SCS-MP2 Energies <==================
	-----------------------------------------------------------
	 SCS Same-Spin Scale       =       0.3333333333333333 [-]
	 SCS Opposite-Spin Scale   =       1.2000000000000000 [-]
	 SCS Same-Spin Energy      =      -0.1232266493109700 [Eh]
	 SCS Opposite-Spin Energy  =      -1.3968339333296098 [Eh]
	 SCS Correlation Energy    =      -1.5200605826405797 [Eh]
	 SCS Total Energy          =    -346.2365682395488875 [Eh]
	-----------------------------------------------------------

  Dipole Moment: [D]
     X:    -0.4915      Y:     1.2323      Z:    -0.0952     Total:     1.3302

*** Psi4 exiting successfully. Buy a developer a beer!
