                               Psi4 1.3.2 release

  ==> Input File <==

--------------------------------------------------------------------------
#psi4
#
memory 32 gb

molecule  {
0 1
  C       -2.8859240     0.0139080     0.0157160
  C        1.4367670    -0.0149690     0.0041590
  C        0.7466220     1.1986450    -0.0028730
  C        0.7284570    -1.2193500    -0.0024690
  C       -0.6498160     1.2004800    -0.0088600
  C       -0.6670042    -1.1986345    -0.3089327
  C       -1.3793250     0.0073430    -0.0161260
  O        2.8101880    -0.0968780     0.0088050
  H        1.2936820     2.1410080    -0.0035900
  H        3.1696110     0.8075920     0.0126850
  H        1.2824350    -2.1540410    -0.0024010
  H       -1.1767190     2.1533030    -0.0171340
  H       -1.2060620    -2.1429340    -0.0174000
  H       -3.2954860    -0.8156320    -0.5681670
  H       -3.2834940     0.9453750    -0.3973120
  H       -3.2640020    -0.0839940     1.0392920
units angstrom
no_reorient  #important for SAPT in psi4, default
symmetry c1  #important for SAPT in psi4, default
}

set PROPERTIES_ORIGIN ["COM"]
properties('MP2/aug-cc-pvtz', properties = ['dipole'])
--------------------------------------------------------------------------

    Molecular point group: c1
  Charge       = 0
  Multiplicity = 1
  Basis Set: AUG-CC-PVTZ
    Blend: AUG-CC-PVTZ
  Basis Set: (AUG-CC-PVTZ AUX)
    Blend: AUG-CC-PVTZ-JKFIT

    Orbital Energies [Eh]
    ---------------------

    Doubly Occupied:

       1A    -20.589380     2A    -11.299065     3A    -11.244200
       4A    -11.242939     5A    -11.240404     6A    -11.237905
       7A    -11.236451     8A    -11.223963     9A     -1.397908
      10A     -1.146135    11A     -1.036621    12A     -1.013253
      13A     -0.925741    14A     -0.843183    15A     -0.795732
      16A     -0.724047    17A     -0.668956    18A     -0.641031
      19A     -0.601547    20A     -0.591065    21A     -0.580734
      22A     -0.571868    23A     -0.568810    24A     -0.528642
      25A     -0.500558    26A     -0.485433    27A     -0.464590
      28A     -0.340463    29A     -0.304017

  @DF-RHF Final Energy:  -344.69052895941422

   => Energetics <=

    Nuclear Repulsion Energy =            340.7349015929690950
    One-Electron Energy =               -1142.7615776095999536
    Two-Electron Energy =                 457.3361470572166354
    Total Energy =                       -344.6905289594142232
  Basis Set: (AUG-CC-PVTZ AUX)
    Blend: AUG-CC-PVTZ-RI
    Molecular point group: c1

    Geometry (in Angstrom), charge = 0, multiplicity = 1:

       Center              X                  Y                   Z               Mass
    ------------   -----------------  -----------------  -----------------  -----------------
         C           -2.944923110330     0.021710805428     0.049452297200    12.000000000000
         C            1.377767889670    -0.007166194572     0.037895297200    12.000000000000
         C            0.687622889670     1.206447805428     0.030863297200    12.000000000000
         C            0.669457889670    -1.211547194572     0.031267297200    12.000000000000
         C           -0.708815110330     1.208282805428     0.024876297200    12.000000000000
         C           -0.726003310330    -1.190831694572    -0.275196402800    12.000000000000
         C           -1.438324110330     0.015145805428     0.017610297200    12.000000000000
         O            2.751188889670    -0.089075194572     0.042541297200    15.994914619570
         H            1.234682889670     2.148810805428     0.030146297200     1.007825032230
         H            3.110611889670     0.815394805428     0.046421297200     1.007825032230
         H            1.223435889670    -2.146238194572     0.031335297200     1.007825032230
         H           -1.235718110330     2.161105805428     0.016602297200     1.007825032230
         H           -1.265061110330    -2.135131194572     0.016336297200     1.007825032230
         H           -3.354485110330    -0.807829194572    -0.534430702800     1.007825032230
         H           -3.342493110330     0.953177805428    -0.363575702800     1.007825032230
         H           -3.323001110330    -0.076191194572     1.073028297200     1.007825032230

  Basis Set: AUG-CC-PVTZ
    Blend: AUG-CC-PVTZ
  Basis Set: (AUG-CC-PVTZ AUX)
    Blend: AUG-CC-PVTZ-JKFIT
	 Reference Energy          =    -344.6905289594142232 [Eh]
	 Singles Energy            =      -0.0000000000000000 [Eh]
	 Same-Spin Energy          =      -0.3710495789159340 [Eh]
	 Opposite-Spin Energy      =      -1.1681294026712072 [Eh]
	 Correlation Energy        =      -1.5391789815871413 [Eh]
	 Total Energy              =    -346.2297079410013794 [Eh]

	 ================> DF-SCS-MP2 Energies <==================
	-----------------------------------------------------------
	 SCS Same-Spin Scale       =       0.3333333333333333 [-]
	 SCS Opposite-Spin Scale   =       1.2000000000000000 [-]
	 SCS Same-Spin Energy      =      -0.1236831929719780 [Eh]
	 SCS Opposite-Spin Energy  =      -1.4017552832054487 [Eh]
	 SCS Correlation Energy    =      -1.5254384761774267 [Eh]
	 SCS Total Energy          =    -346.2159674355916650 [Eh]
	-----------------------------------------------------------

  Dipole Moment: [D]
     X:    -0.3996      Y:     1.4451      Z:     0.2406     Total:     1.5185

*** Psi4 exiting successfully. Buy a developer a beer!
