                               Psi4 1.3.2 release

  ==> Input File <==

--------------------------------------------------------------------------
#psi4
#
memory 32 gb

molecule  {
0 1
  C       -2.8859240     0.0139080     0.0157160
  C        1.4367670    -0.0149690     0.0041590
  C        0.7466220     1.1986450    -0.0028730
  C        0.7284570    -1.2193500    -0.0024690
  C       -0.6498160     1.2004800    -0.0088600
  C       -0.6636910    -1.1986650    -0.0089510
  C       -1.3793250     0.0073430    -0.0161260
  O        2.8088060    -0.0968258     0.2588012
  H        1.2936820     2.1410080    -0.0035900
  H        3.1696110     0.8075920     0.0126850
  H        1.2824350    -2.1540410    -0.0024010
  H       -1.1767190     2.1533030    -0.0171340
  H       -1.2060620    -2.1429340    -0.0174000
  H       -3.2954860    -0.8156320    -0.5681670
  H       -3.2834940     0.9453750    -0.3973120
  H       -3.2640020    -0.0839940     1.0392920
units angstrom
no_reorient  #important for SAPT in psi4, default
symmetry c1  #important for SAPT in psi4, default
}

set PROPERTIES_ORIGIN ["COM"]
properties('MP2/aug-cc-pvtz', properties = ['dipole'])
--------------------------------------------------------------------------

    Molecular point group: c1
  Charge       = 0
  Multiplicity = 1
  Basis Set: AUG-CC-PVTZ
    Blend: AUG-CC-PVTZ
  Basis Set: (AUG-CC-PVTZ AUX)
    Blend: AUG-CC-PVTZ-JKFIT

    Orbital Energies [Eh]
    ---------------------

    Doubly Occupied:

       1A    -20.590904     2A    -11.299274     3A    -11.239508
       4A    -11.237908     5A    -11.237012     6A    -11.236722
       7A    -11.230790     8A    -11.224424     9A     -1.383142
      10A     -1.149816    11A     -1.036870    12A     -1.017652
      13A     -0.925763    14A     -0.842330    15A     -0.797852
      16A     -0.715553    17A     -0.669343    18A     -0.642481
      19A     -0.608490    20A     -0.587902    21A     -0.581860
      22A     -0.575760    23A     -0.565126    24A     -0.530576
      25A     -0.504251    26A     -0.488329    27A     -0.470399
      28A     -0.341558    29A     -0.308122

  @DF-RHF Final Energy:  -344.71158191704308

   => Energetics <=

    Nuclear Repulsion Energy =            341.1491557752938775
    One-Electron Energy =               -1143.6420374646047549
    Two-Electron Energy =                 457.7812997722678574
    Total Energy =                       -344.7115819170430768
  Basis Set: (AUG-CC-PVTZ AUX)
    Blend: AUG-CC-PVTZ-RI
    Molecular point group: c1

    Geometry (in Angstrom), charge = 0, multiplicity = 1:

       Center              X                  Y                   Z               Mass
    ------------   -----------------  -----------------  -----------------  -----------------
         C           -2.945086480994     0.021706465752    -0.020866257533    12.000000000000
         C            1.377604519006    -0.007170534248    -0.032423257533    12.000000000000
         C            0.687459519006     1.206443465752    -0.039455257533    12.000000000000
         C            0.669294519006    -1.211551534248    -0.039051257533    12.000000000000
         C           -0.708978480994     1.208278465752    -0.045442257533    12.000000000000
         C           -0.722853480994    -1.190866534248    -0.045533257533    12.000000000000
         C           -1.438487480994     0.015141465752    -0.052708257533    12.000000000000
         O            2.749643519006    -0.089027334248     0.222218942467    15.994914619570
         H            1.234519519006     2.148806465752    -0.040172257533     1.007825032230
         H            3.110448519006     0.815390465752    -0.023897257533     1.007825032230
         H            1.223272519006    -2.146242534248    -0.038983257533     1.007825032230
         H           -1.235881480994     2.161101465752    -0.053716257533     1.007825032230
         H           -1.265224480994    -2.135135534248    -0.053982257533     1.007825032230
         H           -3.354648480994    -0.807833534248    -0.604749257533     1.007825032230
         H           -3.342656480994     0.953173465752    -0.433894257533     1.007825032230
         H           -3.323164480994    -0.076195534248     1.002709742467     1.007825032230

  Basis Set: AUG-CC-PVTZ
    Blend: AUG-CC-PVTZ
  Basis Set: (AUG-CC-PVTZ AUX)
    Blend: AUG-CC-PVTZ-JKFIT
	 Reference Energy          =    -344.7115819170430768 [Eh]
	 Singles Energy            =      -0.0000000000000000 [Eh]
	 Same-Spin Energy          =      -0.3701818346934106 [Eh]
	 Opposite-Spin Energy      =      -1.1656018993541784 [Eh]
	 Correlation Energy        =      -1.5357837340475888 [Eh]
	 Total Energy              =    -346.2473656510906608 [Eh]

	 ================> DF-SCS-MP2 Energies <==================
	-----------------------------------------------------------
	 SCS Same-Spin Scale       =       0.3333333333333333 [-]
	 SCS Opposite-Spin Scale   =       1.2000000000000000 [-]
	 SCS Same-Spin Energy      =      -0.1233939448978035 [Eh]
	 SCS Opposite-Spin Energy  =      -1.3987222792250140 [Eh]
	 SCS Correlation Energy    =      -1.5221162241228177 [Eh]
	 SCS Total Energy          =    -346.2336981411659167 [Eh]
	-----------------------------------------------------------

  Dipole Moment: [D]
     X:    -0.6321      Y:     1.2349      Z:    -0.3663     Total:     1.4348

*** Psi4 exiting successfully. Buy a developer a beer!
