                               Psi4 1.3.2 release

  ==> Input File <==

--------------------------------------------------------------------------
#psi4
#
memory 32 gb

molecule  {
0 1
  C       -2.8859240     0.0139080     0.0157160
  C        1.4367670    -0.0149690     0.0041590
  C        0.7466220     1.1986450    -0.0028730
  C        0.7284570    -1.2193500    -0.0024690
  C       -0.6498160     1.2004800    -0.0088600
  C       -0.6636910    -1.1986650    -0.0089510
  C       -1.3793250     0.0073430    -0.0161260
  O        2.8101880    -0.0968780     0.0088050
  H        1.2936820     2.1410080    -0.0035900
  H        3.1696110     0.8075920     0.0126850
  H        1.2824350    -2.1540410    -0.0024010
  H       -1.1756900     2.1531354    -0.1671304
  H       -1.2060620    -2.1429340    -0.0174000
  H       -3.2954860    -0.8156320    -0.5681670
  H       -3.2834940     0.9453750    -0.3973120
  H       -3.2640020    -0.0839940     1.0392920
units angstrom
no_reorient  #important for SAPT in psi4, default
symmetry c1  #important for SAPT in psi4, default
}

set PROPERTIES_ORIGIN ["COM"]
properties('MP2/aug-cc-pvtz', properties = ['dipole'])
--------------------------------------------------------------------------

    Molecular point group: c1
  Charge       = 0
  Multiplicity = 1
  Basis Set: AUG-CC-PVTZ
    Blend: AUG-CC-PVTZ
  Basis Set: (AUG-CC-PVTZ AUX)
    Blend: AUG-CC-PVTZ-JKFIT

    Orbital Energies [Eh]
    ---------------------

    Doubly Occupied:

       1A    -20.589607     2A    -11.299955     3A    -11.239720
       4A    -11.237232     5A    -11.235397     6A    -11.235231
       7A    -11.229431     8A    -11.223413     9A     -1.397921
      10A     -1.149194    11A     -1.036703    12A     -1.016792
      13A     -0.926274    14A     -0.843467    15A     -0.800450
      16A     -0.727159    17A     -0.669711    18A     -0.642447
      19A     -0.604262    20A     -0.589048    21A     -0.585610
      22A     -0.574766    23A     -0.570061    24A     -0.531137
      25A     -0.503931    26A     -0.487663    27A     -0.469208
      28A     -0.341008    29A     -0.305614

  @DF-RHF Final Energy:  -344.71739336988725

   => Energetics <=

    Nuclear Repulsion Energy =            341.7102022240150632
    One-Electron Energy =               -1144.7303693969388405
    Two-Electron Energy =                 458.3027738030364731
    Total Energy =                       -344.7173933698872474
  Basis Set: (AUG-CC-PVTZ AUX)
    Blend: AUG-CC-PVTZ-RI
    Molecular point group: c1

    Geometry (in Angstrom), charge = 0, multiplicity = 1:

       Center              X                  Y                   Z               Mass
    ------------   -----------------  -----------------  -----------------  -----------------
         C           -2.945300644942     0.021715755675     0.017537716550    12.000000000000
         C            1.377390355058    -0.007161244325     0.005980716550    12.000000000000
         C            0.687245355058     1.206452755675    -0.001051283450    12.000000000000
         C            0.669080355058    -1.211542244325    -0.000647283450    12.000000000000
         C           -0.709192644942     1.208287755675    -0.007038283450    12.000000000000
         C           -0.723067644942    -1.190857244325    -0.007129283450    12.000000000000
         C           -1.438701644942     0.015150755675    -0.014304283450    12.000000000000
         O            2.750811355058    -0.089070244325     0.010626716550    15.994914619570
         H            1.234305355058     2.148815755675    -0.001768283450     1.007825032230
         H            3.110234355058     0.815399755675     0.014506716550     1.007825032230
         H            1.223058355058    -2.146233244325    -0.000579283450     1.007825032230
         H           -1.235066644942     2.160943155675    -0.165308683450     1.007825032230
         H           -1.265438644942    -2.135126244325    -0.015578283450     1.007825032230
         H           -3.354862644942    -0.807824244325    -0.566345283450     1.007825032230
         H           -3.342870644942     0.953182755675    -0.395490283450     1.007825032230
         H           -3.323378644942    -0.076186244325     1.041113716550     1.007825032230

  Basis Set: AUG-CC-PVTZ
    Blend: AUG-CC-PVTZ
  Basis Set: (AUG-CC-PVTZ AUX)
    Blend: AUG-CC-PVTZ-JKFIT
	 Reference Energy          =    -344.7173933698872474 [Eh]
	 Singles Energy            =      -0.0000000000000000 [Eh]
	 Same-Spin Energy          =      -0.3696416639767081 [Eh]
	 Opposite-Spin Energy      =      -1.1639392287114638 [Eh]
	 Correlation Energy        =      -1.5335808926881720 [Eh]
	 Total Energy              =    -346.2509742625754257 [Eh]

	 ================> DF-SCS-MP2 Energies <==================
	-----------------------------------------------------------
	 SCS Same-Spin Scale       =       0.3333333333333333 [-]
	 SCS Opposite-Spin Scale   =       1.2000000000000000 [-]
	 SCS Same-Spin Energy      =      -0.1232138879922360 [Eh]
	 SCS Opposite-Spin Energy  =      -1.3967270744537565 [Eh]
	 SCS Correlation Energy    =      -1.5199409624459925 [Eh]
	 SCS Total Energy          =    -346.2373343323332620 [Eh]
	-----------------------------------------------------------

  Dipole Moment: [D]
     X:    -0.4603      Y:     1.2459      Z:    -0.0508     Total:     1.3292

*** Psi4 exiting successfully. Buy a developer a beer!
