                               Psi4 1.3.2 release

  ==> Input File <==

--------------------------------------------------------------------------
#psi4
#
memory 32 gb

molecule  {
0 1
  C       -2.8859240     0.0139080     0.0157160
  C        1.4367670    -0.0149690     0.0041590
  C        0.7466220     1.1986450    -0.0028730
  C        0.7284570    -1.2193500    -0.0024690
  C       -0.6498160     1.2004800    -0.0088600
  C       -0.6636910    -1.1986650    -0.0089510
  C       -1.3793250     0.0073430    -0.0161260
  O        2.8085296    -0.0968154     0.3088004
  H        1.2936820     2.1410080    -0.0035900
  H        3.1696110     0.8075920     0.0126850
  H        1.2824350    -2.1540410    -0.0024010
  H       -1.1767190     2.1533030    -0.0171340
  H       -1.2060620    -2.1429340    -0.0174000
  H       -3.2954860    -0.8156320    -0.5681670
  H       -3.2834940     0.9453750    -0.3973120
  H       -3.2640020    -0.0839940     1.0392920
units angstrom
no_reorient  #important for SAPT in psi4, default
symmetry c1  #important for SAPT in psi4, default
}

set PROPERTIES_ORIGIN ["COM"]
properties('MP2/aug-cc-pvtz', properties = ['dipole'])
--------------------------------------------------------------------------

    Molecular point group: c1
  Charge       = 0
  Multiplicity = 1
  Basis Set: AUG-CC-PVTZ
    Blend: AUG-CC-PVTZ
  Basis Set: (AUG-CC-PVTZ AUX)
    Blend: AUG-CC-PVTZ-JKFIT

    Orbital Energies [Eh]
    ---------------------

    Doubly Occupied:

       1A    -20.591538     2A    -11.299137     3A    -11.239884
       4A    -11.238549     5A    -11.237727     6A    -11.237182
       7A    -11.231504     8A    -11.224882     9A     -1.376953
      10A     -1.150140    11A     -1.037048    12A     -1.017981
      13A     -0.925692    14A     -0.841885    15A     -0.797010
      16A     -0.710421    17A     -0.669122    18A     -0.642359
      19A     -0.609045    20A     -0.588282    21A     -0.580117
      22A     -0.576010    23A     -0.563109    24A     -0.530141
      25A     -0.504403    26A     -0.488734    27A     -0.470553
      28A     -0.341789    29A     -0.309189

  @DF-RHF Final Energy:  -344.70773187881855

   => Energetics <=

    Nuclear Repulsion Energy =            340.8900279940486939
    One-Electron Energy =               -1143.1347480402152996
    Two-Electron Energy =                 457.5369881673479995
    Total Energy =                       -344.7077318788185494
  Basis Set: (AUG-CC-PVTZ AUX)
    Blend: AUG-CC-PVTZ-RI
    Molecular point group: c1

    Geometry (in Angstrom), charge = 0, multiplicity = 1:

       Center              X                  Y                   Z               Mass
    ------------   -----------------  -----------------  -----------------  -----------------
         C           -2.945045567649     0.021704926321    -0.028267250754    12.000000000000
         C            1.377645432351    -0.007172073679    -0.039824250754    12.000000000000
         C            0.687500432351     1.206441926321    -0.046856250754    12.000000000000
         C            0.669335432351    -1.211553073679    -0.046452250754    12.000000000000
         C           -0.708937567649     1.208276926321    -0.052843250754    12.000000000000
         C           -0.722812567649    -1.190868073679    -0.052934250754    12.000000000000
         C           -1.438446567649     0.015139926321    -0.060109250754    12.000000000000
         O            2.749408032351    -0.089018473679     0.264817149246    15.994914619570
         H            1.234560432351     2.148804926321    -0.047573250754     1.007825032230
         H            3.110489432351     0.815388926321    -0.031298250754     1.007825032230
         H            1.223313432351    -2.146244073679    -0.046384250754     1.007825032230
         H           -1.235840567649     2.161099926321    -0.061117250754     1.007825032230
         H           -1.265183567649    -2.135137073679    -0.061383250754     1.007825032230
         H           -3.354607567649    -0.807835073679    -0.612150250754     1.007825032230
         H           -3.342615567649     0.953171926321    -0.441295250754     1.007825032230
         H           -3.323123567649    -0.076197073679     0.995308749246     1.007825032230

  Basis Set: AUG-CC-PVTZ
    Blend: AUG-CC-PVTZ
  Basis Set: (AUG-CC-PVTZ AUX)
    Blend: AUG-CC-PVTZ-JKFIT
	 Reference Energy          =    -344.7077318788185494 [Eh]
	 Singles Energy            =      -0.0000000000000000 [Eh]
	 Same-Spin Energy          =      -0.3704697899623230 [Eh]
	 Opposite-Spin Energy      =      -1.1664834329626497 [Eh]
	 Correlation Energy        =      -1.5369532229249727 [Eh]
	 Total Energy              =    -346.2446851017435279 [Eh]

	 ================> DF-SCS-MP2 Energies <==================
	-----------------------------------------------------------
	 SCS Same-Spin Scale       =       0.3333333333333333 [-]
	 SCS Opposite-Spin Scale   =       1.2000000000000000 [-]
	 SCS Same-Spin Energy      =      -0.1234899299874410 [Eh]
	 SCS Opposite-Spin Energy  =      -1.3997801195551796 [Eh]
	 SCS Correlation Energy    =      -1.5232700495426206 [Eh]
	 SCS Total Energy          =    -346.2310019283611950 [Eh]
	-----------------------------------------------------------

  Dipole Moment: [D]
     X:    -0.6983      Y:     1.2212      Z:    -0.4457     Total:     1.4757

*** Psi4 exiting successfully. Buy a developer a beer!
