                               Psi4 1.3.2 release

  ==> Input File <==

--------------------------------------------------------------------------
#psi4
#
memory 32 gb

molecule  {
0 1
  C       -2.8859240     0.0139080     0.0157160
  C        1.4367670    -0.0149690     0.0041590
  C        0.7466220     1.1986450    -0.0028730
  C        0.7284570    -1.2193500    -0.0024690
  C       -0.6498160     1.2004800    -0.0088600
  C       -0.6653476    -1.1986497    -0.1589419
  C       -1.3793250     0.0073430    -0.0161260
  O        2.8101880    -0.0968780     0.0088050
  H        1.2936820     2.1410080    -0.0035900
  H        3.1696110     0.8075920     0.0126850
  H        1.2824350    -2.1540410    -0.0024010
  H       -1.1767190     2.1533030    -0.0171340
  H       -1.2060620    -2.1429340    -0.0174000
  H       -3.2954860    -0.8156320    -0.5681670
  H       -3.2834940     0.9453750    -0.3973120
  H       -3.2640020    -0.0839940     1.0392920
units angstrom
no_reorient  #important for SAPT in psi4, default
symmetry c1  #important for SAPT in psi4, default
}

set PROPERTIES_ORIGIN ["COM"]
properties('MP2/aug-cc-pvtz', properties = ['dipole'])
--------------------------------------------------------------------------

    Molecular point group: c1
  Charge       = 0
  Multiplicity = 1
  Basis Set: AUG-CC-PVTZ
    Blend: AUG-CC-PVTZ
  Basis Set: (AUG-CC-PVTZ AUX)
    Blend: AUG-CC-PVTZ-JKFIT

    Orbital Energies [Eh]
    ---------------------

    Doubly Occupied:

       1A    -20.589447     2A    -11.299592     3A    -11.239047
       4A    -11.238668     5A    -11.236949     6A    -11.236300
       7A    -11.231078     8A    -11.223495     9A     -1.397808
      10A     -1.148273    11A     -1.036609    12A     -1.015871
      13A     -0.926196    14A     -0.843761    15A     -0.799260
      16A     -0.726467    17A     -0.669582    18A     -0.642165
      19A     -0.603810    20A     -0.590028    21A     -0.584086
      22A     -0.573719    23A     -0.570689    24A     -0.530489
      25A     -0.503080    26A     -0.487105    27A     -0.468659
      28A     -0.340676    29A     -0.305162

  @DF-RHF Final Energy:  -344.71206268070591

   => Energetics <=

    Nuclear Repulsion Energy =            341.4839101136836916
    One-Electron Energy =               -1144.2758051719558807
    Two-Electron Energy =                 458.0798323775662766
    Total Energy =                       -344.7120626807059125
  Basis Set: (AUG-CC-PVTZ AUX)
    Blend: AUG-CC-PVTZ-RI
    Molecular point group: c1

    Geometry (in Angstrom), charge = 0, multiplicity = 1:

       Center              X                  Y                   Z               Mass
    ------------   -----------------  -----------------  -----------------  -----------------
         C           -2.945107079025     0.021712493418     0.032795523240    12.000000000000
         C            1.377583920975    -0.007164506582     0.021238523240    12.000000000000
         C            0.687438920975     1.206449493418     0.014206523240    12.000000000000
         C            0.669273920975    -1.211545506582     0.014610523240    12.000000000000
         C           -0.708999079025     1.208284493418     0.008219523240    12.000000000000
         C           -0.724530679025    -1.190845206582    -0.141862376760    12.000000000000
         C           -1.438508079025     0.015147493418     0.000953523240    12.000000000000
         O            2.751004920975    -0.089073506582     0.025884523240    15.994914619570
         H            1.234498920975     2.148812493418     0.013489523240     1.007825032230
         H            3.110427920975     0.815396493418     0.029764523240     1.007825032230
         H            1.223251920975    -2.146236506582     0.014678523240     1.007825032230
         H           -1.235902079025     2.161107493418    -0.000054476760     1.007825032230
         H           -1.265245079025    -2.135129506582    -0.000320476760     1.007825032230
         H           -3.354669079025    -0.807827506582    -0.551087476760     1.007825032230
         H           -3.342677079025     0.953179493418    -0.380232476760     1.007825032230
         H           -3.323185079025    -0.076189506582     1.056371523240     1.007825032230

  Basis Set: AUG-CC-PVTZ
    Blend: AUG-CC-PVTZ
  Basis Set: (AUG-CC-PVTZ AUX)
    Blend: AUG-CC-PVTZ-JKFIT
	 Reference Energy          =    -344.7120626807059125 [Eh]
	 Singles Energy            =      -0.0000000000000000 [Eh]
	 Same-Spin Energy          =      -0.3699290047245752 [Eh]
	 Opposite-Spin Energy      =      -1.1647937389515615 [Eh]
	 Correlation Energy        =      -1.5347227436761366 [Eh]
	 Total Energy              =    -346.2467854243820398 [Eh]

	 ================> DF-SCS-MP2 Energies <==================
	-----------------------------------------------------------
	 SCS Same-Spin Scale       =       0.3333333333333333 [-]
	 SCS Opposite-Spin Scale   =       1.2000000000000000 [-]
	 SCS Same-Spin Energy      =      -0.1233096682415251 [Eh]
	 SCS Opposite-Spin Energy  =      -1.3977524867418738 [Eh]
	 SCS Correlation Energy    =      -1.5210621549833989 [Eh]
	 SCS Total Energy          =    -346.2331248356892957 [Eh]
	-----------------------------------------------------------

  Dipole Moment: [D]
     X:    -0.4567      Y:     1.3115      Z:     0.1325     Total:     1.3951

*** Psi4 exiting successfully. Buy a developer a beer!
