                               Psi4 1.3.2 release

  ==> Input File <==

--------------------------------------------------------------------------
#psi4
#
memory 32 gb

molecule  {
0 1
  C       -2.8859240     0.0139080     0.0157160
  C        1.4367670    -0.0149690     0.0041590
  C        0.7466220     1.1986450    -0.0028730
  C        0.7284570    -1.2193500    -0.0024690
  C       -0.6498160     1.2004800    -0.0088600
  C       -0.6636910    -1.1986650    -0.0089510
  C       -1.3793250     0.0073430    -0.0161260
  O        2.8090824    -0.0968363     0.2088019
  H        1.2936820     2.1410080    -0.0035900
  H        3.1696110     0.8075920     0.0126850
  H        1.2824350    -2.1540410    -0.0024010
  H       -1.1767190     2.1533030    -0.0171340
  H       -1.2060620    -2.1429340    -0.0174000
  H       -3.2954860    -0.8156320    -0.5681670
  H       -3.2834940     0.9453750    -0.3973120
  H       -3.2640020    -0.0839940     1.0392920
units angstrom
no_reorient  #important for SAPT in psi4, default
symmetry c1  #important for SAPT in psi4, default
}

set PROPERTIES_ORIGIN ["COM"]
properties('MP2/aug-cc-pvtz', properties = ['dipole'])
--------------------------------------------------------------------------

    Molecular point group: c1
  Charge       = 0
  Multiplicity = 1
  Basis Set: AUG-CC-PVTZ
    Blend: AUG-CC-PVTZ
  Basis Set: (AUG-CC-PVTZ AUX)
    Blend: AUG-CC-PVTZ-JKFIT

    Orbital Energies [Eh]
    ---------------------

    Doubly Occupied:

       1A    -20.590399     2A    -11.299440     3A    -11.239229
       4A    -11.237521     5A    -11.236398     6A    -11.236165
       7A    -11.230198     8A    -11.224037     9A     -1.388354
      10A     -1.149554    11A     -1.036751    12A     -1.017382
      13A     -0.925883    14A     -0.842782    15A     -0.798709
      16A     -0.719843    17A     -0.669534    18A     -0.642530
      19A     -0.607690    20A     -0.587591    21A     -0.583572
      22A     -0.575560    23A     -0.566873    24A     -0.530877
      25A     -0.504100    26A     -0.487970    27A     -0.470274
      28A     -0.341371    29A     -0.307206

  @DF-RHF Final Energy:  -344.71446901111682

   => Energetics <=

    Nuclear Repulsion Energy =            341.3647777218443480
    One-Electron Energy =               -1144.0629073038765000
    Two-Electron Energy =                 457.9836605709153332
    Total Energy =                       -344.7144690111168188
  Basis Set: (AUG-CC-PVTZ AUX)
    Blend: AUG-CC-PVTZ-RI
    Molecular point group: c1

    Geometry (in Angstrom), charge = 0, multiplicity = 1:

       Center              X                  Y                   Z               Mass
    ------------   -----------------  -----------------  -----------------  -----------------
         C           -2.945127394339     0.021708019986    -0.013465249510    12.000000000000
         C            1.377563605661    -0.007168980014    -0.025022249510    12.000000000000
         C            0.687418605661     1.206445019986    -0.032054249510    12.000000000000
         C            0.669253605661    -1.211549980014    -0.031650249510    12.000000000000
         C           -0.709019394339     1.208280019986    -0.038041249510    12.000000000000
         C           -0.722894394339    -1.190864980014    -0.038132249510    12.000000000000
         C           -1.438528394339     0.015143019986    -0.045307249510    12.000000000000
         O            2.749879005661    -0.089036280014     0.179620650490    15.994914619570
         H            1.234478605661     2.148808019986    -0.032771249510     1.007825032230
         H            3.110407605661     0.815392019986    -0.016496249510     1.007825032230
         H            1.223231605661    -2.146240980014    -0.031582249510     1.007825032230
         H           -1.235922394339     2.161103019986    -0.046315249510     1.007825032230
         H           -1.265265394339    -2.135133980014    -0.046581249510     1.007825032230
         H           -3.354689394339    -0.807831980014    -0.597348249510     1.007825032230
         H           -3.342697394339     0.953175019986    -0.426493249510     1.007825032230
         H           -3.323205394339    -0.076193980014     1.010110750490     1.007825032230

  Basis Set: AUG-CC-PVTZ
    Blend: AUG-CC-PVTZ
  Basis Set: (AUG-CC-PVTZ AUX)
    Blend: AUG-CC-PVTZ-JKFIT
	 Reference Energy          =    -344.7144690111168188 [Eh]
	 Singles Energy            =      -0.0000000000000000 [Eh]
	 Same-Spin Energy          =      -0.3699481161253766 [Eh]
	 Opposite-Spin Energy      =      -1.1648988456167075 [Eh]
	 Correlation Energy        =      -1.5348469617420841 [Eh]
	 Total Energy              =    -346.2493159728588807 [Eh]

	 ================> DF-SCS-MP2 Energies <==================
	-----------------------------------------------------------
	 SCS Same-Spin Scale       =       0.3333333333333333 [-]
	 SCS Opposite-Spin Scale   =       1.2000000000000000 [-]
	 SCS Same-Spin Energy      =      -0.1233160387084589 [Eh]
	 SCS Opposite-Spin Energy  =      -1.3978786147400490 [Eh]
	 SCS Correlation Energy    =      -1.5211946534485079 [Eh]
	 SCS Total Energy          =    -346.2356636645653225 [Eh]
	-----------------------------------------------------------

  Dipole Moment: [D]
     X:    -0.5758      Y:     1.2463      Z:    -0.2862     Total:     1.4024

*** Psi4 exiting successfully. Buy a developer a beer!
