                               Psi4 1.3.2 release

  ==> Input File <==

--------------------------------------------------------------------------
#psi4
#
memory 32 gb

molecule  {
0 1
  C       -2.8859240     0.0139080     0.0157160
  C        1.4367670    -0.0149690     0.0041590
  C        0.7466220     1.1986450    -0.0028730
  C        0.7284570    -1.2193500    -0.0024690
  C       -0.6498160     1.2004800    -0.0088600
  C       -0.6636910    -1.1986650    -0.0089510
  C       -1.3793250     0.0073430    -0.0161260
  O        2.8099116    -0.0968676     0.0588042
  H        1.2936820     2.1410080    -0.0035900
  H        3.1696110     0.8075920     0.0126850
  H        1.2824350    -2.1540410    -0.0024010
  H       -1.1767190     2.1533030    -0.0171340
  H       -1.2060620    -2.1429340    -0.0174000
  H       -3.2954860    -0.8156320    -0.5681670
  H       -3.2834940     0.9453750    -0.3973120
  H       -3.2640020    -0.0839940     1.0392920
units angstrom
no_reorient  #important for SAPT in psi4, default
symmetry c1  #important for SAPT in psi4, default
}

set PROPERTIES_ORIGIN ["COM"]
properties('MP2/aug-cc-pvtz', properties = ['dipole'])
--------------------------------------------------------------------------

    Molecular point group: c1
  Charge       = 0
  Multiplicity = 1
  Basis Set: AUG-CC-PVTZ
    Blend: AUG-CC-PVTZ
  Basis Set: (AUG-CC-PVTZ AUX)
    Blend: AUG-CC-PVTZ-JKFIT

    Orbital Energies [Eh]
    ---------------------

    Doubly Occupied:

       1A    -20.589593     2A    -11.299834     3A    -11.238800
       4A    -11.237116     5A    -11.235248     6A    -11.235031
       7A    -11.229209     8A    -11.223380     9A     -1.397284
      10A     -1.149131    11A     -1.036621    12A     -1.016938
      13A     -0.926237    14A     -0.843757    15A     -0.800533
      16A     -0.726969    17A     -0.669893    18A     -0.642500
      19A     -0.605157    20A     -0.587915    21A     -0.586928
      22A     -0.575010    23A     -0.569955    24A     -0.531275
      25A     -0.503800    26A     -0.487316    27A     -0.470072
      28A     -0.341070    29A     -0.305605

  @DF-RHF Final Energy:  -344.71865794680525

   => Energetics <=

    Nuclear Repulsion Energy =            341.7295156513098391
    One-Electron Energy =               -1144.7719982725561749
    Two-Electron Energy =                 458.3238246744410844
    Total Energy =                       -344.7186579468052514
  Basis Set: (AUG-CC-PVTZ AUX)
    Blend: AUG-CC-PVTZ-RI
    Molecular point group: c1

    Geometry (in Angstrom), charge = 0, multiplicity = 1:

       Center              X                  Y                   Z               Mass
    ------------   -----------------  -----------------  -----------------  -----------------
         C           -2.945250134375     0.021712653081     0.008737744954    12.000000000000
         C            1.377440865625    -0.007164346919    -0.002819255046    12.000000000000
         C            0.687295865625     1.206449653081    -0.009851255046    12.000000000000
         C            0.669130865625    -1.211545346919    -0.009447255046    12.000000000000
         C           -0.709142134375     1.208284653081    -0.015838255046    12.000000000000
         C           -0.723017134375    -1.190860346919    -0.015929255046    12.000000000000
         C           -1.438651134375     0.015147653081    -0.023104255046    12.000000000000
         O            2.750585465625    -0.089062946919     0.051825944954    15.994914619570
         H            1.234355865625     2.148812653081    -0.010568255046     1.007825032230
         H            3.110284865625     0.815396653081     0.005706744954     1.007825032230
         H            1.223108865625    -2.146236346919    -0.009379255046     1.007825032230
         H           -1.236045134375     2.161107653081    -0.024112255046     1.007825032230
         H           -1.265388134375    -2.135129346919    -0.024378255046     1.007825032230
         H           -3.354812134375    -0.807827346919    -0.575145255046     1.007825032230
         H           -3.342820134375     0.953179653081    -0.404290255046     1.007825032230
         H           -3.323328134375    -0.076189346919     1.032313744954     1.007825032230

  Basis Set: AUG-CC-PVTZ
    Blend: AUG-CC-PVTZ
  Basis Set: (AUG-CC-PVTZ AUX)
    Blend: AUG-CC-PVTZ-JKFIT
	 Reference Energy          =    -344.7186579468052514 [Eh]
	 Singles Energy            =      -0.0000000000000000 [Eh]
	 Same-Spin Energy          =      -0.3695657885022651 [Eh]
	 Opposite-Spin Energy      =      -1.1637924920304179 [Eh]
	 Correlation Energy        =      -1.5333582805326831 [Eh]
	 Total Energy              =    -346.2520162273379469 [Eh]

	 ================> DF-SCS-MP2 Energies <==================
	-----------------------------------------------------------
	 SCS Same-Spin Scale       =       0.3333333333333333 [-]
	 SCS Opposite-Spin Scale   =       1.2000000000000000 [-]
	 SCS Same-Spin Energy      =      -0.1231885961674217 [Eh]
	 SCS Opposite-Spin Energy  =      -1.3965509904365014 [Eh]
	 SCS Correlation Energy    =      -1.5197395866039232 [Eh]
	 SCS Total Energy          =    -346.2383975334091701 [Eh]
	-----------------------------------------------------------

  Dipole Moment: [D]
     X:    -0.4785      Y:     1.2654      Z:    -0.0442     Total:     1.3536

*** Psi4 exiting successfully. Buy a developer a beer!
