                               Psi4 1.3.2 release

  ==> Input File <==

--------------------------------------------------------------------------
#psi4
#
memory 32 gb

molecule  {
0 1
  C       -2.8859240     0.0139080     0.0157160
  C        1.4367670    -0.0149690     0.0041590
  C        0.7466220     1.1986450    -0.0028730
  C        0.7284570    -1.2193500    -0.0024690
  C       -0.6498160     1.2004800    -0.0088600
  C       -0.6642432    -1.1986599    -0.0589480
  C       -1.3793250     0.0073430    -0.0161260
  O        2.8101880    -0.0968780     0.0088050
  H        1.2936820     2.1410080    -0.0035900
  H        3.1696110     0.8075920     0.0126850
  H        1.2824350    -2.1540410    -0.0024010
  H       -1.1767190     2.1533030    -0.0171340
  H       -1.2060620    -2.1429340    -0.0174000
  H       -3.2954860    -0.8156320    -0.5681670
  H       -3.2834940     0.9453750    -0.3973120
  H       -3.2640020    -0.0839940     1.0392920
units angstrom
no_reorient  #important for SAPT in psi4, default
symmetry c1  #important for SAPT in psi4, default
}

set PROPERTIES_ORIGIN ["COM"]
properties('MP2/aug-cc-pvtz', properties = ['dipole'])
--------------------------------------------------------------------------

    Molecular point group: c1
  Charge       = 0
  Multiplicity = 1
  Basis Set: AUG-CC-PVTZ
    Blend: AUG-CC-PVTZ
  Basis Set: (AUG-CC-PVTZ AUX)
    Blend: AUG-CC-PVTZ-JKFIT

    Orbital Energies [Eh]
    ---------------------

    Doubly Occupied:

       1A    -20.589514     2A    -11.299814     3A    -11.238777
       4A    -11.237283     5A    -11.235365     6A    -11.235150
       7A    -11.229384     8A    -11.223363     9A     -1.397824
      10A     -1.148998    11A     -1.036627    12A     -1.016744
      13A     -0.926283    14A     -0.843869    15A     -0.800484
      16A     -0.727320    17A     -0.669882    18A     -0.642465
      19A     -0.604749    20A     -0.588839    21A     -0.586375
      22A     -0.574503    23A     -0.570496    24A     -0.531171
      25A     -0.503678    26A     -0.487369    27A     -0.469885
      28A     -0.340943    29A     -0.305498

  @DF-RHF Final Energy:  -344.71821563080914

   => Energetics <=

    Nuclear Repulsion Energy =            341.7185537772622297
    One-Electron Energy =               -1144.7482352895060558
    Two-Electron Energy =                 458.3114658814346285
    Total Energy =                       -344.7182156308091407
  Basis Set: (AUG-CC-PVTZ AUX)
    Blend: AUG-CC-PVTZ-RI
    Molecular point group: c1

    Geometry (in Angstrom), charge = 0, multiplicity = 1:

       Center              X                  Y                   Z               Mass
    ------------   -----------------  -----------------  -----------------  -----------------
         C           -2.945229724821     0.021713626148     0.021691003565    12.000000000000
         C            1.377461275179    -0.007163373852     0.010134003565    12.000000000000
         C            0.687316275179     1.206450626148     0.003102003565    12.000000000000
         C            0.669151275179    -1.211544373852     0.003506003565    12.000000000000
         C           -0.709121724821     1.208285626148    -0.002884996435    12.000000000000
         C           -0.723548924821    -1.190854273852    -0.052972996435    12.000000000000
         C           -1.438630724821     0.015148626148    -0.010150996435    12.000000000000
         O            2.750882275179    -0.089072373852     0.014780003565    15.994914619570
         H            1.234376275179     2.148813626148     0.002385003565     1.007825032230
         H            3.110305275179     0.815397626148     0.018660003565     1.007825032230
         H            1.223129275179    -2.146235373852     0.003574003565     1.007825032230
         H           -1.236024724821     2.161108626148    -0.011158996435     1.007825032230
         H           -1.265367724821    -2.135128373852    -0.011424996435     1.007825032230
         H           -3.354791724821    -0.807826373852    -0.562191996435     1.007825032230
         H           -3.342799724821     0.953180626148    -0.391336996435     1.007825032230
         H           -3.323307724821    -0.076188373852     1.045267003565     1.007825032230

  Basis Set: AUG-CC-PVTZ
    Blend: AUG-CC-PVTZ
  Basis Set: (AUG-CC-PVTZ AUX)
    Blend: AUG-CC-PVTZ-JKFIT
	 Reference Energy          =    -344.7182156308091407 [Eh]
	 Singles Energy            =      -0.0000000000000000 [Eh]
	 Same-Spin Energy          =      -0.3695823999213502 [Eh]
	 Opposite-Spin Energy      =      -1.1638201533373909 [Eh]
	 Correlation Energy        =      -1.5334025532587410 [Eh]
	 Total Energy              =    -346.2516181840678655 [Eh]

	 ================> DF-SCS-MP2 Energies <==================
	-----------------------------------------------------------
	 SCS Same-Spin Scale       =       0.3333333333333333 [-]
	 SCS Opposite-Spin Scale   =       1.2000000000000000 [-]
	 SCS Same-Spin Energy      =      -0.1231941333071167 [Eh]
	 SCS Opposite-Spin Energy  =      -1.3965841840048689 [Eh]
	 SCS Correlation Energy    =      -1.5197783173119856 [Eh]
	 SCS Total Energy          =    -346.2379939481211295 [Eh]
	-----------------------------------------------------------

  Dipole Moment: [D]
     X:    -0.4722      Y:     1.2715      Z:     0.0678     Total:     1.3580

*** Psi4 exiting successfully. Buy a developer a beer!
