                               Psi4 1.3.2 release

  ==> Input File <==

--------------------------------------------------------------------------
#psi4
#
memory 32 gb

molecule  {
0 1
  C       -2.8859240     0.0139080     0.0157160
  C        1.4367670    -0.0149690     0.0041590
  C        0.7466220     1.1986450    -0.0028730
  C        0.7284570    -1.2193500    -0.0024690
  C       -0.6498160     1.2004800    -0.0088600
  C       -0.6636910    -1.1986650    -0.0089510
  C       -1.3793250     0.0073430    -0.0161260
  O        2.8101880    -0.0968780     0.0088050
  H        1.2947601     2.1401810    -0.2535863
  H        3.1696110     0.8075920     0.0126850
  H        1.2824350    -2.1540410    -0.0024010
  H       -1.1767190     2.1533030    -0.0171340
  H       -1.2060620    -2.1429340    -0.0174000
  H       -3.2954860    -0.8156320    -0.5681670
  H       -3.2834940     0.9453750    -0.3973120
  H       -3.2640020    -0.0839940     1.0392920
units angstrom
no_reorient  #important for SAPT in psi4, default
symmetry c1  #important for SAPT in psi4, default
}

set PROPERTIES_ORIGIN ["COM"]
properties('MP2/aug-cc-pvtz', properties = ['dipole'])
--------------------------------------------------------------------------

    Molecular point group: c1
  Charge       = 0
  Multiplicity = 1
  Basis Set: AUG-CC-PVTZ
    Blend: AUG-CC-PVTZ
  Basis Set: (AUG-CC-PVTZ AUX)
    Blend: AUG-CC-PVTZ-JKFIT

    Orbital Energies [Eh]
    ---------------------

    Doubly Occupied:

       1A    -20.589721     2A    -11.300629     3A    -11.239398
       4A    -11.237894     5A    -11.237371     6A    -11.235334
       7A    -11.229464     8A    -11.223555     9A     -1.397994
      10A     -1.149425    11A     -1.036761    12A     -1.016493
      13A     -0.926535    14A     -0.842766    15A     -0.800504
      16A     -0.726745    17A     -0.669870    18A     -0.639918
      19A     -0.604543    20A     -0.590646    21A     -0.582818
      22A     -0.574613    23A     -0.570541    24A     -0.531577
      25A     -0.503745    26A     -0.487748    27A     -0.468419
      28A     -0.340990    29A     -0.305829

  @DF-RHF Final Energy:  -344.71504946737662

   => Energetics <=

    Nuclear Repulsion Energy =            341.6419060909994982
    One-Electron Energy =               -1144.5902180266266441
    Two-Electron Energy =                 458.2332624682504729
    Total Energy =                       -344.7150494673766161
  Basis Set: (AUG-CC-PVTZ AUX)
    Blend: AUG-CC-PVTZ-RI
    Molecular point group: c1

    Geometry (in Angstrom), charge = 0, multiplicity = 1:

       Center              X                  Y                   Z               Mass
    ------------   -----------------  -----------------  -----------------  -----------------
         C           -2.945301102885     0.021721905732     0.018470390252    12.000000000000
         C            1.377389897115    -0.007155094268     0.006913390252    12.000000000000
         C            0.687244897115     1.206458905732    -0.000118609748    12.000000000000
         C            0.669079897115    -1.211536094268     0.000285390252    12.000000000000
         C           -0.709193102885     1.208293905732    -0.006105609748    12.000000000000
         C           -0.723068102885    -1.190851094268    -0.006196609748    12.000000000000
         C           -1.438702102885     0.015156905732    -0.013371609748    12.000000000000
         O            2.750810897115    -0.089064094268     0.011559390252    15.994914619570
         H            1.235382997115     2.147994905732    -0.250831909748     1.007825032230
         H            3.110233897115     0.815405905732     0.015439390252     1.007825032230
         H            1.223057897115    -2.146227094268     0.000353390252     1.007825032230
         H           -1.236096102885     2.161116905732    -0.014379609748     1.007825032230
         H           -1.265439102885    -2.135120094268    -0.014645609748     1.007825032230
         H           -3.354863102885    -0.807818094268    -0.565412609748     1.007825032230
         H           -3.342871102885     0.953188905732    -0.394557609748     1.007825032230
         H           -3.323379102885    -0.076180094268     1.042046390252     1.007825032230

  Basis Set: AUG-CC-PVTZ
    Blend: AUG-CC-PVTZ
  Basis Set: (AUG-CC-PVTZ AUX)
    Blend: AUG-CC-PVTZ-JKFIT
	 Reference Energy          =    -344.7150494673766161 [Eh]
	 Singles Energy            =      -0.0000000000000000 [Eh]
	 Same-Spin Energy          =      -0.3697540498215475 [Eh]
	 Opposite-Spin Energy      =      -1.1642098392690703 [Eh]
	 Correlation Energy        =      -1.5339638890906178 [Eh]
	 Total Energy              =    -346.2490133564672306 [Eh]

	 ================> DF-SCS-MP2 Energies <==================
	-----------------------------------------------------------
	 SCS Same-Spin Scale       =       0.3333333333333333 [-]
	 SCS Opposite-Spin Scale   =       1.2000000000000000 [-]
	 SCS Same-Spin Energy      =      -0.1232513499405158 [Eh]
	 SCS Opposite-Spin Energy  =      -1.3970518071228843 [Eh]
	 SCS Correlation Energy    =      -1.5203031570634002 [Eh]
	 SCS Total Energy          =    -346.2353526244399973 [Eh]
	-----------------------------------------------------------

  Dipole Moment: [D]
     X:    -0.5027      Y:     1.2141      Z:    -0.1270     Total:     1.3202

*** Psi4 exiting successfully. Buy a developer a beer!
