                               Psi4 1.3.2 release

  ==> Input File <==

--------------------------------------------------------------------------
#psi4
#
memory 32 gb

molecule  {
0 1
  C       -2.8859240     0.0139080     0.0157160
  C        1.4367670    -0.0149690     0.0041590
  C        0.7466220     1.1986450    -0.0028730
  C        0.7284570    -1.2193500    -0.0024690
  C       -0.6498160     1.2004800    -0.0088600
  C       -0.6647954    -1.1986548    -0.1089449
  C       -1.3793250     0.0073430    -0.0161260
  O        2.8101880    -0.0968780     0.0088050
  H        1.2936820     2.1410080    -0.0035900
  H        3.1696110     0.8075920     0.0126850
  H        1.2824350    -2.1540410    -0.0024010
  H       -1.1767190     2.1533030    -0.0171340
  H       -1.2060620    -2.1429340    -0.0174000
  H       -3.2954860    -0.8156320    -0.5681670
  H       -3.2834940     0.9453750    -0.3973120
  H       -3.2640020    -0.0839940     1.0392920
units angstrom
no_reorient  #important for SAPT in psi4, default
symmetry c1  #important for SAPT in psi4, default
}

set PROPERTIES_ORIGIN ["COM"]
properties('MP2/aug-cc-pvtz', properties = ['dipole'])
--------------------------------------------------------------------------

    Molecular point group: c1
  Charge       = 0
  Multiplicity = 1
  Basis Set: AUG-CC-PVTZ
    Blend: AUG-CC-PVTZ
  Basis Set: (AUG-CC-PVTZ AUX)
    Blend: AUG-CC-PVTZ-JKFIT

    Orbital Energies [Eh]
    ---------------------

    Doubly Occupied:

       1A    -20.589482     2A    -11.299721     3A    -11.238782
       4A    -11.237878     5A    -11.235932     6A    -11.235631
       7A    -11.230027     8A    -11.223412     9A     -1.397811
      10A     -1.148715    11A     -1.036621    12A     -1.016395
      13A     -0.926258    14A     -0.843844    15A     -0.800008
      16A     -0.726999    17A     -0.669764    18A     -0.642357
      19A     -0.604386    20A     -0.589468    21A     -0.585315
      22A     -0.574210    23A     -0.570610    24A     -0.530897
      25A     -0.503451    26A     -0.487314    27A     -0.469416
      28A     -0.340812    29A     -0.305378

  @DF-RHF Final Energy:  -344.71594412021653

   => Energetics <=

    Nuclear Repulsion Energy =            341.6287782103907489
    One-Electron Energy =               -1144.5676560773929396
    Two-Electron Energy =                 458.2229337467857135
    Total Energy =                       -344.7159441202165340
  Basis Set: (AUG-CC-PVTZ AUX)
    Blend: AUG-CC-PVTZ-RI
    Molecular point group: c1

    Geometry (in Angstrom), charge = 0, multiplicity = 1:

       Center              X                  Y                   Z               Mass
    ------------   -----------------  -----------------  -----------------  -----------------
         C           -2.945168401923     0.021713059783     0.027243257849    12.000000000000
         C            1.377522598077    -0.007163940217     0.015686257849    12.000000000000
         C            0.687377598077     1.206450059783     0.008654257849    12.000000000000
         C            0.669212598077    -1.211544940217     0.009058257849    12.000000000000
         C           -0.709060401923     1.208285059783     0.002667257849    12.000000000000
         C           -0.724039801923    -1.190849740217    -0.097417642151    12.000000000000
         C           -1.438569401923     0.015148059783    -0.004598742151    12.000000000000
         O            2.750943598077    -0.089072940217     0.020332257849    15.994914619570
         H            1.234437598077     2.148813059783     0.007937257849     1.007825032230
         H            3.110366598077     0.815397059783     0.024212257849     1.007825032230
         H            1.223190598077    -2.146235940217     0.009126257849     1.007825032230
         H           -1.235963401923     2.161108059783    -0.005606742151     1.007825032230
         H           -1.265306401923    -2.135128940217    -0.005872742151     1.007825032230
         H           -3.354730401923    -0.807826940217    -0.556639742151     1.007825032230
         H           -3.342738401923     0.953180059783    -0.385784742151     1.007825032230
         H           -3.323246401923    -0.076188940217     1.050819257849     1.007825032230

  Basis Set: AUG-CC-PVTZ
    Blend: AUG-CC-PVTZ
  Basis Set: (AUG-CC-PVTZ AUX)
    Blend: AUG-CC-PVTZ-JKFIT
	 Reference Energy          =    -344.7159441202165340 [Eh]
	 Singles Energy            =      -0.0000000000000000 [Eh]
	 Same-Spin Energy          =      -0.3697128658397676 [Eh]
	 Opposite-Spin Energy      =      -1.1641734541365438 [Eh]
	 Correlation Energy        =      -1.5338863199763115 [Eh]
	 Total Energy              =    -346.2498304401928522 [Eh]

	 ================> DF-SCS-MP2 Energies <==================
	-----------------------------------------------------------
	 SCS Same-Spin Scale       =       0.3333333333333333 [-]
	 SCS Opposite-Spin Scale   =       1.2000000000000000 [-]
	 SCS Same-Spin Energy      =      -0.1232376219465892 [Eh]
	 SCS Opposite-Spin Energy  =      -1.3970081449638525 [Eh]
	 SCS Correlation Energy    =      -1.5202457669104417 [Eh]
	 SCS Total Energy          =    -346.2361898871269545 [Eh]
	-----------------------------------------------------------

  Dipole Moment: [D]
     X:    -0.4668      Y:     1.2865      Z:     0.0995     Total:     1.3722

*** Psi4 exiting successfully. Buy a developer a beer!
