                               Psi4 1.3.2 release

  ==> Input File <==

--------------------------------------------------------------------------
#psi4
#
memory 32 gb

molecule  {
0 1
  C       -2.8859240     0.0139080     0.0157160
  C        1.4367670    -0.0149690     0.0041590
  C        0.7466220     1.1986450    -0.0028730
  C        0.7284570    -1.2193500    -0.0024690
  C       -0.6498160     1.2004800    -0.0088600
  C       -0.6636910    -1.1986650    -0.0089510
  C       -1.3793250     0.0073430    -0.0161260
  O        2.8101880    -0.0968780     0.0088050
  H        1.2936820     2.1410080    -0.0035900
  H        3.1696110     0.8075920     0.0126850
  H        1.2824350    -2.1540410    -0.0024010
  H       -1.1763760     2.1532471    -0.0671328
  H       -1.2060620    -2.1429340    -0.0174000
  H       -3.2954860    -0.8156320    -0.5681670
  H       -3.2834940     0.9453750    -0.3973120
  H       -3.2640020    -0.0839940     1.0392920
units angstrom
no_reorient  #important for SAPT in psi4, default
symmetry c1  #important for SAPT in psi4, default
}

set PROPERTIES_ORIGIN ["COM"]
properties('MP2/aug-cc-pvtz', properties = ['dipole'])
--------------------------------------------------------------------------

    Molecular point group: c1
  Charge       = 0
  Multiplicity = 1
  Basis Set: AUG-CC-PVTZ
    Blend: AUG-CC-PVTZ
  Basis Set: (AUG-CC-PVTZ AUX)
    Blend: AUG-CC-PVTZ-JKFIT

    Orbital Energies [Eh]
    ---------------------

    Doubly Occupied:

       1A    -20.589549     2A    -11.299877     3A    -11.238895
       4A    -11.237118     5A    -11.235210     6A    -11.235002
       7A    -11.229194     8A    -11.223367     9A     -1.397853
      10A     -1.149124    11A     -1.036633    12A     -1.016903
      13A     -0.926273    14A     -0.843789    15A     -0.800644
      16A     -0.727373    17A     -0.669898    18A     -0.642497
      19A     -0.604794    20A     -0.588523    21A     -0.586738
      22A     -0.574676    23A     -0.570264    24A     -0.531267
      25A     -0.503810    26A     -0.487334    27A     -0.469977
      28A     -0.341056    29A     -0.305532

  @DF-RHF Final Energy:  -344.71872090296500

   => Energetics <=

    Nuclear Repulsion Energy =            341.7472260895863769
    One-Electron Energy =               -1144.8055554545499035
    Two-Electron Energy =                 458.3396084619985800
    Total Energy =                       -344.7187209029650035
  Basis Set: (AUG-CC-PVTZ AUX)
    Blend: AUG-CC-PVTZ-RI
    Molecular point group: c1

    Geometry (in Angstrom), charge = 0, multiplicity = 1:

       Center              X                  Y                   Z               Mass
    ------------   -----------------  -----------------  -----------------  -----------------
         C           -2.945294246794     0.021714713878     0.016605064300    12.000000000000
         C            1.377396753206    -0.007162286122     0.005048064300    12.000000000000
         C            0.687251753206     1.206451713878    -0.001983935700    12.000000000000
         C            0.669086753206    -1.211543286122    -0.001579935700    12.000000000000
         C           -0.709186246794     1.208286713878    -0.007970935700    12.000000000000
         C           -0.723061246794    -1.190858286122    -0.008061935700    12.000000000000
         C           -1.438695246794     0.015149713878    -0.015236935700    12.000000000000
         O            2.750817753206    -0.089071286122     0.009694064300    15.994914619570
         H            1.234311753206     2.148814713878    -0.002700935700     1.007825032230
         H            3.110240753206     0.815398713878     0.013574064300     1.007825032230
         H            1.223064753206    -2.146234286122    -0.001511935700     1.007825032230
         H           -1.235746246794     2.161053813878    -0.066243735700     1.007825032230
         H           -1.265432246794    -2.135127286122    -0.016510935700     1.007825032230
         H           -3.354856246794    -0.807825286122    -0.567277935700     1.007825032230
         H           -3.342864246794     0.953181713878    -0.396422935700     1.007825032230
         H           -3.323372246794    -0.076187286122     1.040181064300     1.007825032230

  Basis Set: AUG-CC-PVTZ
    Blend: AUG-CC-PVTZ
  Basis Set: (AUG-CC-PVTZ AUX)
    Blend: AUG-CC-PVTZ-JKFIT
	 Reference Energy          =    -344.7187209029650035 [Eh]
	 Singles Energy            =      -0.0000000000000000 [Eh]
	 Same-Spin Energy          =      -0.3695555968391264 [Eh]
	 Opposite-Spin Energy      =      -1.1637548860888685 [Eh]
	 Correlation Energy        =      -1.5333104829279949 [Eh]
	 Total Energy              =    -346.2520313858930194 [Eh]

	 ================> DF-SCS-MP2 Energies <==================
	-----------------------------------------------------------
	 SCS Same-Spin Scale       =       0.3333333333333333 [-]
	 SCS Opposite-Spin Scale   =       1.2000000000000000 [-]
	 SCS Same-Spin Energy      =      -0.1231851989463754 [Eh]
	 SCS Opposite-Spin Energy  =      -1.3965058633066421 [Eh]
	 SCS Correlation Energy    =      -1.5196910622530175 [Eh]
	 SCS Total Energy          =    -346.2384119652180061 [Eh]
	-----------------------------------------------------------

  Dipole Moment: [D]
     X:    -0.4707      Y:     1.2636      Z:     0.0073     Total:     1.3484

*** Psi4 exiting successfully. Buy a developer a beer!
