                               Psi4 1.3.2 release

  ==> Input File <==

--------------------------------------------------------------------------
#psi4
#
memory 32 gb

molecule  {
0 1
  C       -2.8859240     0.0139080     0.0157160
  C        1.4367670    -0.0149690     0.0041590
  C        0.7466220     1.1986450    -0.0028730
  C        0.7284570    -1.2193500    -0.0024690
  C       -0.6498160     1.2004800    -0.0088600
  C       -0.6636910    -1.1986650    -0.0089510
  C       -1.3793250     0.0073430    -0.0161260
  O        2.8101880    -0.0968780     0.0088050
  H        1.2949757     2.1400156    -0.3035856
  H        3.1696110     0.8075920     0.0126850
  H        1.2824350    -2.1540410    -0.0024010
  H       -1.1767190     2.1533030    -0.0171340
  H       -1.2060620    -2.1429340    -0.0174000
  H       -3.2954860    -0.8156320    -0.5681670
  H       -3.2834940     0.9453750    -0.3973120
  H       -3.2640020    -0.0839940     1.0392920
units angstrom
no_reorient  #important for SAPT in psi4, default
symmetry c1  #important for SAPT in psi4, default
}

set PROPERTIES_ORIGIN ["COM"]
properties('MP2/aug-cc-pvtz', properties = ['dipole'])
--------------------------------------------------------------------------

    Molecular point group: c1
  Charge       = 0
  Multiplicity = 1
  Basis Set: AUG-CC-PVTZ
    Blend: AUG-CC-PVTZ
  Basis Set: (AUG-CC-PVTZ AUX)
    Blend: AUG-CC-PVTZ-JKFIT

    Orbital Energies [Eh]
    ---------------------

    Doubly Occupied:

       1A    -20.589788     2A    -11.300945     3A    -11.239748
       4A    -11.238321     5A    -11.238175     6A    -11.235469
       7A    -11.229595     8A    -11.223651     9A     -1.398051
      10A     -1.149565    11A     -1.036833    12A     -1.016330
      13A     -0.926654    14A     -0.842362    15A     -0.800445
      16A     -0.726501    17A     -0.669880    18A     -0.638907
      19A     -0.604439    20A     -0.591023    21A     -0.581546
      22A     -0.574573    23A     -0.570613    24A     -0.531697
      25A     -0.503703    26A     -0.487912    27A     -0.467761
      28A     -0.340970    29A     -0.305956

  @DF-RHF Final Energy:  -344.71316867372173

   => Energetics <=

    Nuclear Repulsion Energy =            341.5951470630259905
    One-Electron Energy =               -1144.4938059659741612
    Two-Electron Energy =                 458.1854902292265024
    Total Energy =                       -344.7131686737217251
  Basis Set: (AUG-CC-PVTZ AUX)
    Blend: AUG-CC-PVTZ-RI
    Molecular point group: c1

    Geometry (in Angstrom), charge = 0, multiplicity = 1:

       Center              X                  Y                   Z               Mass
    ------------   -----------------  -----------------  -----------------  -----------------
         C           -2.945303113732     0.021723448376     0.018936721041    12.000000000000
         C            1.377387886268    -0.007153551624     0.007379721041    12.000000000000
         C            0.687242886268     1.206460448376     0.000347721041    12.000000000000
         C            0.669077886268    -1.211534551624     0.000751721041    12.000000000000
         C           -0.709195113732     1.208295448376    -0.005639278959    12.000000000000
         C           -0.723070113732    -1.190849551624    -0.005730278959    12.000000000000
         C           -1.438704113732     0.015158448376    -0.012905278959    12.000000000000
         O            2.750808886268    -0.089062551624     0.012025721041    15.994914619570
         H            1.235596586268     2.147831048376    -0.300364878959     1.007825032230
         H            3.110231886268     0.815407448376     0.015905721041     1.007825032230
         H            1.223055886268    -2.146225551624     0.000819721041     1.007825032230
         H           -1.236098113732     2.161118448376    -0.013913278959     1.007825032230
         H           -1.265441113732    -2.135118551624    -0.014179278959     1.007825032230
         H           -3.354865113732    -0.807816551624    -0.564946278959     1.007825032230
         H           -3.342873113732     0.953190448376    -0.394091278959     1.007825032230
         H           -3.323381113732    -0.076178551624     1.042512721041     1.007825032230

  Basis Set: AUG-CC-PVTZ
    Blend: AUG-CC-PVTZ
  Basis Set: (AUG-CC-PVTZ AUX)
    Blend: AUG-CC-PVTZ-JKFIT
	 Reference Energy          =    -344.7131686737217251 [Eh]
	 Singles Energy            =      -0.0000000000000000 [Eh]
	 Same-Spin Energy          =      -0.3698422678711855 [Eh]
	 Opposite-Spin Energy      =      -1.1644366291676902 [Eh]
	 Correlation Energy        =      -1.5342788970388757 [Eh]
	 Total Energy              =    -346.2474475707605848 [Eh]

	 ================> DF-SCS-MP2 Energies <==================
	-----------------------------------------------------------
	 SCS Same-Spin Scale       =       0.3333333333333333 [-]
	 SCS Opposite-Spin Scale   =       1.2000000000000000 [-]
	 SCS Same-Spin Energy      =      -0.1232807559570618 [Eh]
	 SCS Opposite-Spin Energy  =      -1.3973239550012282 [Eh]
	 SCS Correlation Energy    =      -1.5206047109582901 [Eh]
	 SCS Total Energy          =    -346.2337733846800347 [Eh]
	-----------------------------------------------------------

  Dipole Moment: [D]
     X:    -0.5163      Y:     1.1923      Z:    -0.1579     Total:     1.3089

*** Psi4 exiting successfully. Buy a developer a beer!
