                               Psi4 1.3.2 release

  ==> Input File <==

--------------------------------------------------------------------------
#psi4
#
memory 32 gb

molecule  {
0 1
  C       -2.8859240     0.0139080     0.0157160
  C        1.4367670    -0.0149690     0.0041590
  C        0.7466220     1.1986450    -0.0028730
  C        0.7284570    -1.2193500    -0.0024690
  C       -0.6498160     1.2004800    -0.0088600
  C       -0.6658998    -1.1986446    -0.2089388
  C       -1.3793250     0.0073430    -0.0161260
  O        2.8101880    -0.0968780     0.0088050
  H        1.2936820     2.1410080    -0.0035900
  H        3.1696110     0.8075920     0.0126850
  H        1.2824350    -2.1540410    -0.0024010
  H       -1.1767190     2.1533030    -0.0171340
  H       -1.2060620    -2.1429340    -0.0174000
  H       -3.2954860    -0.8156320    -0.5681670
  H       -3.2834940     0.9453750    -0.3973120
  H       -3.2640020    -0.0839940     1.0392920
units angstrom
no_reorient  #important for SAPT in psi4, default
symmetry c1  #important for SAPT in psi4, default
}

set PROPERTIES_ORIGIN ["COM"]
properties('MP2/aug-cc-pvtz', properties = ['dipole'])
--------------------------------------------------------------------------

    Molecular point group: c1
  Charge       = 0
  Multiplicity = 1
  Basis Set: AUG-CC-PVTZ
    Blend: AUG-CC-PVTZ
  Basis Set: (AUG-CC-PVTZ AUX)
    Blend: AUG-CC-PVTZ-JKFIT

    Orbital Energies [Eh]
    ---------------------

    Doubly Occupied:

       1A    -20.589414     2A    -11.299433     3A    -11.240362
       4A    -11.239140     5A    -11.238160     6A    -11.237114
       7A    -11.232517     8A    -11.223614     9A     -1.397820
      10A     -1.147683    11A     -1.036600    12A     -1.015171
      13A     -0.926093    14A     -0.843622    15A     -0.798270
      16A     -0.725763    17A     -0.669363    18A     -0.641883
      19A     -0.603091    20A     -0.590480    21A     -0.582820
      22A     -0.572981    23A     -0.570678    24A     -0.529961
      25A     -0.502520    26A     -0.486731    27A     -0.467609
      28A     -0.340556    29A     -0.304855

  @DF-RHF Final Energy:  -344.70654897558256

   => Energetics <=

    Nuclear Repulsion Energy =            341.2853281322050520
    One-Electron Energy =               -1143.8751431793457414
    Two-Electron Energy =                 457.8832660715581824
    Total Energy =                       -344.7065489755825638
  Basis Set: (AUG-CC-PVTZ AUX)
    Blend: AUG-CC-PVTZ-RI
    Molecular point group: c1

    Geometry (in Angstrom), charge = 0, multiplicity = 1:

       Center              X                  Y                   Z               Mass
    ------------   -----------------  -----------------  -----------------  -----------------
         C           -2.945045756126     0.021711927052     0.038347777525    12.000000000000
         C            1.377645243874    -0.007165072948     0.026790777525    12.000000000000
         C            0.687500243874     1.206448927052     0.019758777525    12.000000000000
         C            0.669335243874    -1.211546072948     0.020162777525    12.000000000000
         C           -0.708937756126     1.208283927052     0.013771777525    12.000000000000
         C           -0.725021556126    -1.190840672948    -0.186307022475    12.000000000000
         C           -1.438446756126     0.015146927052     0.006505777525    12.000000000000
         O            2.751066243874    -0.089074072948     0.031436777525    15.994914619570
         H            1.234560243874     2.148811927052     0.019041777525     1.007825032230
         H            3.110489243874     0.815395927052     0.035316777525     1.007825032230
         H            1.223313243874    -2.146237072948     0.020230777525     1.007825032230
         H           -1.235840756126     2.161106927052     0.005497777525     1.007825032230
         H           -1.265183756126    -2.135130072948     0.005231777525     1.007825032230
         H           -3.354607756126    -0.807828072948    -0.545535222475     1.007825032230
         H           -3.342615756126     0.953178927052    -0.374680222475     1.007825032230
         H           -3.323123756126    -0.076190072948     1.061923777525     1.007825032230

  Basis Set: AUG-CC-PVTZ
    Blend: AUG-CC-PVTZ
  Basis Set: (AUG-CC-PVTZ AUX)
    Blend: AUG-CC-PVTZ-JKFIT
	 Reference Energy          =    -344.7065489755825638 [Eh]
	 Singles Energy            =      -0.0000000000000000 [Eh]
	 Same-Spin Energy          =      -0.3702271556924658 [Eh]
	 Opposite-Spin Energy      =      -1.1656684800475288 [Eh]
	 Correlation Energy        =      -1.5358956357399944 [Eh]
	 Total Energy              =    -346.2424446113225827 [Eh]

	 ================> DF-SCS-MP2 Energies <==================
	-----------------------------------------------------------
	 SCS Same-Spin Scale       =       0.3333333333333333 [-]
	 SCS Opposite-Spin Scale   =       1.2000000000000000 [-]
	 SCS Same-Spin Energy      =      -0.1234090518974886 [Eh]
	 SCS Opposite-Spin Energy  =      -1.3988021760570344 [Eh]
	 SCS Correlation Energy    =      -1.5222112279545230 [Eh]
	 SCS Total Energy          =    -346.2287602035370924 [Eh]
	-----------------------------------------------------------

  Dipole Moment: [D]
     X:    -0.4421      Y:     1.3465      Z:     0.1669     Total:     1.4270

*** Psi4 exiting successfully. Buy a developer a beer!
