                               Psi4 1.3.2 release

  ==> Input File <==

--------------------------------------------------------------------------
#psi4
#
memory 32 gb

molecule  {
0 1
  C       -2.8859240     0.0139080     0.0157160
  C        1.4367670    -0.0149690     0.0041590
  C        0.7466220     1.1986450    -0.0028730
  C        0.7284570    -1.2193500    -0.0024690
  C       -0.6498160     1.2004800    -0.0088600
  C       -0.6636910    -1.1986650    -0.0089510
  C       -1.3793250     0.0073430    -0.0161260
  O        2.8101880    -0.0968780     0.0088050
  H        1.2936820     2.1410080    -0.0035900
  H        3.1696110     0.8075920     0.0126850
  H        1.2824350    -2.1540410    -0.0024010
  H       -1.1760330     2.1531913    -0.1171316
  H       -1.2060620    -2.1429340    -0.0174000
  H       -3.2954860    -0.8156320    -0.5681670
  H       -3.2834940     0.9453750    -0.3973120
  H       -3.2640020    -0.0839940     1.0392920
units angstrom
no_reorient  #important for SAPT in psi4, default
symmetry c1  #important for SAPT in psi4, default
}

set PROPERTIES_ORIGIN ["COM"]
properties('MP2/aug-cc-pvtz', properties = ['dipole'])
--------------------------------------------------------------------------

    Molecular point group: c1
  Charge       = 0
  Multiplicity = 1
  Basis Set: AUG-CC-PVTZ
    Blend: AUG-CC-PVTZ
  Basis Set: (AUG-CC-PVTZ AUX)
    Blend: AUG-CC-PVTZ-JKFIT

    Orbital Energies [Eh]
    ---------------------

    Doubly Occupied:

       1A    -20.589572     2A    -11.299908     3A    -11.239209
       4A    -11.237162     5A    -11.235282     6A    -11.235093
       7A    -11.229286     8A    -11.223389     9A     -1.397880
      10A     -1.149152    11A     -1.036661    12A     -1.016862
      13A     -0.926274    14A     -0.843665    15A     -0.800571
      16A     -0.727291    17A     -0.669827    18A     -0.642481
      19A     -0.604594    20A     -0.588766    21A     -0.586263
      22A     -0.574715    23A     -0.570171    24A     -0.531212
      25A     -0.503860    26A     -0.487468    27A     -0.469690
      28A     -0.341040    29A     -0.305566

  @DF-RHF Final Energy:  -344.71822791306846

   => Energetics <=

    Nuclear Repulsion Energy =            341.7330990269488211
    One-Electron Energy =               -1144.7768335988371291
    Two-Electron Energy =                 458.3255066588198474
    Total Energy =                       -344.7182279130684606
  Basis Set: (AUG-CC-PVTZ AUX)
    Blend: AUG-CC-PVTZ-RI
    Molecular point group: c1

    Geometry (in Angstrom), charge = 0, multiplicity = 1:

       Center              X                  Y                   Z               Mass
    ------------   -----------------  -----------------  -----------------  -----------------
         C           -2.945297445868     0.021715234310     0.017071390425    12.000000000000
         C            1.377393554132    -0.007161765690     0.005514390425    12.000000000000
         C            0.687248554132     1.206452234310    -0.001517609575    12.000000000000
         C            0.669083554132    -1.211542765690    -0.001113609575    12.000000000000
         C           -0.709189445868     1.208287234310    -0.007504609575    12.000000000000
         C           -0.723064445868    -1.190857765690    -0.007595609575    12.000000000000
         C           -1.438698445868     0.015150234310    -0.014770609575    12.000000000000
         O            2.750814554132    -0.089070765690     0.010160390425    15.994914619570
         H            1.234308554132     2.148815234310    -0.002234609575     1.007825032230
         H            3.110237554132     0.815399234310     0.014040390425     1.007825032230
         H            1.223061554132    -2.146233765690    -0.001045609575     1.007825032230
         H           -1.235406445868     2.160998534310    -0.115776209575     1.007825032230
         H           -1.265435445868    -2.135126765690    -0.016044609575     1.007825032230
         H           -3.354859445868    -0.807824765690    -0.566811609575     1.007825032230
         H           -3.342867445868     0.953182234310    -0.395956609575     1.007825032230
         H           -3.323375445868    -0.076186765690     1.040647390425     1.007825032230

  Basis Set: AUG-CC-PVTZ
    Blend: AUG-CC-PVTZ
  Basis Set: (AUG-CC-PVTZ AUX)
    Blend: AUG-CC-PVTZ-JKFIT
	 Reference Energy          =    -344.7182279130684606 [Eh]
	 Singles Energy            =      -0.0000000000000000 [Eh]
	 Same-Spin Energy          =      -0.3695886673965251 [Eh]
	 Opposite-Spin Energy      =      -1.1638237621916794 [Eh]
	 Correlation Energy        =      -1.5334124295882043 [Eh]
	 Total Energy              =    -346.2516403426566853 [Eh]

	 ================> DF-SCS-MP2 Energies <==================
	-----------------------------------------------------------
	 SCS Same-Spin Scale       =       0.3333333333333333 [-]
	 SCS Opposite-Spin Scale   =       1.2000000000000000 [-]
	 SCS Same-Spin Energy      =      -0.1231962224655083 [Eh]
	 SCS Opposite-Spin Energy  =      -1.3965885146300152 [Eh]
	 SCS Correlation Energy    =      -1.5197847370955235 [Eh]
	 SCS Total Energy          =    -346.2380126501639666 [Eh]
	-----------------------------------------------------------

  Dipole Moment: [D]
     X:    -0.4665      Y:     1.2567      Z:    -0.0219     Total:     1.3406

*** Psi4 exiting successfully. Buy a developer a beer!
