                               Psi4 1.3.2 release

  ==> Input File <==

--------------------------------------------------------------------------
#psi4
#
memory 32 gb

molecule  {
0 1
  C       -2.8859240     0.0139080     0.0157160
  C        1.4367670    -0.0149690     0.0041590
  C        0.7466220     1.1986450    -0.0028730
  C        0.7284570    -1.2193500    -0.0024690
  C       -0.6498160     1.2004800    -0.0088600
  C       -0.6636910    -1.1986650    -0.0089510
  C       -1.3793250     0.0073430    -0.0161260
  O        2.8101880    -0.0968780     0.0088050
  H        1.2936820     2.1410080    -0.0035900
  H        3.1696110     0.8075920     0.0126850
  H        1.2824350    -2.1540410    -0.0024010
  H       -1.1746610     2.1529678    -0.3171268
  H       -1.2060620    -2.1429340    -0.0174000
  H       -3.2954860    -0.8156320    -0.5681670
  H       -3.2834940     0.9453750    -0.3973120
  H       -3.2640020    -0.0839940     1.0392920
units angstrom
no_reorient  #important for SAPT in psi4, default
symmetry c1  #important for SAPT in psi4, default
}

set PROPERTIES_ORIGIN ["COM"]
properties('MP2/aug-cc-pvtz', properties = ['dipole'])
--------------------------------------------------------------------------

    Molecular point group: c1
  Charge       = 0
  Multiplicity = 1
  Basis Set: AUG-CC-PVTZ
    Blend: AUG-CC-PVTZ
  Basis Set: (AUG-CC-PVTZ AUX)
    Blend: AUG-CC-PVTZ-JKFIT

    Orbital Energies [Eh]
    ---------------------

    Doubly Occupied:

       1A    -20.589791     2A    -11.300201     3A    -11.242398
       4A    -11.237604     5A    -11.236032     6A    -11.235866
       7A    -11.230175     8A    -11.223485     9A     -1.398133
      10A     -1.149415    11A     -1.036931    12A     -1.016459
      13A     -0.926283    14A     -0.842538    15A     -0.799851
      16A     -0.726536    17A     -0.669191    18A     -0.642266
      19A     -0.602718    20A     -0.589860    21A     -0.582787
      22A     -0.574981    23A     -0.569556    24A     -0.530767
      25A     -0.504250    26A     -0.488438    27A     -0.466726
      28A     -0.340833    29A     -0.305850

  @DF-RHF Final Energy:  -344.71249434898169

   => Energetics <=

    Nuclear Repulsion Energy =            341.5924452612456435
    One-Electron Energy =               -1144.4900354186845561
    Two-Electron Energy =                 458.1850958084572198
    Total Energy =                       -344.7124943489816928
  Basis Set: (AUG-CC-PVTZ AUX)
    Blend: AUG-CC-PVTZ-RI
    Molecular point group: c1

    Geometry (in Angstrom), charge = 0, multiplicity = 1:

       Center              X                  Y                   Z               Mass
    ------------   -----------------  -----------------  -----------------  -----------------
         C           -2.945310242164     0.021717318838     0.018936694926    12.000000000000
         C            1.377380757836    -0.007159681162     0.007379694926    12.000000000000
         C            0.687235757836     1.206454318838     0.000347694926    12.000000000000
         C            0.669070757836    -1.211540681162     0.000751694926    12.000000000000
         C           -0.709202242164     1.208289318838    -0.005639305074    12.000000000000
         C           -0.723077242164    -1.190855681162    -0.005730305074    12.000000000000
         C           -1.438711242164     0.015152318838    -0.012905305074    12.000000000000
         O            2.750801757836    -0.089068681162     0.012025694926    15.994914619570
         H            1.234295757836     2.148817318838    -0.000369305074     1.007825032230
         H            3.110224757836     0.815401318838     0.015905694926     1.007825032230
         H            1.223048757836    -2.146231681162     0.000819694926     1.007825032230
         H           -1.234047242164     2.160777118838    -0.313906105074     1.007825032230
         H           -1.265448242164    -2.135124681162    -0.014179305074     1.007825032230
         H           -3.354872242164    -0.807822681162    -0.564946305074     1.007825032230
         H           -3.342880242164     0.953184318838    -0.394091305074     1.007825032230
         H           -3.323388242164    -0.076184681162     1.042512694926     1.007825032230

  Basis Set: AUG-CC-PVTZ
    Blend: AUG-CC-PVTZ
  Basis Set: (AUG-CC-PVTZ AUX)
    Blend: AUG-CC-PVTZ-JKFIT
	 Reference Energy          =    -344.7124943489816928 [Eh]
	 Singles Energy            =      -0.0000000000000000 [Eh]
	 Same-Spin Energy          =      -0.3699139759877693 [Eh]
	 Opposite-Spin Energy      =      -1.1645859336758733 [Eh]
	 Correlation Energy        =      -1.5344999096636425 [Eh]
	 Total Energy              =    -346.2469942586453158 [Eh]

	 ================> DF-SCS-MP2 Energies <==================
	-----------------------------------------------------------
	 SCS Same-Spin Scale       =       0.3333333333333333 [-]
	 SCS Opposite-Spin Scale   =       1.2000000000000000 [-]
	 SCS Same-Spin Energy      =      -0.1233046586625898 [Eh]
	 SCS Opposite-Spin Energy  =      -1.3975031204110480 [Eh]
	 SCS Correlation Energy    =      -1.5208077790736376 [Eh]
	 SCS Total Energy          =    -346.2333021280553567 [Eh]
	-----------------------------------------------------------

  Dipole Moment: [D]
     X:    -0.4304      Y:     1.1918      Z:    -0.1341     Total:     1.2742

*** Psi4 exiting successfully. Buy a developer a beer!
