                               Psi4 1.3.2 release

  ==> Input File <==

--------------------------------------------------------------------------
#psi4
#
memory 32 gb

molecule  {
0 1
  C       -2.8859240     0.0139080     0.0157160
  C        1.4367670    -0.0149690     0.0041590
  C        0.7466220     1.1986450    -0.0028730
  C        0.7284570    -1.2193500    -0.0024690
  C       -0.6498160     1.2004800    -0.0088600
  C       -0.6636910    -1.1986650    -0.0089510
  C       -1.3793250     0.0073430    -0.0161260
  O        2.8101880    -0.0968780     0.0088050
  H        1.2936820     2.1410080    -0.0035900
  H        3.1696110     0.8075920     0.0126850
  H        1.2824350    -2.1540410    -0.0024010
  H       -1.1753470     2.1530795    -0.2171292
  H       -1.2060620    -2.1429340    -0.0174000
  H       -3.2954860    -0.8156320    -0.5681670
  H       -3.2834940     0.9453750    -0.3973120
  H       -3.2640020    -0.0839940     1.0392920
units angstrom
no_reorient  #important for SAPT in psi4, default
symmetry c1  #important for SAPT in psi4, default
}

set PROPERTIES_ORIGIN ["COM"]
properties('MP2/aug-cc-pvtz', properties = ['dipole'])
--------------------------------------------------------------------------

    Molecular point group: c1
  Charge       = 0
  Multiplicity = 1
  Basis Set: AUG-CC-PVTZ
    Blend: AUG-CC-PVTZ
  Basis Set: (AUG-CC-PVTZ AUX)
    Blend: AUG-CC-PVTZ-JKFIT

    Orbital Energies [Eh]
    ---------------------

    Doubly Occupied:

       1A    -20.589655     2A    -11.300019     3A    -11.240426
       4A    -11.237328     5A    -11.235558     6A    -11.235411
       7A    -11.229628     8A    -11.223437     9A     -1.397976
      10A     -1.149251    11A     -1.036762    12A     -1.016699
      13A     -0.926274    14A     -0.843204    15A     -0.800286
      16A     -0.726984    17A     -0.669559    18A     -0.642396
      19A     -0.603818    20A     -0.589330    21A     -0.584812
      22A     -0.574827    23A     -0.569929    24A     -0.531040
      25A     -0.504020    26A     -0.487902    27A     -0.468544
      28A     -0.340961    29A     -0.305677

  @DF-RHF Final Energy:  -344.71618563458003

   => Energetics <=

    Nuclear Repulsion Energy =            341.6788427634983805
    One-Electron Energy =               -1144.6666297910085177
    Two-Electron Energy =                 458.2716013929301653
    Total Energy =                       -344.7161856345800288
  Basis Set: (AUG-CC-PVTZ AUX)
    Blend: AUG-CC-PVTZ-RI
    Molecular point group: c1

    Geometry (in Angstrom), charge = 0, multiplicity = 1:

       Center              X                  Y                   Z               Mass
    ------------   -----------------  -----------------  -----------------  -----------------
         C           -2.945303844016     0.021716277040     0.018004042676    12.000000000000
         C            1.377387155984    -0.007160722960     0.006447042676    12.000000000000
         C            0.687242155984     1.206453277040    -0.000584957324    12.000000000000
         C            0.669077155984    -1.211541722960    -0.000180957324    12.000000000000
         C           -0.709195844016     1.208288277040    -0.006571957324    12.000000000000
         C           -0.723070844016    -1.190856722960    -0.006662957324    12.000000000000
         C           -1.438704844016     0.015151277040    -0.013837957324    12.000000000000
         O            2.750808155984    -0.089069722960     0.011093042676    15.994914619570
         H            1.234302155984     2.148816277040    -0.001301957324     1.007825032230
         H            3.110231155984     0.815400277040     0.014973042676     1.007825032230
         H            1.223055155984    -2.146232722960    -0.000112957324     1.007825032230
         H           -1.234726844016     2.160887777040    -0.214841157324     1.007825032230
         H           -1.265441844016    -2.135125722960    -0.015111957324     1.007825032230
         H           -3.354865844016    -0.807823722960    -0.565878957324     1.007825032230
         H           -3.342873844016     0.953183277040    -0.395023957324     1.007825032230
         H           -3.323381844016    -0.076185722960     1.041580042676     1.007825032230

  Basis Set: AUG-CC-PVTZ
    Blend: AUG-CC-PVTZ
  Basis Set: (AUG-CC-PVTZ AUX)
    Blend: AUG-CC-PVTZ-JKFIT
	 Reference Energy          =    -344.7161856345800288 [Eh]
	 Singles Energy            =      -0.0000000000000000 [Eh]
	 Same-Spin Energy          =      -0.3697141273798514 [Eh]
	 Opposite-Spin Energy      =      -1.1641038313573195 [Eh]
	 Correlation Energy        =      -1.5338179587371710 [Eh]
	 Total Energy              =    -346.2500035933172171 [Eh]

	 ================> DF-SCS-MP2 Energies <==================
	-----------------------------------------------------------
	 SCS Same-Spin Scale       =       0.3333333333333333 [-]
	 SCS Opposite-Spin Scale   =       1.2000000000000000 [-]
	 SCS Same-Spin Energy      =      -0.1232380424599505 [Eh]
	 SCS Opposite-Spin Energy  =      -1.3969245976287834 [Eh]
	 SCS Correlation Energy    =      -1.5201626400887338 [Eh]
	 SCS Total Energy          =    -346.2363482746687851 [Eh]
	-----------------------------------------------------------

  Dipole Moment: [D]
     X:    -0.4522      Y:     1.2315      Z:    -0.0793     Total:     1.3143

*** Psi4 exiting successfully. Buy a developer a beer!
