                               Psi4 1.3.2 release

  ==> Input File <==

--------------------------------------------------------------------------
#psi4
#
memory 32 gb

molecule  {
0 1
  C       -2.8859240     0.0139080     0.0157160
  C        1.4367670    -0.0149690     0.0041590
  C        0.7466220     1.1986450    -0.0028730
  C        0.7284570    -1.2193500    -0.0024690
  C       -0.6498160     1.2004800    -0.0088600
  C       -0.6664520    -1.1986396    -0.2589358
  C       -1.3793250     0.0073430    -0.0161260
  O        2.8101880    -0.0968780     0.0088050
  H        1.2936820     2.1410080    -0.0035900
  H        3.1696110     0.8075920     0.0126850
  H        1.2824350    -2.1540410    -0.0024010
  H       -1.1767190     2.1533030    -0.0171340
  H       -1.2060620    -2.1429340    -0.0174000
  H       -3.2954860    -0.8156320    -0.5681670
  H       -3.2834940     0.9453750    -0.3973120
  H       -3.2640020    -0.0839940     1.0392920
units angstrom
no_reorient  #important for SAPT in psi4, default
symmetry c1  #important for SAPT in psi4, default
}

set PROPERTIES_ORIGIN ["COM"]
properties('MP2/aug-cc-pvtz', properties = ['dipole'])
--------------------------------------------------------------------------

    Molecular point group: c1
  Charge       = 0
  Multiplicity = 1
  Basis Set: AUG-CC-PVTZ
    Blend: AUG-CC-PVTZ
  Basis Set: (AUG-CC-PVTZ AUX)
    Blend: AUG-CC-PVTZ-JKFIT

    Orbital Energies [Eh]
    ---------------------

    Doubly Occupied:

       1A    -20.589389     2A    -11.299254     3A    -11.242116
       4A    -11.240698     5A    -11.239064     6A    -11.237740
       7A    -11.234319     8A    -11.223769     9A     -1.397851
      10A     -1.146963    11A     -1.036601    12A     -1.014298
      13A     -0.925944    14A     -0.843430    15A     -0.797078
      16A     -0.724938    17A     -0.669141    18A     -0.641506
      19A     -0.602311    20A     -0.590823    21A     -0.581663
      22A     -0.572174    23A     -0.570269    24A     -0.529333
      25A     -0.501709    26A     -0.486178    27A     -0.466259
      28A     -0.340475    29A     -0.304470

  @DF-RHF Final Energy:  -344.69937804688124

   => Energetics <=

    Nuclear Repulsion Energy =            341.0348935077465171
    One-Electron Energy =               -1143.3690193553497920
    Two-Electron Energy =                 457.6347478007219820
    Total Energy =                       -344.6993780468812361
  Basis Set: (AUG-CC-PVTZ AUX)
    Blend: AUG-CC-PVTZ-RI
    Molecular point group: c1

    Geometry (in Angstrom), charge = 0, multiplicity = 1:

       Center              X                  Y                   Z               Mass
    ------------   -----------------  -----------------  -----------------  -----------------
         C           -2.944984433228     0.021711371793     0.043900042915    12.000000000000
         C            1.377706566772    -0.007165628207     0.032343042915    12.000000000000
         C            0.687561566772     1.206448371793     0.025311042915    12.000000000000
         C            0.669396566772    -1.211546628207     0.025715042915    12.000000000000
         C           -0.708876433228     1.208283371793     0.019324042915    12.000000000000
         C           -0.725512433228    -1.190836228207    -0.230751757085    12.000000000000
         C           -1.438385433228     0.015146371793     0.012058042915    12.000000000000
         O            2.751127566772    -0.089074628207     0.036989042915    15.994914619570
         H            1.234621566772     2.148811371793     0.024594042915     1.007825032230
         H            3.110550566772     0.815395371793     0.040869042915     1.007825032230
         H            1.223374566772    -2.146237628207     0.025783042915     1.007825032230
         H           -1.235779433228     2.161106371793     0.011050042915     1.007825032230
         H           -1.265122433228    -2.135130628207     0.010784042915     1.007825032230
         H           -3.354546433228    -0.807828628207    -0.539982957085     1.007825032230
         H           -3.342554433228     0.953178371793    -0.369127957085     1.007825032230
         H           -3.323062433228    -0.076190628207     1.067476042915     1.007825032230

  Basis Set: AUG-CC-PVTZ
    Blend: AUG-CC-PVTZ
  Basis Set: (AUG-CC-PVTZ AUX)
    Blend: AUG-CC-PVTZ-JKFIT
	 Reference Energy          =    -344.6993780468812361 [Eh]
	 Singles Energy            =      -0.0000000000000000 [Eh]
	 Same-Spin Energy          =      -0.3706026921652920 [Eh]
	 Opposite-Spin Energy      =      -1.1667840958829716 [Eh]
	 Correlation Energy        =      -1.5373867880482637 [Eh]
	 Total Energy              =    -346.2367648349294882 [Eh]

	 ================> DF-SCS-MP2 Energies <==================
	-----------------------------------------------------------
	 SCS Same-Spin Scale       =       0.3333333333333333 [-]
	 SCS Opposite-Spin Scale   =       1.2000000000000000 [-]
	 SCS Same-Spin Energy      =      -0.1235342307217640 [Eh]
	 SCS Opposite-Spin Energy  =      -1.4001409150595658 [Eh]
	 SCS Correlation Energy    =      -1.5236751457813298 [Eh]
	 SCS Total Energy          =    -346.2230531926625758 [Eh]
	-----------------------------------------------------------

  Dipole Moment: [D]
     X:    -0.4230      Y:     1.3912      Z:     0.2030     Total:     1.4682

*** Psi4 exiting successfully. Buy a developer a beer!
