                               Psi4 1.3.2 release

  ==> Input File <==

--------------------------------------------------------------------------
#psi4
#
memory 32 gb

molecule  {
0 1
  F       -2.0746710    -0.0124370    -0.0000860
  N        1.3733650    -0.6503060     0.0000540
  C        0.0797100    -1.1194690     0.0000080
  C       -0.7218460     0.0042460    -0.0000290
  C        0.0790740     1.1640700     0.0000030
  C        1.3909070     0.7202580     0.0000560
  H       -0.1632220    -2.1709030    -0.0000010
  H        2.1947510    -1.2389290     0.0000860
  H       -0.2615160     2.1895410    -0.0000100
  H        2.3214050     1.2697350     0.0000920
units angstrom
no_reorient  #important for SAPT in psi4, default
symmetry c1  #important for SAPT in psi4, default
}

set PROPERTIES_ORIGIN ["COM"]
properties('MP2/aug-cc-pvtz', properties = ['dipole'])
--------------------------------------------------------------------------

    Molecular point group: c1
  Charge       = 0
  Multiplicity = 1
  Basis Set: AUG-CC-PVTZ
    Blend: AUG-CC-PVTZ
  Basis Set: (AUG-CC-PVTZ AUX)
    Blend: AUG-CC-PVTZ-JKFIT

    Orbital Energies [Eh]
    ---------------------

    Doubly Occupied:

       1A    -26.298042     2A    -15.621311     3A    -11.305923
       4A    -11.272388     5A    -11.261974     6A    -11.225186
       7A     -1.608586     8A     -1.304246     9A     -1.056499
      10A     -0.991665    11A     -0.820749    12A     -0.797096
      13A     -0.753915    14A     -0.680687    15A     -0.678539
      16A     -0.652204    17A     -0.599695    18A     -0.585353
      19A     -0.576102    20A     -0.532801    21A     -0.357056
      22A     -0.308963

  @DF-RHF Final Energy:  -307.76834058185102

   => Energetics <=

    Nuclear Repulsion Energy =            219.9456683915091730
    One-Electron Energy =                -856.8500595120540311
    Two-Electron Energy =                 329.1360505386938939
    Total Energy =                       -307.7683405818510209
  Basis Set: (AUG-CC-PVTZ AUX)
    Blend: AUG-CC-PVTZ-RI
    Molecular point group: c1

    Geometry (in Angstrom), charge = 0, multiplicity = 1:

       Center              X                  Y                   Z               Mass
    ------------   -----------------  -----------------  -----------------  -----------------
         F           -2.002621949328    -0.011690519822    -0.000083020092    18.998403162730
         N            1.445414050672    -0.649559519822     0.000056979908    14.003074004430
         C            0.151759050672    -1.118722519822     0.000010979908    12.000000000000
         C           -0.649796949328     0.004992480178    -0.000026020092    12.000000000000
         C            0.151123050672     1.164816480178     0.000005979908    12.000000000000
         C            1.462956050672     0.721004480178     0.000058979908    12.000000000000
         H           -0.091172949328    -2.170156519822     0.000001979908     1.007825032230
         H            2.266800050672    -1.238182519822     0.000088979908     1.007825032230
         H           -0.189466949328     2.190287480178    -0.000007020092     1.007825032230
         H            2.393454050672     1.270481480178     0.000094979908     1.007825032230

  Basis Set: AUG-CC-PVTZ
    Blend: AUG-CC-PVTZ
  Basis Set: (AUG-CC-PVTZ AUX)
    Blend: AUG-CC-PVTZ-JKFIT
	 Reference Energy          =    -307.7683405818510209 [Eh]
	 Singles Energy            =      -0.0000000000000000 [Eh]
	 Same-Spin Energy          =      -0.3024890404266083 [Eh]
	 Opposite-Spin Energy      =      -0.9115794872626415 [Eh]
	 Correlation Energy        =      -1.2140685276892498 [Eh]
	 Total Energy              =    -308.9824091095402991 [Eh]

	 ================> DF-SCS-MP2 Energies <==================
	-----------------------------------------------------------
	 SCS Same-Spin Scale       =       0.3333333333333333 [-]
	 SCS Opposite-Spin Scale   =       1.2000000000000000 [-]
	 SCS Same-Spin Energy      =      -0.1008296801422028 [Eh]
	 SCS Opposite-Spin Energy  =      -1.0938953847151698 [Eh]
	 SCS Correlation Energy    =      -1.1947250648573726 [Eh]
	 SCS Total Energy          =    -308.9630656467084009 [Eh]
	-----------------------------------------------------------

  Dipole Moment: [D]
     X:     3.0866      Y:    -0.9934      Z:     0.0001     Total:     3.2425

*** Psi4 exiting successfully. Buy a developer a beer!
