                               Psi4 1.3.2 release

  ==> Input File <==

--------------------------------------------------------------------------
#psi4
#
memory 32 gb

molecule  {
0 1
  F       -2.0741738    -0.0360445    -0.0000859
  N        1.3733650    -0.6503060     0.0000540
  C        0.0797100    -1.1194690     0.0000080
  C       -0.7218460     0.0042460    -0.0000290
  C        0.0790740     1.1640700     0.0000030
  C        1.3909070     0.7202580     0.0000560
  H       -0.1632220    -2.1709030    -0.0000010
  H        2.1947510    -1.2389290     0.0000860
  H       -0.2615160     2.1895410    -0.0000100
  H        2.3214050     1.2697350     0.0000920
units angstrom
no_reorient  #important for SAPT in psi4, default
symmetry c1  #important for SAPT in psi4, default
}

set PROPERTIES_ORIGIN ["COM"]
properties('MP2/aug-cc-pvtz', properties = ['dipole'])
--------------------------------------------------------------------------

    Molecular point group: c1
  Charge       = 0
  Multiplicity = 1
  Basis Set: AUG-CC-PVTZ
    Blend: AUG-CC-PVTZ
  Basis Set: (AUG-CC-PVTZ AUX)
    Blend: AUG-CC-PVTZ-JKFIT

    Orbital Energies [Eh]
    ---------------------

    Doubly Occupied:

       1A    -26.297898     2A    -15.621282     3A    -11.305794
       4A    -11.272486     5A    -11.261411     6A    -11.225790
       7A     -1.608491     8A     -1.304174     9A     -1.056575
      10A     -0.991639    11A     -0.820345    12A     -0.797450
      13A     -0.754011    14A     -0.680625    15A     -0.678500
      16A     -0.651675    17A     -0.599701    18A     -0.585510
      19A     -0.576011    20A     -0.533026    21A     -0.357252
      22A     -0.308713

  @DF-RHF Final Energy:  -307.76822590766761

   => Energetics <=

    Nuclear Repulsion Energy =            219.9511673423978664
    One-Electron Energy =                -856.8620689942071067
    Two-Electron Energy =                 329.1426757441416271
    Total Energy =                       -307.7682259076676132
  Basis Set: (AUG-CC-PVTZ AUX)
    Blend: AUG-CC-PVTZ-RI
    Molecular point group: c1

    Geometry (in Angstrom), charge = 0, multiplicity = 1:

       Center              X                  Y                   Z               Mass
    ------------   -----------------  -----------------  -----------------  -----------------
         F           -2.002235835974    -0.030023526656    -0.000082942434    18.998403162730
         N            1.445302964026    -0.644285026656     0.000056957566    14.003074004430
         C            0.151647964026    -1.113448026656     0.000010957566    12.000000000000
         C           -0.649908035974     0.010266973344    -0.000026042434    12.000000000000
         C            0.151011964026     1.170090973344     0.000005957566    12.000000000000
         C            1.462844964026     0.726278973344     0.000058957566    12.000000000000
         H           -0.091284035974    -2.164882026656     0.000001957566     1.007825032230
         H            2.266688964026    -1.232908026656     0.000088957566     1.007825032230
         H           -0.189578035974     2.195561973344    -0.000007042434     1.007825032230
         H            2.393342964026     1.275755973344     0.000094957566     1.007825032230

  Basis Set: AUG-CC-PVTZ
    Blend: AUG-CC-PVTZ
  Basis Set: (AUG-CC-PVTZ AUX)
    Blend: AUG-CC-PVTZ-JKFIT
	 Reference Energy          =    -307.7682259076676132 [Eh]
	 Singles Energy            =      -0.0000000000000000 [Eh]
	 Same-Spin Energy          =      -0.3025167833753132 [Eh]
	 Opposite-Spin Energy      =      -0.9116169367932425 [Eh]
	 Correlation Energy        =      -1.2141337201685558 [Eh]
	 Total Energy              =    -308.9823596278361606 [Eh]

	 ================> DF-SCS-MP2 Energies <==================
	-----------------------------------------------------------
	 SCS Same-Spin Scale       =       0.3333333333333333 [-]
	 SCS Opposite-Spin Scale   =       1.2000000000000000 [-]
	 SCS Same-Spin Energy      =      -0.1008389277917711 [Eh]
	 SCS Opposite-Spin Energy  =      -1.0939403241518910 [Eh]
	 SCS Correlation Energy    =      -1.1947792519436620 [Eh]
	 SCS Total Energy          =    -308.9630051596112708 [Eh]
	-----------------------------------------------------------

  Dipole Moment: [D]
     X:     3.0880      Y:    -0.9720      Z:     0.0001     Total:     3.2373

*** Psi4 exiting successfully. Buy a developer a beer!
