                               Psi4 1.3.2 release

  ==> Input File <==

--------------------------------------------------------------------------
#psi4
#
memory 32 gb

molecule  {
0 1
  F       -2.0746710    -0.0124370    -0.0000860
  N        1.3733650    -0.6503060     0.0000540
  C        0.0797100    -1.1194690     0.0000080
  C       -0.6218536     0.0054791    -0.0000248
  C        0.0790740     1.1640700     0.0000030
  C        1.3909070     0.7202580     0.0000560
  H       -0.1632220    -2.1709030    -0.0000010
  H        2.1947510    -1.2389290     0.0000860
  H       -0.2615160     2.1895410    -0.0000100
  H        2.3214050     1.2697350     0.0000920
units angstrom
no_reorient  #important for SAPT in psi4, default
symmetry c1  #important for SAPT in psi4, default
}

set PROPERTIES_ORIGIN ["COM"]
properties('MP2/aug-cc-pvtz', properties = ['dipole'])
--------------------------------------------------------------------------

    Molecular point group: c1
  Charge       = 0
  Multiplicity = 1
  Basis Set: AUG-CC-PVTZ
    Blend: AUG-CC-PVTZ
  Basis Set: (AUG-CC-PVTZ AUX)
    Blend: AUG-CC-PVTZ-JKFIT

    Orbital Energies [Eh]
    ---------------------

    Doubly Occupied:

       1A    -26.271088     2A    -15.624806     3A    -11.299289
       4A    -11.277450     5A    -11.260949     6A    -11.225133
       7A     -1.555284     8A     -1.318284     9A     -1.073699
      10A     -1.003764    11A     -0.825253    12A     -0.779038
      13A     -0.759247    14A     -0.651649    15A     -0.647821
      16A     -0.624960    17A     -0.607628    18A     -0.592485
      19A     -0.583472    20A     -0.550435    21A     -0.371832
      22A     -0.318446

  @DF-RHF Final Energy:  -307.75305123185973

   => Energetics <=

    Nuclear Repulsion Energy =            220.5326243789702403
    One-Electron Energy =                -858.1273302814007593
    Two-Electron Energy =                 329.8416546705707901
    Total Energy =                       -307.7530512318597289
  Basis Set: (AUG-CC-PVTZ AUX)
    Blend: AUG-CC-PVTZ-RI
    Molecular point group: c1

    Geometry (in Angstrom), charge = 0, multiplicity = 1:

       Center              X                  Y                   Z               Mass
    ------------   -----------------  -----------------  -----------------  -----------------
         F           -2.016733081977    -0.011864537424    -0.000083612804    18.998403162730
         N            1.431302918023    -0.649733537424     0.000056387196    14.003074004430
         C            0.137647918023    -1.118896537424     0.000010387196    12.000000000000
         C           -0.563915681977     0.006051562576    -0.000022412804    12.000000000000
         C            0.137011918023     1.164642462576     0.000005387196    12.000000000000
         C            1.448844918023     0.720830462576     0.000058387196    12.000000000000
         H           -0.105284081977    -2.170330537424     0.000001387196     1.007825032230
         H            2.252688918023    -1.238356537424     0.000088387196     1.007825032230
         H           -0.203578081977     2.190113462576    -0.000007612804     1.007825032230
         H            2.379342918023     1.270307462576     0.000094387196     1.007825032230

  Basis Set: AUG-CC-PVTZ
    Blend: AUG-CC-PVTZ
  Basis Set: (AUG-CC-PVTZ AUX)
    Blend: AUG-CC-PVTZ-JKFIT
	 Reference Energy          =    -307.7530512318597289 [Eh]
	 Singles Energy            =      -0.0000000000000000 [Eh]
	 Same-Spin Energy          =      -0.3031194622746635 [Eh]
	 Opposite-Spin Energy      =      -0.9133082246244369 [Eh]
	 Correlation Energy        =      -1.2164276868991004 [Eh]
	 Total Energy              =    -308.9694789187588526 [Eh]

	 ================> DF-SCS-MP2 Energies <==================
	-----------------------------------------------------------
	 SCS Same-Spin Scale       =       0.3333333333333333 [-]
	 SCS Opposite-Spin Scale   =       1.2000000000000000 [-]
	 SCS Same-Spin Energy      =      -0.1010398207582212 [Eh]
	 SCS Opposite-Spin Energy  =      -1.0959698695493243 [Eh]
	 SCS Correlation Energy    =      -1.1970096903075453 [Eh]
	 SCS Total Energy          =    -308.9500609221672676 [Eh]
	-----------------------------------------------------------

  Dipole Moment: [D]
     X:     3.6700      Y:    -0.9798      Z:     0.0001     Total:     3.7985

*** Psi4 exiting successfully. Buy a developer a beer!
