                               Psi4 1.3.2 release

  ==> Input File <==

--------------------------------------------------------------------------
#psi4
#
memory 32 gb

molecule  {
0 1
  F       -2.0747561     0.0111756    -0.0000861
  N        1.3733650    -0.6503060     0.0000540
  C        0.0797100    -1.1194690     0.0000080
  C       -0.7218460     0.0042460    -0.0000290
  C        0.0790740     1.1640700     0.0000030
  C        1.3909070     0.7202580     0.0000560
  H       -0.1632220    -2.1709030    -0.0000010
  H        2.1947510    -1.2389290     0.0000860
  H       -0.2615160     2.1895410    -0.0000100
  H        2.3214050     1.2697350     0.0000920
units angstrom
no_reorient  #important for SAPT in psi4, default
symmetry c1  #important for SAPT in psi4, default
}

set PROPERTIES_ORIGIN ["COM"]
properties('MP2/aug-cc-pvtz', properties = ['dipole'])
--------------------------------------------------------------------------

    Molecular point group: c1
  Charge       = 0
  Multiplicity = 1
  Basis Set: AUG-CC-PVTZ
    Blend: AUG-CC-PVTZ
  Basis Set: (AUG-CC-PVTZ AUX)
    Blend: AUG-CC-PVTZ-JKFIT

    Orbital Energies [Eh]
    ---------------------

    Doubly Occupied:

       1A    -26.298171     2A    -15.621333     3A    -11.306050
       4A    -11.272279     5A    -11.262537     6A    -11.224577
       7A     -1.608685     8A     -1.304310     9A     -1.056418
      10A     -0.991686    11A     -0.821160    12A     -0.796735
      13A     -0.753815    14A     -0.680752    15A     -0.678569
      16A     -0.652721    17A     -0.599685    18A     -0.585190
      19A     -0.576184    20A     -0.532519    21A     -0.356855
      22A     -0.309206

  @DF-RHF Final Energy:  -307.76833596819739

   => Energetics <=

    Nuclear Repulsion Energy =            219.9448521496706803
    One-Electron Energy =                -856.8475013874608521
    Two-Electron Energy =                 329.1343132695928375
    Total Energy =                       -307.7683359681973911
  Basis Set: (AUG-CC-PVTZ AUX)
    Blend: AUG-CC-PVTZ-RI
    Molecular point group: c1

    Geometry (in Angstrom), charge = 0, multiplicity = 1:

       Center              X                  Y                   Z               Mass
    ------------   -----------------  -----------------  -----------------  -----------------
         F           -2.002688035905     0.006646447548    -0.000083097749    18.998403162730
         N            1.445433064095    -0.654835152452     0.000057002251    14.003074004430
         C            0.151778064095    -1.123998152452     0.000011002251    12.000000000000
         C           -0.649777935905    -0.000283152452    -0.000025997749    12.000000000000
         C            0.151142064095     1.159540847548     0.000006002251    12.000000000000
         C            1.462975064095     0.715728847548     0.000059002251    12.000000000000
         H           -0.091153935905    -2.175432152452     0.000002002251     1.007825032230
         H            2.266819064095    -1.243458152452     0.000089002251     1.007825032230
         H           -0.189447935905     2.185011847548    -0.000006997749     1.007825032230
         H            2.393473064095     1.265205847548     0.000095002251     1.007825032230

  Basis Set: AUG-CC-PVTZ
    Blend: AUG-CC-PVTZ
  Basis Set: (AUG-CC-PVTZ AUX)
    Blend: AUG-CC-PVTZ-JKFIT
	 Reference Energy          =    -307.7683359681973911 [Eh]
	 Singles Energy            =      -0.0000000000000000 [Eh]
	 Same-Spin Energy          =      -0.3024654107855917 [Eh]
	 Opposite-Spin Energy      =      -0.9115499524430063 [Eh]
	 Correlation Energy        =      -1.2140153632285979 [Eh]
	 Total Energy              =    -308.9823513314260026 [Eh]

	 ================> DF-SCS-MP2 Energies <==================
	-----------------------------------------------------------
	 SCS Same-Spin Scale       =       0.3333333333333333 [-]
	 SCS Opposite-Spin Scale   =       1.2000000000000000 [-]
	 SCS Same-Spin Energy      =      -0.1008218035951972 [Eh]
	 SCS Opposite-Spin Energy  =      -1.0938599429316076 [Eh]
	 SCS Correlation Energy    =      -1.1946817465268049 [Eh]
	 SCS Total Energy          =    -308.9630177147241739 [Eh]
	-----------------------------------------------------------

  Dipole Moment: [D]
     X:     3.0846      Y:    -1.0147      Z:     0.0001     Total:     3.2472

*** Psi4 exiting successfully. Buy a developer a beer!
