                               Psi4 1.4a3.dev225

  ==> Input File <==

--------------------------------------------------------------------------
#psi4
#
memory 32 gb

molecule  {
0 1
  F       -2.0746710    -0.0124370    -0.0000860
  N        1.3733650    -0.6503060     0.0000540
  C        0.0797100    -1.1194690     0.0000080
  C       -0.7418445     0.0039994    -0.0000298
  C        0.0790740     1.1640700     0.0000030
  C        1.3909070     0.7202580     0.0000560
  H       -0.1632220    -2.1709030    -0.0000010
  H        2.1947510    -1.2389290     0.0000860
  H       -0.2615160     2.1895410    -0.0000100
  H        2.3214050     1.2697350     0.0000920
units angstrom
no_reorient  #important for SAPT in psi4, default
symmetry c1  #important for SAPT in psi4, default
}

set PROPERTIES_ORIGIN ["COM"]
properties('MP2/aug-cc-pvtz', properties = ['dipole'])
--------------------------------------------------------------------------

    Molecular point group: c1
  Charge       = 0
  Multiplicity = 1
  Basis Set: AUG-CC-PVTZ
    Blend: AUG-CC-PVTZ
  Basis Set: (AUG-CC-PVTZ AUX)
    Blend: AUG-CC-PVTZ-JKFIT

    Orbital Energies [Eh]
    ---------------------

    Doubly Occupied:

       1A    -26.303385     2A    -15.620632     3A    -11.307792
       4A    -11.271506     5A    -11.262113     6A    -11.225265
       7A     -1.620592     8A     -1.301799     9A     -1.053025
      10A     -0.989494    11A     -0.822087    12A     -0.800733
      13A     -0.752682    14A     -0.688336    15A     -0.684199
      16A     -0.657286    17A     -0.598216    18A     -0.584151
      19A     -0.574416    20A     -0.527403    21A     -0.354134
      22A     -0.306898

  @DF-RHF Final Energy:  -307.76809339817930

   => Energetics <=

    Nuclear Repulsion Energy =            219.8613324337675010
    One-Electron Energy =                -856.6465608833658507
    Two-Electron Energy =                 329.0171350514190181
    Total Energy =                       -307.7680933981793032
  Basis Set: (AUG-CC-PVTZ AUX)
    Blend: AUG-CC-PVTZ-RI
    Molecular point group: c1

    Geometry (in Angstrom), charge = 0, multiplicity = 1:

       Center              X                  Y                   Z               Mass
    ------------   -----------------  -----------------  -----------------  -----------------
         F           -1.999799719975    -0.011655719124    -0.000082907194    18.998403162730
         N            1.448236280025    -0.649524719124     0.000057092806    14.003074004430
         C            0.154581280025    -1.118687719124     0.000011092806    12.000000000000
         C           -0.666973219975     0.004780680876    -0.000026707194    12.000000000000
         C            0.153945280025     1.164851280876     0.000006092806    12.000000000000
         C            1.465778280025     0.721039280876     0.000059092806    12.000000000000
         H           -0.088350719975    -2.170121719124     0.000002092806     1.007825032230
         H            2.269622280025    -1.238147719124     0.000089092806     1.007825032230
         H           -0.186644719975     2.190322280876    -0.000006907194     1.007825032230
         H            2.396276280025     1.270516280876     0.000095092806     1.007825032230

  Basis Set: AUG-CC-PVTZ
    Blend: AUG-CC-PVTZ
  Basis Set: (AUG-CC-PVTZ AUX)
    Blend: AUG-CC-PVTZ-JKFIT
	 Reference Energy          =    -307.7680933981793032 [Eh]
	 Singles Energy            =      -0.0000000000000000 [Eh]
	 Same-Spin Energy          =      -0.3024524219252850 [Eh]
	 Opposite-Spin Energy      =      -0.9113592762838685 [Eh]
	 Correlation Energy        =      -1.2138116982091534 [Eh]
	 Total Energy              =    -308.9819050963884592 [Eh]

	 ================> DF-SCS-MP2 Energies <==================
	-----------------------------------------------------------
	 SCS Same-Spin Scale       =       0.3333333333333333 [-]
	 SCS Opposite-Spin Scale   =       1.2000000000000000 [-]
	 SCS Same-Spin Energy      =      -0.1008174739750950 [Eh]
	 SCS Opposite-Spin Energy  =      -1.0936311315406422 [Eh]
	 SCS Correlation Energy    =      -1.1944486055157371 [Eh]
	 SCS Total Energy          =    -308.9625420036950345 [Eh]
	-----------------------------------------------------------

  Dipole Moment: [D]
     X:     2.9652      Y:    -0.9946      Z:     0.0001     Total:     3.1276

*** Psi4 exiting successfully. Buy a developer a beer!
