                               Psi4 1.3.2 release

  ==> Input File <==

--------------------------------------------------------------------------
#psi4
#
memory 32 gb

molecule  {
0 1
  F       -2.0655162    -0.1537543    -0.0000852
  N        1.3733650    -0.6503060     0.0000540
  C        0.0797100    -1.1194690     0.0000080
  C       -0.7218460     0.0042460    -0.0000290
  C        0.0790740     1.1640700     0.0000030
  C        1.3909070     0.7202580     0.0000560
  H       -0.1632220    -2.1709030    -0.0000010
  H        2.1947510    -1.2389290     0.0000860
  H       -0.2615160     2.1895410    -0.0000100
  H        2.3214050     1.2697350     0.0000920
units angstrom
no_reorient  #important for SAPT in psi4, default
symmetry c1  #important for SAPT in psi4, default
}

set PROPERTIES_ORIGIN ["COM"]
properties('MP2/aug-cc-pvtz', properties = ['dipole'])
--------------------------------------------------------------------------

    Molecular point group: c1
  Charge       = 0
  Multiplicity = 1
  Basis Set: AUG-CC-PVTZ
    Blend: AUG-CC-PVTZ
  Basis Set: (AUG-CC-PVTZ AUX)
    Blend: AUG-CC-PVTZ-JKFIT

    Orbital Energies [Eh]
    ---------------------

    Doubly Occupied:

       1A    -26.296970     2A    -15.621019     3A    -11.305111
       4A    -11.272822     5A    -11.258584     6A    -11.228741
       7A     -1.608089     8A     -1.303708     9A     -1.056870
      10A     -0.991451    11A     -0.818470    12A     -0.799069
      13A     -0.754447    14A     -0.680363    15A     -0.678193
      16A     -0.648851    17A     -0.599678    18A     -0.586186
      19A     -0.575430    20A     -0.533298    21A     -0.358140
      22A     -0.307351

  @DF-RHF Final Energy:  -307.76585312994763

   => Energetics <=

    Nuclear Repulsion Energy =            220.0490926681394512
    One-Electron Energy =                -857.0642091592339966
    Two-Electron Energy =                 329.2492633611469159
    Total Energy =                       -307.7658531299476294
  Basis Set: (AUG-CC-PVTZ AUX)
    Blend: AUG-CC-PVTZ-RI
    Molecular point group: c1

    Geometry (in Angstrom), charge = 0, multiplicity = 1:

       Center              X                  Y                   Z               Mass
    ------------   -----------------  -----------------  -----------------  -----------------
         F           -1.995512555662    -0.121434077029    -0.000082398831    18.998403162730
         N            1.443368644338    -0.617985777029     0.000056801169    14.003074004430
         C            0.149713644338    -1.087148777029     0.000010801169    12.000000000000
         C           -0.651842355662     0.036566222971    -0.000026198831    12.000000000000
         C            0.149077644338     1.196390222971     0.000005801169    12.000000000000
         C            1.460910644338     0.752578222971     0.000058801169    12.000000000000
         H           -0.093218355662    -2.138582777029     0.000001801169     1.007825032230
         H            2.264754644338    -1.206608777029     0.000088801169     1.007825032230
         H           -0.191512355662     2.221861222971    -0.000007198831     1.007825032230
         H            2.391408644338     1.302055222971     0.000094801169     1.007825032230

  Basis Set: AUG-CC-PVTZ
    Blend: AUG-CC-PVTZ
  Basis Set: (AUG-CC-PVTZ AUX)
    Blend: AUG-CC-PVTZ-JKFIT
	 Reference Energy          =    -307.7658531299476294 [Eh]
	 Singles Energy            =      -0.0000000000000000 [Eh]
	 Same-Spin Energy          =      -0.3027177499796513 [Eh]
	 Opposite-Spin Energy      =      -0.9119231416640803 [Eh]
	 Correlation Energy        =      -1.2146408916437315 [Eh]
	 Total Energy              =    -308.9804940215913689 [Eh]

	 ================> DF-SCS-MP2 Energies <==================
	-----------------------------------------------------------
	 SCS Same-Spin Scale       =       0.3333333333333333 [-]
	 SCS Opposite-Spin Scale   =       1.2000000000000000 [-]
	 SCS Same-Spin Energy      =      -0.1009059166598838 [Eh]
	 SCS Opposite-Spin Energy  =      -1.0943077699968964 [Eh]
	 SCS Correlation Energy    =      -1.1952136866567802 [Eh]
	 SCS Total Energy          =    -308.9610668166043865 [Eh]
	-----------------------------------------------------------

  Dipole Moment: [D]
     X:     3.0847      Y:    -0.8661      Z:     0.0001     Total:     3.2039

*** Psi4 exiting successfully. Buy a developer a beer!
