                               Psi4 1.3.2 release

  ==> Input File <==

--------------------------------------------------------------------------
#psi4
#
memory 32 gb

molecule  {
0 1
  F       -2.0702118    -0.1067647    -0.0000857
  N        1.3733650    -0.6503060     0.0000540
  C        0.0797100    -1.1194690     0.0000080
  C       -0.7218460     0.0042460    -0.0000290
  C        0.0790740     1.1640700     0.0000030
  C        1.3909070     0.7202580     0.0000560
  H       -0.1632220    -2.1709030    -0.0000010
  H        2.1947510    -1.2389290     0.0000860
  H       -0.2615160     2.1895410    -0.0000100
  H        2.3214050     1.2697350     0.0000920
units angstrom
no_reorient  #important for SAPT in psi4, default
symmetry c1  #important for SAPT in psi4, default
}

set PROPERTIES_ORIGIN ["COM"]
properties('MP2/aug-cc-pvtz', properties = ['dipole'])
--------------------------------------------------------------------------

    Molecular point group: c1
  Charge       = 0
  Multiplicity = 1
  Basis Set: AUG-CC-PVTZ
    Blend: AUG-CC-PVTZ
  Basis Set: (AUG-CC-PVTZ AUX)
    Blend: AUG-CC-PVTZ-JKFIT

    Orbital Energies [Eh]
    ---------------------

    Doubly Occupied:

       1A    -26.297382     2A    -15.621148     3A    -11.305392
       4A    -11.272719     5A    -11.259716     6A    -11.227575
       7A     -1.608234     8A     -1.303916     9A     -1.056769
      10A     -0.991538    11A     -0.819187    12A     -0.798456
      13A     -0.754281    14A     -0.680457    15A     -0.678337
      16A     -0.650016    17A     -0.599698    18A     -0.585939
      19A     -0.575688    20A     -0.533361    21A     -0.357803
      22A     -0.307918

  @DF-RHF Final Energy:  -307.76716412011075

   => Energetics <=

    Nuclear Repulsion Energy =            219.9958005041073363
    One-Electron Energy =                -856.9548719495164733
    Two-Electron Energy =                 329.1919073252983594
    Total Energy =                       -307.7671641201107491
  Basis Set: (AUG-CC-PVTZ AUX)
    Blend: AUG-CC-PVTZ-RI
    Molecular point group: c1

    Geometry (in Angstrom), charge = 0, multiplicity = 1:

       Center              X                  Y                   Z               Mass
    ------------   -----------------  -----------------  -----------------  -----------------
         F           -1.999159043722    -0.084943103484    -0.000082787119    18.998403162730
         N            1.444417756278    -0.628484403484     0.000056912881    14.003074004430
         C            0.150762756278    -1.097647403484     0.000010912881    12.000000000000
         C           -0.650793243722     0.026067596516    -0.000026087119    12.000000000000
         C            0.150126756278     1.185891596516     0.000005912881    12.000000000000
         C            1.461959756278     0.742079596516     0.000058912881    12.000000000000
         H           -0.092169243722    -2.149081403484     0.000001912881     1.007825032230
         H            2.265803756278    -1.217107403484     0.000088912881     1.007825032230
         H           -0.190463243722     2.211362596516    -0.000007087119     1.007825032230
         H            2.392457756278     1.291556596516     0.000094912881     1.007825032230

  Basis Set: AUG-CC-PVTZ
    Blend: AUG-CC-PVTZ
  Basis Set: (AUG-CC-PVTZ AUX)
    Blend: AUG-CC-PVTZ-JKFIT
	 Reference Energy          =    -307.7671641201107491 [Eh]
	 Singles Energy            =      -0.0000000000000000 [Eh]
	 Same-Spin Energy          =      -0.3026248155720687 [Eh]
	 Opposite-Spin Energy      =      -0.9117768395543835 [Eh]
	 Correlation Energy        =      -1.2144016551264523 [Eh]
	 Total Energy              =    -308.9815657752371862 [Eh]

	 ================> DF-SCS-MP2 Energies <==================
	-----------------------------------------------------------
	 SCS Same-Spin Scale       =       0.3333333333333333 [-]
	 SCS Opposite-Spin Scale   =       1.2000000000000000 [-]
	 SCS Same-Spin Energy      =      -0.1008749385240229 [Eh]
	 SCS Opposite-Spin Energy  =      -1.0941322074652602 [Eh]
	 SCS Correlation Energy    =      -1.1950071459892830 [Eh]
	 SCS Total Energy          =    -308.9621712661000288 [Eh]
	-----------------------------------------------------------

  Dipole Moment: [D]
     X:     3.0880      Y:    -0.9083      Z:     0.0001     Total:     3.2188

*** Psi4 exiting successfully. Buy a developer a beer!
