                               Psi4 1.3.2 release

  ==> Input File <==

--------------------------------------------------------------------------
#psi4
#
memory 32 gb

molecule  {
0 1
  F       -2.0746710    -0.0124370    -0.0000860
  N        1.3733650    -0.6503060     0.0000540
  C        0.0797100    -1.1194690     0.0000080
  C       -0.8218384     0.0030129    -0.0000332
  C        0.0790740     1.1640700     0.0000030
  C        1.3909070     0.7202580     0.0000560
  H       -0.1632220    -2.1709030    -0.0000010
  H        2.1947510    -1.2389290     0.0000860
  H       -0.2615160     2.1895410    -0.0000100
  H        2.3214050     1.2697350     0.0000920
units angstrom
no_reorient  #important for SAPT in psi4, default
symmetry c1  #important for SAPT in psi4, default
}

set PROPERTIES_ORIGIN ["COM"]
properties('MP2/aug-cc-pvtz', properties = ['dipole'])
--------------------------------------------------------------------------

    Molecular point group: c1
  Charge       = 0
  Multiplicity = 1
  Basis Set: AUG-CC-PVTZ
    Blend: AUG-CC-PVTZ
  Basis Set: (AUG-CC-PVTZ AUX)
    Blend: AUG-CC-PVTZ-JKFIT

    Orbital Energies [Eh]
    ---------------------

    Doubly Occupied:

       1A    -26.325638     2A    -15.617727     3A    -11.317161
       4A    -11.268248     5A    -11.262041     6A    -11.225512
       7A     -1.674666     8A     -1.292850     9A     -1.039338
      10A     -0.981560    11A     -0.843202    12A     -0.807749
      13A     -0.748687    14A     -0.722790    15A     -0.706090
      16A     -0.673868    17A     -0.592170    18A     -0.580358
      19A     -0.567653    20A     -0.502249    21A     -0.342884
      22A     -0.297573

  @DF-RHF Final Energy:  -307.75436585729585

   => Energetics <=

    Nuclear Repulsion Energy =            219.6523586511339943
    One-Electron Energy =                -856.0334207570037961
    Two-Electron Energy =                 328.6266962485739214
    Total Energy =                       -307.7543658572958520
  Basis Set: (AUG-CC-PVTZ AUX)
    Blend: AUG-CC-PVTZ-RI
    Molecular point group: c1

    Geometry (in Angstrom), charge = 0, multiplicity = 1:

       Center              X                  Y                   Z               Mass
    ------------   -----------------  -----------------  -----------------  -----------------
         F           -1.988510816678    -0.011516502220    -0.000082427379    18.998403162730
         N            1.459525183322    -0.649385502220     0.000057572621    14.003074004430
         C            0.165870183322    -1.118548502220     0.000011572621    12.000000000000
         C           -0.735678216678     0.003933397780    -0.000029627379    12.000000000000
         C            0.165234183322     1.164990497780     0.000006572621    12.000000000000
         C            1.477067183322     0.721178497780     0.000059572621    12.000000000000
         H           -0.077061816678    -2.169982502220     0.000002572621     1.007825032230
         H            2.280911183322    -1.238008502220     0.000089572621     1.007825032230
         H           -0.175355816678     2.190461497780    -0.000006427379     1.007825032230
         H            2.407565183322     1.270655497780     0.000095572621     1.007825032230

  Basis Set: AUG-CC-PVTZ
    Blend: AUG-CC-PVTZ
  Basis Set: (AUG-CC-PVTZ AUX)
    Blend: AUG-CC-PVTZ-JKFIT
	 Reference Energy          =    -307.7543658572958520 [Eh]
	 Singles Energy            =      -0.0000000000000000 [Eh]
	 Same-Spin Energy          =      -0.3026062513474420 [Eh]
	 Opposite-Spin Energy      =      -0.9109757506676481 [Eh]
	 Correlation Energy        =      -1.2135820020150900 [Eh]
	 Total Energy              =    -308.9679478593109252 [Eh]

	 ================> DF-SCS-MP2 Energies <==================
	-----------------------------------------------------------
	 SCS Same-Spin Scale       =       0.3333333333333333 [-]
	 SCS Opposite-Spin Scale   =       1.2000000000000000 [-]
	 SCS Same-Spin Energy      =      -0.1008687504491473 [Eh]
	 SCS Opposite-Spin Energy  =      -1.0931709008011776 [Eh]
	 SCS Correlation Energy    =      -1.1940396512503249 [Eh]
	 SCS Total Energy          =    -308.9484055085461591 [Eh]
	-----------------------------------------------------------

  Dipole Moment: [D]
     X:     2.4467      Y:    -0.9951      Z:     0.0001     Total:     2.6413

*** Psi4 exiting successfully. Buy a developer a beer!
