                               Psi4 1.4a3.dev225

  ==> Input File <==

--------------------------------------------------------------------------
#psi4
#
memory 32 gb

molecule  {
0 1
  F       -2.0746710    -0.0124370    -0.0000860
  N        1.3733650    -0.6503060     0.0000540
  C        0.0797100    -1.1194690     0.0000080
  C       -0.6718498     0.0048626    -0.0000269
  C        0.0790740     1.1640700     0.0000030
  C        1.3909070     0.7202580     0.0000560
  H       -0.1632220    -2.1709030    -0.0000010
  H        2.1947510    -1.2389290     0.0000860
  H       -0.2615160     2.1895410    -0.0000100
  H        2.3214050     1.2697350     0.0000920
units angstrom
no_reorient  #important for SAPT in psi4, default
symmetry c1  #important for SAPT in psi4, default
}

set PROPERTIES_ORIGIN ["COM"]
properties('MP2/aug-cc-pvtz', properties = ['dipole'])
--------------------------------------------------------------------------

    Molecular point group: c1
  Charge       = 0
  Multiplicity = 1
  Basis Set: AUG-CC-PVTZ
    Blend: AUG-CC-PVTZ
  Basis Set: (AUG-CC-PVTZ AUX)
    Blend: AUG-CC-PVTZ-JKFIT

    Orbital Energies [Eh]
    ---------------------

    Doubly Occupied:

       1A    -26.284719     2A    -15.623010     3A    -11.302046
       4A    -11.274762     5A    -11.261487     6A    -11.225055
       7A     -1.580697     8A     -1.310849     9A     -1.065157
      10A     -0.997434    11A     -0.821664    12A     -0.787043
      13A     -0.756945    14A     -0.664596    15A     -0.663077
      16A     -0.638468    17A     -0.603463    18A     -0.589039
      19A     -0.580159    20A     -0.543861    21A     -0.364439
      22A     -0.313827

  @DF-RHF Final Energy:  -307.76398239553936

   => Energetics <=

    Nuclear Repulsion Energy =            220.2066007701817227
    One-Electron Energy =                -857.4375725025311112
    Two-Electron Energy =                 329.4669893368100588
    Total Energy =                       -307.7639823955393581
  Basis Set: (AUG-CC-PVTZ AUX)
    Blend: AUG-CC-PVTZ-RI
    Molecular point group: c1

    Geometry (in Angstrom), charge = 0, multiplicity = 1:

       Center              X                  Y                   Z               Mass
    ------------   -----------------  -----------------  -----------------  -----------------
         F           -2.009677515653    -0.011777535679    -0.000083316448    18.998403162730
         N            1.438358484347    -0.649646535679     0.000056683552    14.003074004430
         C            0.144703484347    -1.118809535679     0.000010683552    12.000000000000
         C           -0.606856315653     0.005522064321    -0.000024216448    12.000000000000
         C            0.144067484347     1.164729464321     0.000005683552    12.000000000000
         C            1.455900484347     0.720917464321     0.000058683552    12.000000000000
         H           -0.098228515653    -2.170243535679     0.000001683552     1.007825032230
         H            2.259744484347    -1.238269535679     0.000088683552     1.007825032230
         H           -0.196522515653     2.190200464321    -0.000007316448     1.007825032230
         H            2.386398484347     1.270394464321     0.000094683552     1.007825032230

  Basis Set: AUG-CC-PVTZ
    Blend: AUG-CC-PVTZ
  Basis Set: (AUG-CC-PVTZ AUX)
    Blend: AUG-CC-PVTZ-JKFIT
	 Reference Energy          =    -307.7639823955393581 [Eh]
	 Singles Energy            =      -0.0000000000000000 [Eh]
	 Same-Spin Energy          =      -0.3027126964880925 [Eh]
	 Opposite-Spin Energy      =      -0.9123228904170443 [Eh]
	 Correlation Energy        =      -1.2150355869051368 [Eh]
	 Total Energy              =    -308.9790179824444749 [Eh]

	 ================> DF-SCS-MP2 Energies <==================
	-----------------------------------------------------------
	 SCS Same-Spin Scale       =       0.3333333333333333 [-]
	 SCS Opposite-Spin Scale   =       1.2000000000000000 [-]
	 SCS Same-Spin Energy      =      -0.1009042321626975 [Eh]
	 SCS Opposite-Spin Energy  =      -1.0947874685004531 [Eh]
	 SCS Correlation Energy    =      -1.1956917006631504 [Eh]
	 SCS Total Energy          =    -308.9596740962024910 [Eh]
	-----------------------------------------------------------

  Dipole Moment: [D]
     X:     3.3812      Y:    -0.9883      Z:     0.0001     Total:     3.5226

*** Psi4 exiting successfully. Buy a developer a beer!
