                               Psi4 1.3.2 release

  ==> Input File <==

--------------------------------------------------------------------------
#psi4
#
memory 32 gb

molecule  {
0 1
  F       -2.0746710    -0.0124370    -0.0000860
  N        1.3733650    -0.6503060     0.0000540
  C        0.0797100    -1.1194690     0.0000080
  C       -0.5218612     0.0067122    -0.0000206
  C        0.0790740     1.1640700     0.0000030
  C        1.3909070     0.7202580     0.0000560
  H       -0.1632220    -2.1709030    -0.0000010
  H        2.1947510    -1.2389290     0.0000860
  H       -0.2615160     2.1895410    -0.0000100
  H        2.3214050     1.2697350     0.0000920
units angstrom
no_reorient  #important for SAPT in psi4, default
symmetry c1  #important for SAPT in psi4, default
}

set PROPERTIES_ORIGIN ["COM"]
properties('MP2/aug-cc-pvtz', properties = ['dipole'])
--------------------------------------------------------------------------

    Molecular point group: c1
  Charge       = 0
  Multiplicity = 1
  Basis Set: AUG-CC-PVTZ
    Blend: AUG-CC-PVTZ
  Basis Set: (AUG-CC-PVTZ AUX)
    Blend: AUG-CC-PVTZ-JKFIT

    Orbital Energies [Eh]
    ---------------------

    Doubly Occupied:

       1A    -26.241359     2A    -15.629200     3A    -11.297150
       4A    -11.284121     5A    -11.260423     6A    -11.226479
       7A     -1.509340     8A     -1.336246     9A     -1.090389
      10A     -1.018457    11A     -0.835445    12A     -0.776445
      13A     -0.756542    14A     -0.638595    15A     -0.630282
      16A     -0.621245    17A     -0.611975    18A     -0.580562
      19A     -0.574838    20A     -0.548786    21A     -0.386315
      22A     -0.327666

  @DF-RHF Final Energy:  -307.71378245770734

   => Energetics <=

    Nuclear Repulsion Energy =            221.3493575017822934
    One-Electron Energy =                -859.7625606038230899
    Two-Electron Energy =                 330.6994206443334861
    Total Energy =                       -307.7137824577073388
  Basis Set: (AUG-CC-PVTZ AUX)
    Blend: AUG-CC-PVTZ-RI
    Molecular point group: c1

    Geometry (in Angstrom), charge = 0, multiplicity = 1:

       Center              X                  Y                   Z               Mass
    ------------   -----------------  -----------------  -----------------  -----------------
         F           -2.030844214627    -0.012038555026    -0.000084205517    18.998403162730
         N            1.417191785373    -0.649907555026     0.000055794483    14.003074004430
         C            0.123536785373    -1.119070555026     0.000009794483    12.000000000000
         C           -0.478034414627     0.007110644974    -0.000018805517    12.000000000000
         C            0.122900785373     1.164468444974     0.000004794483    12.000000000000
         C            1.434733785373     0.720656444974     0.000057794483    12.000000000000
         H           -0.119395214627    -2.170504555026     0.000000794483     1.007825032230
         H            2.238577785373    -1.238530555026     0.000087794483     1.007825032230
         H           -0.217689214627     2.189939444974    -0.000008205517     1.007825032230
         H            2.365231785373     1.270133444974     0.000093794483     1.007825032230

  Basis Set: AUG-CC-PVTZ
    Blend: AUG-CC-PVTZ
  Basis Set: (AUG-CC-PVTZ AUX)
    Blend: AUG-CC-PVTZ-JKFIT
	 Reference Energy          =    -307.7137824577073388 [Eh]
	 Singles Energy            =      -0.0000000000000000 [Eh]
	 Same-Spin Energy          =      -0.3044261205099246 [Eh]
	 Opposite-Spin Energy      =      -0.9157994014398949 [Eh]
	 Correlation Energy        =      -1.2202255219498195 [Eh]
	 Total Energy              =    -308.9340079796571672 [Eh]

	 ================> DF-SCS-MP2 Energies <==================
	-----------------------------------------------------------
	 SCS Same-Spin Scale       =       0.3333333333333333 [-]
	 SCS Opposite-Spin Scale   =       1.2000000000000000 [-]
	 SCS Same-Spin Energy      =      -0.1014753735033082 [Eh]
	 SCS Opposite-Spin Energy  =      -1.0989592817278739 [Eh]
	 SCS Correlation Energy    =      -1.2004346552311822 [Eh]
	 SCS Total Energy          =    -308.9142171129385019 [Eh]
	-----------------------------------------------------------

  Dipole Moment: [D]
     X:     4.2657      Y:    -0.9520      Z:     0.0002     Total:     4.3706

*** Psi4 exiting successfully. Buy a developer a beer!
