                               Psi4 1.3.2 release

  ==> Input File <==

--------------------------------------------------------------------------
#psi4
#
memory 32 gb

molecule  {
0 1
  F       -2.0732647    -0.0596397    -0.0000858
  N        1.3733650    -0.6503060     0.0000540
  C        0.0797100    -1.1194690     0.0000080
  C       -0.7218460     0.0042460    -0.0000290
  C        0.0790740     1.1640700     0.0000030
  C        1.3909070     0.7202580     0.0000560
  H       -0.1632220    -2.1709030    -0.0000010
  H        2.1947510    -1.2389290     0.0000860
  H       -0.2615160     2.1895410    -0.0000100
  H        2.3214050     1.2697350     0.0000920
units angstrom
no_reorient  #important for SAPT in psi4, default
symmetry c1  #important for SAPT in psi4, default
}

set PROPERTIES_ORIGIN ["COM"]
properties('MP2/aug-cc-pvtz', properties = ['dipole'])
--------------------------------------------------------------------------

    Molecular point group: c1
  Charge       = 0
  Multiplicity = 1
  Basis Set: AUG-CC-PVTZ
    Blend: AUG-CC-PVTZ
  Basis Set: (AUG-CC-PVTZ AUX)
    Blend: AUG-CC-PVTZ-JKFIT

    Orbital Energies [Eh]
    ---------------------

    Doubly Occupied:

       1A    -26.297740     2A    -15.621245     3A    -11.305663
       4A    -11.272574     5A    -11.260847     6A    -11.226390
       7A     -1.608400     8A     -1.304096     9A     -1.056645
      10A     -0.991609    11A     -0.819949    12A     -0.797795
      13A     -0.754104    14A     -0.680566    15A     -0.678454
      16A     -0.651134    17A     -0.599704    18A     -0.585660
      19A     -0.575911    20A     -0.533195    21A     -0.357442
      22A     -0.308455

  @DF-RHF Final Energy:  -307.76799182330342

   => Energetics <=

    Nuclear Repulsion Energy =            219.9613503428149670
    One-Electron Energy =                -856.8835314423668024
    Two-Electron Energy =                 329.1541892762484167
    Total Energy =                       -307.7679918233034186
  Basis Set: (AUG-CC-PVTZ AUX)
    Blend: AUG-CC-PVTZ-RI
    Molecular point group: c1

    Geometry (in Angstrom), charge = 0, multiplicity = 1:

       Center              X                  Y                   Z               Mass
    ------------   -----------------  -----------------  -----------------  -----------------
         F           -2.001529851159    -0.048346981612    -0.000082864776    18.998403162730
         N            1.445099848841    -0.639013281612     0.000056935224    14.003074004430
         C            0.151444848841    -1.108176281612     0.000010935224    12.000000000000
         C           -0.650111151159     0.015538718388    -0.000026064776    12.000000000000
         C            0.150808848841     1.175362718388     0.000005935224    12.000000000000
         C            1.462641848841     0.731550718388     0.000058935224    12.000000000000
         H           -0.091487151159    -2.159610281612     0.000001935224     1.007825032230
         H            2.266485848841    -1.227636281612     0.000088935224     1.007825032230
         H           -0.189781151159     2.200833718388    -0.000007064776     1.007825032230
         H            2.393139848841     1.281027718388     0.000094935224     1.007825032230

  Basis Set: AUG-CC-PVTZ
    Blend: AUG-CC-PVTZ
  Basis Set: (AUG-CC-PVTZ AUX)
    Blend: AUG-CC-PVTZ-JKFIT
	 Reference Energy          =    -307.7679918233034186 [Eh]
	 Singles Energy            =      -0.0000000000000000 [Eh]
	 Same-Spin Energy          =      -0.3025486487633903 [Eh]
	 Opposite-Spin Energy      =      -0.9116623105853194 [Eh]
	 Correlation Energy        =      -1.2142109593487098 [Eh]
	 Total Energy              =    -308.9822027826521094 [Eh]

	 ================> DF-SCS-MP2 Energies <==================
	-----------------------------------------------------------
	 SCS Same-Spin Scale       =       0.3333333333333333 [-]
	 SCS Opposite-Spin Scale   =       1.2000000000000000 [-]
	 SCS Same-Spin Energy      =      -0.1008495495877968 [Eh]
	 SCS Opposite-Spin Energy  =      -1.0939947727023833 [Eh]
	 SCS Correlation Energy    =      -1.1948443222901801 [Eh]
	 SCS Total Energy          =    -308.9628361455935988 [Eh]
	-----------------------------------------------------------

  Dipole Moment: [D]
     X:     3.0887      Y:    -0.9507      Z:     0.0001     Total:     3.2317

*** Psi4 exiting successfully. Buy a developer a beer!
