                               Psi4 1.4a3.dev225

  ==> Input File <==

--------------------------------------------------------------------------
#psi4
#
memory 32 gb

molecule  {
0 1
  F       -2.0746710    -0.0124370    -0.0000860
  N        1.3733650    -0.6503060     0.0000540
  C        0.0797100    -1.1194690     0.0000080
  C       -0.7718422     0.0036294    -0.0000311
  C        0.0790740     1.1640700     0.0000030
  C        1.3909070     0.7202580     0.0000560
  H       -0.1632220    -2.1709030    -0.0000010
  H        2.1947510    -1.2389290     0.0000860
  H       -0.2615160     2.1895410    -0.0000100
  H        2.3214050     1.2697350     0.0000920
units angstrom
no_reorient  #important for SAPT in psi4, default
symmetry c1  #important for SAPT in psi4, default
}

set PROPERTIES_ORIGIN ["COM"]
properties('MP2/aug-cc-pvtz', properties = ['dipole'])
--------------------------------------------------------------------------

    Molecular point group: c1
  Charge       = 0
  Multiplicity = 1
  Basis Set: AUG-CC-PVTZ
    Blend: AUG-CC-PVTZ
  Basis Set: (AUG-CC-PVTZ AUX)
    Blend: AUG-CC-PVTZ-JKFIT

    Orbital Energies [Eh]
    ---------------------

    Doubly Occupied:

       1A    -26.311513     2A    -15.619589     3A    -11.310944
       4A    -11.270242     5A    -11.262223     6A    -11.225384
       7A     -1.639661     8A     -1.298304     9A     -1.047833
      10A     -0.986374    11A     -0.827231    12A     -0.804537
      13A     -0.750927    14A     -0.700493    15A     -0.692654
      16A     -0.664266    17A     -0.595985    18A     -0.582587
      19A     -0.571874    20A     -0.518535    21A     -0.349817
      22A     -0.303626

  @DF-RHF Final Energy:  -307.76543154306250

   => Energetics <=

    Nuclear Repulsion Energy =            219.7579962168384213
    One-Electron Energy =                -856.3776609887254381
    Two-Electron Energy =                 328.8542332288245689
    Total Energy =                       -307.7654315430625047
  Basis Set: (AUG-CC-PVTZ AUX)
    Blend: AUG-CC-PVTZ-RI
    Molecular point group: c1

    Geometry (in Angstrom), charge = 0, multiplicity = 1:

       Center              X                  Y                   Z               Mass
    ------------   -----------------  -----------------  -----------------  -----------------
         F           -1.995566383003    -0.011603503964    -0.000082723735    18.998403162730
         N            1.452469616997    -0.649472503964     0.000057276265    14.003074004430
         C            0.158814616997    -1.118635503964     0.000011276265    12.000000000000
         C           -0.692737583003     0.004462896036    -0.000027823735    12.000000000000
         C            0.158178616997     1.164903496036     0.000006276265    12.000000000000
         C            1.470011616997     0.721091496036     0.000059276265    12.000000000000
         H           -0.084117383003    -2.170069503964     0.000002276265     1.007825032230
         H            2.273855616997    -1.238095503964     0.000089276265     1.007825032230
         H           -0.182411383003     2.190374496036    -0.000006723735     1.007825032230
         H            2.400509616997     1.270568496036     0.000095276265     1.007825032230

  Basis Set: AUG-CC-PVTZ
    Blend: AUG-CC-PVTZ
  Basis Set: (AUG-CC-PVTZ AUX)
    Blend: AUG-CC-PVTZ-JKFIT
	 Reference Energy          =    -307.7654315430625047 [Eh]
	 Singles Energy            =      -0.0000000000000000 [Eh]
	 Same-Spin Energy          =      -0.3024543710504383 [Eh]
	 Opposite-Spin Energy      =      -0.9111191075288829 [Eh]
	 Correlation Energy        =      -1.2135734785793213 [Eh]
	 Total Energy              =    -308.9790050216418535 [Eh]

	 ================> DF-SCS-MP2 Energies <==================
	-----------------------------------------------------------
	 SCS Same-Spin Scale       =       0.3333333333333333 [-]
	 SCS Opposite-Spin Scale   =       1.2000000000000000 [-]
	 SCS Same-Spin Energy      =      -0.1008181236834794 [Eh]
	 SCS Opposite-Spin Energy  =      -1.0933429290346595 [Eh]
	 SCS Correlation Energy    =      -1.1941610527181388 [Eh]
	 SCS Total Energy          =    -308.9595925957806344 [Eh]
	-----------------------------------------------------------

  Dipole Moment: [D]
     X:     2.7778      Y:    -0.9955      Z:     0.0001     Total:     2.9508

*** Psi4 exiting successfully. Buy a developer a beer!
