                               Psi4 1.3.2 release

  ==> Input File <==

--------------------------------------------------------------------------
#psi4
#
memory 32 gb

molecule  {
0 1
  F       -2.0744291     0.0347861    -0.0000861
  N        1.3733650    -0.6503060     0.0000540
  C        0.0797100    -1.1194690     0.0000080
  C       -0.7218460     0.0042460    -0.0000290
  C        0.0790740     1.1640700     0.0000030
  C        1.3909070     0.7202580     0.0000560
  H       -0.1632220    -2.1709030    -0.0000010
  H        2.1947510    -1.2389290     0.0000860
  H       -0.2615160     2.1895410    -0.0000100
  H        2.3214050     1.2697350     0.0000920
units angstrom
no_reorient  #important for SAPT in psi4, default
symmetry c1  #important for SAPT in psi4, default
}

set PROPERTIES_ORIGIN ["COM"]
properties('MP2/aug-cc-pvtz', properties = ['dipole'])
--------------------------------------------------------------------------

    Molecular point group: c1
  Charge       = 0
  Multiplicity = 1
  Basis Set: AUG-CC-PVTZ
    Blend: AUG-CC-PVTZ
  Basis Set: (AUG-CC-PVTZ AUX)
    Blend: AUG-CC-PVTZ-JKFIT

    Orbital Energies [Eh]
    ---------------------

    Doubly Occupied:

       1A    -26.298287     2A    -15.621347     3A    -11.306174
       4A    -11.272160     5A    -11.263098     6A    -11.223964
       7A     -1.608789     8A     -1.304367     9A     -1.056331
      10A     -0.991704    11A     -0.821578    12A     -0.796368
      13A     -0.753711    14A     -0.680820    15A     -0.678590
      16A     -0.653226    17A     -0.599671    18A     -0.585021
      19A     -0.576259    20A     -0.532181    21A     -0.356647
      22A     -0.309441

  @DF-RHF Final Energy:  -307.76821202852699

   => Energetics <=

    Nuclear Repulsion Energy =            219.9487178568338379
    One-Electron Energy =                -856.8543937395972989
    Two-Electron Energy =                 329.1374638542365005
    Total Energy =                       -307.7682120285269889
  Basis Set: (AUG-CC-PVTZ AUX)
    Blend: AUG-CC-PVTZ-RI
    Molecular point group: c1

    Geometry (in Angstrom), charge = 0, multiplicity = 1:

       Center              X                  Y                   Z               Mass
    ------------   -----------------  -----------------  -----------------  -----------------
         F           -2.002434095707     0.024981784110    -0.000083097749    18.998403162730
         N            1.445360004293    -0.660110315890     0.000057002251    14.003074004430
         C            0.151705004293    -1.129273315890     0.000011002251    12.000000000000
         C           -0.649850995707    -0.005558315890    -0.000025997749    12.000000000000
         C            0.151069004293     1.154265684110     0.000006002251    12.000000000000
         C            1.462902004293     0.710453684110     0.000059002251    12.000000000000
         H           -0.091226995707    -2.180707315890     0.000002002251     1.007825032230
         H            2.266746004293    -1.248733315890     0.000089002251     1.007825032230
         H           -0.189520995707     2.179736684110    -0.000006997749     1.007825032230
         H            2.393400004293     1.259930684110     0.000095002251     1.007825032230

  Basis Set: AUG-CC-PVTZ
    Blend: AUG-CC-PVTZ
  Basis Set: (AUG-CC-PVTZ AUX)
    Blend: AUG-CC-PVTZ-JKFIT
	 Reference Energy          =    -307.7682120285269889 [Eh]
	 Singles Energy            =      -0.0000000000000000 [Eh]
	 Same-Spin Energy          =      -0.3024458921865251 [Eh]
	 Opposite-Spin Energy      =      -0.9115283191671475 [Eh]
	 Correlation Energy        =      -1.2139742113536727 [Eh]
	 Total Energy              =    -308.9821862398806616 [Eh]

	 ================> DF-SCS-MP2 Energies <==================
	-----------------------------------------------------------
	 SCS Same-Spin Scale       =       0.3333333333333333 [-]
	 SCS Opposite-Spin Scale   =       1.2000000000000000 [-]
	 SCS Same-Spin Energy      =      -0.1008152973955083 [Eh]
	 SCS Opposite-Spin Energy  =      -1.0938339830005770 [Eh]
	 SCS Correlation Energy    =      -1.1946492803960853 [Eh]
	 SCS Total Energy          =    -308.9628613089230953 [Eh]
	-----------------------------------------------------------

  Dipole Moment: [D]
     X:     3.0818      Y:    -1.0361      Z:     0.0001     Total:     3.2513

*** Psi4 exiting successfully. Buy a developer a beer!
