                               Psi4 1.4a3.dev225

  ==> Input File <==

--------------------------------------------------------------------------
#psi4
#
memory 32 gb

molecule  {
0 1
  F       -2.0746710    -0.0124370    -0.0000860
  N        1.3733650    -0.6503060     0.0000540
  C        0.0797100    -1.1194690     0.0000080
  C       -0.7018475     0.0044926    -0.0000282
  C        0.0790740     1.1640700     0.0000030
  C        1.3909070     0.7202580     0.0000560
  H       -0.1632220    -2.1709030    -0.0000010
  H        2.1947510    -1.2389290     0.0000860
  H       -0.2615160     2.1895410    -0.0000100
  H        2.3214050     1.2697350     0.0000920
units angstrom
no_reorient  #important for SAPT in psi4, default
symmetry c1  #important for SAPT in psi4, default
}

set PROPERTIES_ORIGIN ["COM"]
properties('MP2/aug-cc-pvtz', properties = ['dipole'])
--------------------------------------------------------------------------

    Molecular point group: c1
  Charge       = 0
  Multiplicity = 1
  Basis Set: AUG-CC-PVTZ
    Blend: AUG-CC-PVTZ
  Basis Set: (AUG-CC-PVTZ AUX)
    Blend: AUG-CC-PVTZ-JKFIT

    Orbital Energies [Eh]
    ---------------------

    Doubly Occupied:

       1A    -26.292721     2A    -15.621987     3A    -11.304237
       4A    -11.273305     5A    -11.261797     6A    -11.225118
       7A     -1.597089     8A     -1.306798     9A     -1.059971
      10A     -0.993911    11A     -0.820590    12A     -0.793042
      13A     -0.755155    14A     -0.673385    15A     -0.672905
      16A     -0.646847    17A     -0.601182    18A     -0.586714
      19A     -0.577764    20A     -0.537689    21A     -0.360001
      22A     -0.310952

  @DF-RHF Final Energy:  -307.76742716127882

   => Energetics <=

    Nuclear Repulsion Energy =            220.0417192957251871
    One-Electron Energy =                -857.0719746842436280
    Two-Electron Energy =                 329.2628282272395950
    Total Energy =                       -307.7674271612788175
  Basis Set: (AUG-CC-PVTZ AUX)
    Blend: AUG-CC-PVTZ-RI
    Molecular point group: c1

    Geometry (in Angstrom), charge = 0, multiplicity = 1:

       Center              X                  Y                   Z               Mass
    ------------   -----------------  -----------------  -----------------  -----------------
         F           -2.005444178680    -0.011725320520    -0.000083132989    18.998403162730
         N            1.442591821320    -0.649594320520     0.000056867011    14.003074004430
         C            0.148936821320    -1.118757320520     0.000010867011    12.000000000000
         C           -0.632620678680     0.005204279480    -0.000025332989    12.000000000000
         C            0.148300821320     1.164781679480     0.000005867011    12.000000000000
         C            1.460133821320     0.720969679480     0.000058867011    12.000000000000
         H           -0.093995178680    -2.170191320520     0.000001867011     1.007825032230
         H            2.263977821320    -1.238217320520     0.000088867011     1.007825032230
         H           -0.192289178680     2.190252679480    -0.000007132989     1.007825032230
         H            2.390631821320     1.270446679480     0.000094867011     1.007825032230

  Basis Set: AUG-CC-PVTZ
    Blend: AUG-CC-PVTZ
  Basis Set: (AUG-CC-PVTZ AUX)
    Blend: AUG-CC-PVTZ-JKFIT
	 Reference Energy          =    -307.7674271612788175 [Eh]
	 Singles Energy            =      -0.0000000000000000 [Eh]
	 Same-Spin Energy          =      -0.3025559885610859 [Eh]
	 Opposite-Spin Energy      =      -0.9118450495980912 [Eh]
	 Correlation Energy        =      -1.2144010381591772 [Eh]
	 Total Energy              =    -308.9818281994379845 [Eh]

	 ================> DF-SCS-MP2 Energies <==================
	-----------------------------------------------------------
	 SCS Same-Spin Scale       =       0.3333333333333333 [-]
	 SCS Opposite-Spin Scale   =       1.2000000000000000 [-]
	 SCS Same-Spin Energy      =      -0.1008519961870286 [Eh]
	 SCS Opposite-Spin Energy  =      -1.0942140595177094 [Eh]
	 SCS Correlation Energy    =      -1.1950660557047381 [Eh]
	 SCS Total Energy          =    -308.9624932169835461 [Eh]
	-----------------------------------------------------------

  Dipole Moment: [D]
     X:     3.2057      Y:    -0.9917      Z:     0.0001     Total:     3.3556

*** Psi4 exiting successfully. Buy a developer a beer!
