                               Psi4 1.3.2 release

  ==> Input File <==

--------------------------------------------------------------------------
#psi4
#
memory 32 gb

molecule  {
0 1
  F       -2.0725393     0.0819719    -0.0000861
  N        1.3733650    -0.6503060     0.0000540
  C        0.0797100    -1.1194690     0.0000080
  C       -0.7218460     0.0042460    -0.0000290
  C        0.0790740     1.1640700     0.0000030
  C        1.3909070     0.7202580     0.0000560
  H       -0.1632220    -2.1709030    -0.0000010
  H        2.1947510    -1.2389290     0.0000860
  H       -0.2615160     2.1895410    -0.0000100
  H        2.3214050     1.2697350     0.0000920
units angstrom
no_reorient  #important for SAPT in psi4, default
symmetry c1  #important for SAPT in psi4, default
}

set PROPERTIES_ORIGIN ["COM"]
properties('MP2/aug-cc-pvtz', properties = ['dipole'])
--------------------------------------------------------------------------

    Molecular point group: c1
  Charge       = 0
  Multiplicity = 1
  Basis Set: AUG-CC-PVTZ
    Blend: AUG-CC-PVTZ
  Basis Set: (AUG-CC-PVTZ AUX)
    Blend: AUG-CC-PVTZ-JKFIT

    Orbital Energies [Eh]
    ---------------------

    Doubly Occupied:

       1A    -26.298476     2A    -15.621352     3A    -11.306415
       4A    -11.271891     5A    -11.264217     6A    -11.222725
       7A     -1.609009     8A     -1.304459     9A     -1.056142
      10A     -0.991726    11A     -0.822430    12A     -0.795618
      13A     -0.753491    14A     -0.680965    15A     -0.678603
      16A     -0.654199    17A     -0.599629    18A     -0.584666
      19A     -0.576383    20A     -0.531336    21A     -0.356214
      22A     -0.309890

  @DF-RHF Final Energy:  -307.76760515767512

   => Energetics <=

    Nuclear Repulsion Energy =            219.9705101943027046
    One-Electron Energy =                -856.8965598792332230
    Two-Electron Energy =                 329.1584445272553694
    Total Energy =                       -307.7676051576751206
  Basis Set: (AUG-CC-PVTZ AUX)
    Blend: AUG-CC-PVTZ-RI
    Molecular point group: c1

    Geometry (in Angstrom), charge = 0, multiplicity = 1:

       Center              X                  Y                   Z               Mass
    ------------   -----------------  -----------------  -----------------  -----------------
         F           -2.000966523269     0.061625121774    -0.000083097749    18.998403162730
         N            1.444937776731    -0.670652778226     0.000057002251    14.003074004430
         C            0.151282776731    -1.139815778226     0.000011002251    12.000000000000
         C           -0.650273223269    -0.016100778226    -0.000025997749    12.000000000000
         C            0.150646776731     1.143723221774     0.000006002251    12.000000000000
         C            1.462479776731     0.699911221774     0.000059002251    12.000000000000
         H           -0.091649223269    -2.191249778226     0.000002002251     1.007825032230
         H            2.266323776731    -1.259275778226     0.000089002251     1.007825032230
         H           -0.189943223269     2.169194221774    -0.000006997749     1.007825032230
         H            2.392977776731     1.249388221774     0.000095002251     1.007825032230

  Basis Set: AUG-CC-PVTZ
    Blend: AUG-CC-PVTZ
  Basis Set: (AUG-CC-PVTZ AUX)
    Blend: AUG-CC-PVTZ-JKFIT
	 Reference Energy          =    -307.7676051576751206 [Eh]
	 Singles Energy            =      -0.0000000000000000 [Eh]
	 Same-Spin Energy          =      -0.3024192113469957 [Eh]
	 Opposite-Spin Energy      =      -0.9115086739276845 [Eh]
	 Correlation Energy        =      -1.2139278852746802 [Eh]
	 Total Energy              =    -308.9815330429498204 [Eh]

	 ================> DF-SCS-MP2 Energies <==================
	-----------------------------------------------------------
	 SCS Same-Spin Scale       =       0.3333333333333333 [-]
	 SCS Opposite-Spin Scale   =       1.2000000000000000 [-]
	 SCS Same-Spin Energy      =      -0.1008064037823319 [Eh]
	 SCS Opposite-Spin Energy  =      -1.0938104087132214 [Eh]
	 SCS Correlation Energy    =      -1.1946168124955534 [Eh]
	 SCS Total Energy          =    -308.9622219701706740 [Eh]
	-----------------------------------------------------------

  Dipole Moment: [D]
     X:     3.0744      Y:    -1.0787      Z:     0.0001     Total:     3.2582

*** Psi4 exiting successfully. Buy a developer a beer!
