                               Psi4 1.3.2 release

  ==> Input File <==

--------------------------------------------------------------------------
#psi4
#
memory 32 gb

molecule  {
0 1
  F       -2.0746710    -0.0124370    -0.0000860
  N        1.3733650    -0.6503060     0.0000540
  C        0.0797100    -1.1194690     0.0000080
  C       -0.9218308     0.0017798    -0.0000374
  C        0.0790740     1.1640700     0.0000030
  C        1.3909070     0.7202580     0.0000560
  H       -0.1632220    -2.1709030    -0.0000010
  H        2.1947510    -1.2389290     0.0000860
  H       -0.2615160     2.1895410    -0.0000100
  H        2.3214050     1.2697350     0.0000920
units angstrom
no_reorient  #important for SAPT in psi4, default
symmetry c1  #important for SAPT in psi4, default
}

set PROPERTIES_ORIGIN ["COM"]
properties('MP2/aug-cc-pvtz', properties = ['dipole'])
--------------------------------------------------------------------------

    Molecular point group: c1
  Charge       = 0
  Multiplicity = 1
  Basis Set: AUG-CC-PVTZ
    Blend: AUG-CC-PVTZ
  Basis Set: (AUG-CC-PVTZ AUX)
    Blend: AUG-CC-PVTZ-JKFIT

    Orbital Energies [Eh]
    ---------------------

    Doubly Occupied:

       1A    -26.358067     2A    -15.613179     3A    -11.333627
       4A    -11.264449     5A    -11.259661     6A    -11.225065
       7A     -1.759347     8A     -1.282731     9A     -1.024114
      10A     -0.974817    11A     -0.886431    12A     -0.822815
      13A     -0.777016    14A     -0.751314    15A     -0.721056
      16A     -0.685161    17A     -0.583887    18A     -0.576081
      19A     -0.559251    20A     -0.466257    21A     -0.330491
      22A     -0.282584

  @DF-RHF Final Energy:  -307.70253482703333

   => Energetics <=

    Nuclear Repulsion Energy =            219.7266505022560352
    One-Electron Energy =                -855.7835649105061293
    Two-Electron Energy =                 328.3543795812167900
    Total Energy =                       -307.7025348270333325
  Basis Set: (AUG-CC-PVTZ AUX)
    Blend: AUG-CC-PVTZ-RI
    Molecular point group: c1

    Geometry (in Angstrom), charge = 0, multiplicity = 1:

       Center              X                  Y                   Z               Mass
    ------------   -----------------  -----------------  -----------------  -----------------
         F           -1.974399684028    -0.011342484618    -0.000081834666    18.998403162730
         N            1.473636315972    -0.649211484618     0.000058165334    14.003074004430
         C            0.179981315972    -1.118374484618     0.000012165334    12.000000000000
         C           -0.821559484028     0.002874315382    -0.000033234666    12.000000000000
         C            0.179345315972     1.165164515382     0.000007165334    12.000000000000
         C            1.491178315972     0.721352515382     0.000060165334    12.000000000000
         H           -0.062950684028    -2.169808484618     0.000003165334     1.007825032230
         H            2.295022315972    -1.237834484618     0.000090165334     1.007825032230
         H           -0.161244684028     2.190635515382    -0.000005834666     1.007825032230
         H            2.421676315972     1.270829515382     0.000096165334     1.007825032230

  Basis Set: AUG-CC-PVTZ
    Blend: AUG-CC-PVTZ
  Basis Set: (AUG-CC-PVTZ AUX)
    Blend: AUG-CC-PVTZ-JKFIT
	 Reference Energy          =    -307.7025348270333325 [Eh]
	 Singles Energy            =      -0.0000000000000000 [Eh]
	 Same-Spin Energy          =      -0.3034028987967682 [Eh]
	 Opposite-Spin Energy      =      -0.9116890881956876 [Eh]
	 Correlation Energy        =      -1.2150919869924559 [Eh]
	 Total Energy              =    -308.9176268140257662 [Eh]

	 ================> DF-SCS-MP2 Energies <==================
	-----------------------------------------------------------
	 SCS Same-Spin Scale       =       0.3333333333333333 [-]
	 SCS Opposite-Spin Scale   =       1.2000000000000000 [-]
	 SCS Same-Spin Energy      =      -0.1011342995989227 [Eh]
	 SCS Opposite-Spin Energy  =      -1.0940269058348251 [Eh]
	 SCS Correlation Energy    =      -1.1951612054337479 [Eh]
	 SCS Total Energy          =    -308.8976960324670813 [Eh]
	-----------------------------------------------------------

  Dipole Moment: [D]
     X:     1.6896      Y:    -0.9902      Z:     0.0001     Total:     1.9583

*** Psi4 exiting successfully. Buy a developer a beer!
