                               Psi4 1.3.2 release

  ==> Input File <==

--------------------------------------------------------------------------
#psi4
#
memory 32 gb

molecule  {
0 1
  F       -2.0690039     0.1290631    -0.0000860
  N        1.3733650    -0.6503060     0.0000540
  C        0.0797100    -1.1194690     0.0000080
  C       -0.7218460     0.0042460    -0.0000290
  C        0.0790740     1.1640700     0.0000030
  C        1.3909070     0.7202580     0.0000560
  H       -0.1632220    -2.1709030    -0.0000010
  H        2.1947510    -1.2389290     0.0000860
  H       -0.2615160     2.1895410    -0.0000100
  H        2.3214050     1.2697350     0.0000920
units angstrom
no_reorient  #important for SAPT in psi4, default
symmetry c1  #important for SAPT in psi4, default
}

set PROPERTIES_ORIGIN ["COM"]
properties('MP2/aug-cc-pvtz', properties = ['dipole'])
--------------------------------------------------------------------------

    Molecular point group: c1
  Charge       = 0
  Multiplicity = 1
  Basis Set: AUG-CC-PVTZ
    Blend: AUG-CC-PVTZ
  Basis Set: (AUG-CC-PVTZ AUX)
    Blend: AUG-CC-PVTZ-JKFIT

    Orbital Energies [Eh]
    ---------------------

    Doubly Occupied:

       1A    -26.298609     2A    -15.621328     3A    -11.306645
       4A    -11.271579     5A    -11.265331     6A    -11.221469
       7A     -1.609246     8A     -1.304522     9A     -1.055932
      10A     -0.991729    11A     -0.823301    12A     -0.794857
      13A     -0.753252    14A     -0.681121    15A     -0.678579
      16A     -0.655126    17A     -0.599568    18A     -0.584288
      19A     -0.576474    20A     -0.530265    21A     -0.355757
      22A     -0.310310

  @DF-RHF Final Energy:  -307.76651626106394

   => Energetics <=

    Nuclear Repulsion Energy =            220.0111021379708234
    One-Electron Energy =                -856.9766660325743715
    Two-Electron Energy =                 329.1990476335395783
    Total Energy =                       -307.7665162610639413
  Basis Set: (AUG-CC-PVTZ AUX)
    Blend: AUG-CC-PVTZ-RI
    Molecular point group: c1

    Geometry (in Angstrom), charge = 0, multiplicity = 1:

       Center              X                  Y                   Z               Mass
    ------------   -----------------  -----------------  -----------------  -----------------
         F           -1.998221018139     0.098194995393    -0.000083020092    18.998403162730
         N            1.444147881861    -0.681174104607     0.000056979908    14.003074004430
         C            0.150492881861    -1.150337104607     0.000010979908    12.000000000000
         C           -0.651063118139    -0.026622104607    -0.000026020092    12.000000000000
         C            0.149856881861     1.133201895393     0.000005979908    12.000000000000
         C            1.461689881861     0.689389895393     0.000058979908    12.000000000000
         H           -0.092439118139    -2.201771104607     0.000001979908     1.007825032230
         H            2.265533881861    -1.269797104607     0.000088979908     1.007825032230
         H           -0.190733118139     2.158672895393    -0.000007020092     1.007825032230
         H            2.392187881861     1.238866895393     0.000094979908     1.007825032230

  Basis Set: AUG-CC-PVTZ
    Blend: AUG-CC-PVTZ
  Basis Set: (AUG-CC-PVTZ AUX)
    Blend: AUG-CC-PVTZ-JKFIT
	 Reference Energy          =    -307.7665162610639413 [Eh]
	 Singles Energy            =      -0.0000000000000000 [Eh]
	 Same-Spin Energy          =      -0.3024091124975948 [Eh]
	 Opposite-Spin Energy      =      -0.9115203869084935 [Eh]
	 Correlation Energy        =      -1.2139294994060883 [Eh]
	 Total Energy              =    -308.9804457604700474 [Eh]

	 ================> DF-SCS-MP2 Energies <==================
	-----------------------------------------------------------
	 SCS Same-Spin Scale       =       0.3333333333333333 [-]
	 SCS Opposite-Spin Scale   =       1.2000000000000000 [-]
	 SCS Same-Spin Energy      =      -0.1008030374991983 [Eh]
	 SCS Opposite-Spin Energy  =      -1.0938244642901922 [Eh]
	 SCS Correlation Energy    =      -1.1946275017893906 [Eh]
	 SCS Total Energy          =    -308.9611437628533395 [Eh]
	-----------------------------------------------------------

  Dipole Moment: [D]
     X:     3.0643      Y:    -1.1211      Z:     0.0001     Total:     3.2630

*** Psi4 exiting successfully. Buy a developer a beer!
