                               Psi4 1.3.2 release

  ==> Input File <==

--------------------------------------------------------------------------
#psi4
#
memory 32 gb

molecule  {
0 1
  F       -0.0027800    -0.3482790     1.2838710
  F       -0.9758850     0.8758910    -0.2239650
  F       -0.1919820    -1.0798600    -0.7527970
  F        1.1706460     0.5522470    -0.3071110
  C        0.0002122     0.0261821    -0.0965067
units angstrom
no_reorient  #important for SAPT in psi4, default
symmetry c1  #important for SAPT in psi4, default
}

set PROPERTIES_ORIGIN ["COM"]
properties('MP2/aug-cc-pvtz', properties = ['dipole'])
--------------------------------------------------------------------------

    Molecular point group: c1
  Charge       = 0
  Multiplicity = 1
  Basis Set: AUG-CC-PVTZ
    Blend: AUG-CC-PVTZ
  Basis Set: (AUG-CC-PVTZ AUX)
    Blend: AUG-CC-PVTZ-JKFIT

    Orbital Energies [Eh]
    ---------------------

    Doubly Occupied:

       1A    -26.393505     2A    -26.393504     3A    -26.393471
       4A    -26.333464     5A    -11.618327     6A     -1.808696
       7A     -1.702927     8A     -1.702924     9A     -1.620346
      10A     -1.015283    11A     -0.898814    12A     -0.898813
      13A     -0.876102    14A     -0.767093    15A     -0.767092
      16A     -0.727883    17A     -0.727882    18A     -0.702285
      19A     -0.678500    20A     -0.663563    21A     -0.663563

  @DF-RHF Final Energy:  -435.80756522480073

   => Energetics <=

    Nuclear Repulsion Energy =            204.2908510522900087
    One-Electron Energy =               -1013.4887549842565022
    Two-Electron Energy =                 373.3903387071657676
    Total Energy =                       -435.8075652248007259
  Basis Set: (AUG-CC-PVTZ AUX)
    Blend: AUG-CC-PVTZ-RI
    Molecular point group: c1

    Geometry (in Angstrom), charge = 0, multiplicity = 1:

       Center              X                  Y                   Z               Mass
    ------------   -----------------  -----------------  -----------------  -----------------
         F           -0.002808722557    -0.351849329620     1.297032391627    18.998403162730
         F           -0.975913722557     0.872320670380    -0.210803608373    18.998403162730
         F           -0.192010722557    -1.083430329620    -0.739635608373    18.998403162730
         F            1.170617277443     0.548676670380    -0.293949608373    18.998403162730
         C            0.000183477443     0.022611770380    -0.083345308373    12.000000000000

  Basis Set: AUG-CC-PVTZ
    Blend: AUG-CC-PVTZ
  Basis Set: (AUG-CC-PVTZ AUX)
    Blend: AUG-CC-PVTZ-JKFIT
	 Reference Energy          =    -435.8075652248007259 [Eh]
	 Singles Energy            =      -0.0000000000000000 [Eh]
	 Same-Spin Energy          =      -0.3307311653789718 [Eh]
	 Opposite-Spin Energy      =      -0.9269123192680584 [Eh]
	 Correlation Energy        =      -1.2576434846470301 [Eh]
	 Total Energy              =    -437.0652087094477452 [Eh]

	 ================> DF-SCS-MP2 Energies <==================
	-----------------------------------------------------------
	 SCS Same-Spin Scale       =       0.3333333333333333 [-]
	 SCS Opposite-Spin Scale   =       1.2000000000000000 [-]
	 SCS Same-Spin Energy      =      -0.1102437217929906 [Eh]
	 SCS Opposite-Spin Energy  =      -1.1122947831216701 [Eh]
	 SCS Correlation Energy    =      -1.2225385049146607 [Eh]
	 SCS Total Energy          =    -437.0301037297153925 [Eh]
	-----------------------------------------------------------

  Dipole Moment: [D]
     X:     0.0020      Y:     0.2542      Z:    -0.9373     Total:     0.9712

*** Psi4 exiting successfully. Buy a developer a beer!
