                               Psi4 1.3.2 release

  ==> Input File <==

--------------------------------------------------------------------------
#psi4
#
memory 32 gb

molecule  {
0 1
  F        0.1055314    -0.4306068     1.2542216
  F       -0.9758850     0.8758910    -0.2239650
  F       -0.1919820    -1.0798600    -0.7527970
  F        1.1706460     0.5522470    -0.3071110
  C        0.0000030     0.0000010     0.0000050
units angstrom
no_reorient  #important for SAPT in psi4, default
symmetry c1  #important for SAPT in psi4, default
}

set PROPERTIES_ORIGIN ["COM"]
properties('MP2/aug-cc-pvtz', properties = ['dipole'])
--------------------------------------------------------------------------

    Molecular point group: c1
  Charge       = 0
  Multiplicity = 1
  Basis Set: AUG-CC-PVTZ
    Blend: AUG-CC-PVTZ
  Basis Set: (AUG-CC-PVTZ AUX)
    Blend: AUG-CC-PVTZ-JKFIT

    Orbital Energies [Eh]
    ---------------------

    Doubly Occupied:

       1A    -26.387541     2A    -26.377854     3A    -26.373819
       4A    -26.373796     5A    -11.616138     6A     -1.798651
       7A     -1.687294     8A     -1.674851     9A     -1.670494
      10A     -1.010734    11A     -0.890981    12A     -0.884570
      13A     -0.880899    14A     -0.768202    15A     -0.758552
      16A     -0.717890    17A     -0.709951    18A     -0.708804
      19A     -0.687176    20A     -0.685927    21A     -0.681143

  @DF-RHF Final Energy:  -435.81486706818674

   => Energetics <=

    Nuclear Repulsion Energy =            204.4101995780643222
    One-Electron Energy =               -1013.7595985306453485
    Two-Electron Energy =                 373.5345318843943119
    Total Energy =                       -435.8148670681867429
  Basis Set: (AUG-CC-PVTZ AUX)
    Blend: AUG-CC-PVTZ-RI
    Molecular point group: c1

    Geometry (in Angstrom), charge = 0, multiplicity = 1:

       Center              X                  Y                   Z               Mass
    ------------   -----------------  -----------------  -----------------  -----------------
         F            0.082146058906    -0.412831603742     1.260622851575    18.998403162730
         F           -0.999270341094     0.893666196258    -0.217563748425    18.998403162730
         F           -0.215367341094    -1.062084803742    -0.746395748425    18.998403162730
         F            1.147260658906     0.570022196258    -0.300709748425    18.998403162730
         C           -0.023382341094     0.017776196258     0.006406251575    12.000000000000

  Basis Set: AUG-CC-PVTZ
    Blend: AUG-CC-PVTZ
  Basis Set: (AUG-CC-PVTZ AUX)
    Blend: AUG-CC-PVTZ-JKFIT
	 Reference Energy          =    -435.8148670681867429 [Eh]
	 Singles Energy            =      -0.0000000000000000 [Eh]
	 Same-Spin Energy          =      -0.3304236656172891 [Eh]
	 Opposite-Spin Energy      =      -0.9262771568538025 [Eh]
	 Correlation Energy        =      -1.2567008224710916 [Eh]
	 Total Energy              =    -437.0715678906578319 [Eh]

	 ================> DF-SCS-MP2 Energies <==================
	-----------------------------------------------------------
	 SCS Same-Spin Scale       =       0.3333333333333333 [-]
	 SCS Opposite-Spin Scale   =       1.2000000000000000 [-]
	 SCS Same-Spin Energy      =      -0.1101412218724297 [Eh]
	 SCS Opposite-Spin Energy  =      -1.1115325882245630 [Eh]
	 SCS Correlation Energy    =      -1.2216738100969926 [Eh]
	 SCS Total Energy          =    -437.0365408782837449 [Eh]
	-----------------------------------------------------------

  Dipole Moment: [D]
     X:    -0.1573      Y:     0.1206      Z:     0.0394     Total:     0.2021

*** Psi4 exiting successfully. Buy a developer a beer!
