                               Psi4 1.3.2 release

  ==> Input File <==

--------------------------------------------------------------------------
#psi4
#
memory 32 gb

molecule  {
0 1
  F       -0.0389357    -0.3199426     1.2906399
  F       -0.9758850     0.8758910    -0.2239650
  F       -0.1919820    -1.0798600    -0.7527970
  F        1.1706460     0.5522470    -0.3071110
  C        0.0000030     0.0000010     0.0000050
units angstrom
no_reorient  #important for SAPT in psi4, default
symmetry c1  #important for SAPT in psi4, default
}

set PROPERTIES_ORIGIN ["COM"]
properties('MP2/aug-cc-pvtz', properties = ['dipole'])
--------------------------------------------------------------------------

    Molecular point group: c1
  Charge       = 0
  Multiplicity = 1
  Basis Set: AUG-CC-PVTZ
    Blend: AUG-CC-PVTZ
  Basis Set: (AUG-CC-PVTZ AUX)
    Blend: AUG-CC-PVTZ-JKFIT

    Orbital Energies [Eh]
    ---------------------

    Doubly Occupied:

       1A    -26.380176     2A    -26.380152     3A    -26.378532
       4A    -26.375430     5A    -11.616116     6A     -1.798406
       7A     -1.680200     8A     -1.678854     9A     -1.674428
      10A     -1.010805    11A     -0.887136    12A     -0.885972
      13A     -0.883728    14A     -0.764853    15A     -0.761637
      16A     -0.713014    17A     -0.712508    18A     -0.709949
      19A     -0.687735    20A     -0.685969    21A     -0.684518

  @DF-RHF Final Energy:  -435.81742698992622

   => Energetics <=

    Nuclear Repulsion Energy =            204.3218191972488569
    One-Electron Energy =               -1013.5782528627872807
    Two-Electron Energy =                 373.4390066756122337
    Total Energy =                       -435.8174269899262185
  Basis Set: (AUG-CC-PVTZ AUX)
    Blend: AUG-CC-PVTZ-RI
    Molecular point group: c1

    Geometry (in Angstrom), charge = 0, multiplicity = 1:

       Center              X                  Y                   Z               Mass
    ------------   -----------------  -----------------  -----------------  -----------------
         F           -0.031129638367    -0.326060536709     1.289178199651    18.998403162730
         F           -0.968078938367     0.869773063291    -0.225426700349    18.998403162730
         F           -0.184175938367    -1.085977936709    -0.754258700349    18.998403162730
         F            1.178452061633     0.546129063291    -0.308572700349    18.998403162730
         C            0.007809061633    -0.006116936709    -0.001456700349    12.000000000000

  Basis Set: AUG-CC-PVTZ
    Blend: AUG-CC-PVTZ
  Basis Set: (AUG-CC-PVTZ AUX)
    Blend: AUG-CC-PVTZ-JKFIT
	 Reference Energy          =    -435.8174269899262185 [Eh]
	 Singles Energy            =      -0.0000000000000000 [Eh]
	 Same-Spin Energy          =      -0.3303649163859954 [Eh]
	 Opposite-Spin Energy      =      -0.9261566794317587 [Eh]
	 Correlation Energy        =      -1.2565215958177540 [Eh]
	 Total Energy              =    -437.0739485857439490 [Eh]

	 ================> DF-SCS-MP2 Energies <==================
	-----------------------------------------------------------
	 SCS Same-Spin Scale       =       0.3333333333333333 [-]
	 SCS Opposite-Spin Scale   =       1.2000000000000000 [-]
	 SCS Same-Spin Energy      =      -0.1101216387953318 [Eh]
	 SCS Opposite-Spin Energy  =      -1.1113880153181104 [Eh]
	 SCS Correlation Energy    =      -1.2215096541134423 [Eh]
	 SCS Total Energy          =    -437.0389366440396657 [Eh]
	-----------------------------------------------------------

  Dipole Moment: [D]
     X:     0.0529      Y:    -0.0414      Z:    -0.0102     Total:     0.0680

*** Psi4 exiting successfully. Buy a developer a beer!
