                               Psi4 1.3.2 release

  ==> Input File <==

--------------------------------------------------------------------------
#psi4
#
memory 32 gb

molecule  {
0 1
  F        0.0153019    -0.3622902     1.2798994
  F       -0.9758850     0.8758910    -0.2239650
  F       -0.1919820    -1.0798600    -0.7527970
  F        1.1706460     0.5522470    -0.3071110
  C        0.0000030     0.0000010     0.0000050
units angstrom
no_reorient  #important for SAPT in psi4, default
symmetry c1  #important for SAPT in psi4, default
}

set PROPERTIES_ORIGIN ["COM"]
properties('MP2/aug-cc-pvtz', properties = ['dipole'])
--------------------------------------------------------------------------

    Molecular point group: c1
  Charge       = 0
  Multiplicity = 1
  Basis Set: AUG-CC-PVTZ
    Blend: AUG-CC-PVTZ
  Basis Set: (AUG-CC-PVTZ AUX)
    Blend: AUG-CC-PVTZ-JKFIT

    Orbital Energies [Eh]
    ---------------------

    Doubly Occupied:

       1A    -26.380162     2A    -26.378597     3A    -26.377839
       4A    -26.377816     5A    -11.616114     6A     -1.798381
       7A     -1.679522     8A     -1.677362     9A     -1.676679
      10A     -1.010812    11A     -0.886557    12A     -0.885455
      13A     -0.884861    14A     -0.764036    15A     -0.762426
      16A     -0.712736    17A     -0.711425    18A     -0.711195
      19A     -0.686836    20A     -0.686309    21A     -0.685466

  @DF-RHF Final Energy:  -435.81767962331611

   => Energetics <=

    Nuclear Repulsion Energy =            204.3132884128685589
    One-Electron Energy =               -1013.5607619897084533
    Two-Electron Energy =                 373.4297939535237560
    Total Energy =                       -435.8176796233161099
  Basis Set: (AUG-CC-PVTZ AUX)
    Blend: AUG-CC-PVTZ-RI
    Molecular point group: c1

    Geometry (in Angstrom), charge = 0, multiplicity = 1:

       Center              X                  Y                   Z               Mass
    ------------   -----------------  -----------------  -----------------  -----------------
         F            0.011397704941    -0.359265009685     1.280756644663    18.998403162730
         F           -0.979789195059     0.878916190315    -0.223107755337    18.998403162730
         F           -0.195886195059    -1.076834809685    -0.751939755337    18.998403162730
         F            1.166741804941     0.555272190315    -0.306253755337    18.998403162730
         C           -0.003901195059     0.003026190315     0.000862244663    12.000000000000

  Basis Set: AUG-CC-PVTZ
    Blend: AUG-CC-PVTZ
  Basis Set: (AUG-CC-PVTZ AUX)
    Blend: AUG-CC-PVTZ-JKFIT
	 Reference Energy          =    -435.8176796233161099 [Eh]
	 Singles Energy            =      -0.0000000000000000 [Eh]
	 Same-Spin Energy          =      -0.3303592673850361 [Eh]
	 Opposite-Spin Energy      =      -0.9261451976652222 [Eh]
	 Correlation Energy        =      -1.2565044650502584 [Eh]
	 Total Energy              =    -437.0741840883663940 [Eh]

	 ================> DF-SCS-MP2 Energies <==================
	-----------------------------------------------------------
	 SCS Same-Spin Scale       =       0.3333333333333333 [-]
	 SCS Opposite-Spin Scale   =       1.2000000000000000 [-]
	 SCS Same-Spin Energy      =      -0.1101197557950120 [Eh]
	 SCS Opposite-Spin Energy  =      -1.1113742371982667 [Eh]
	 SCS Correlation Energy    =      -1.2214939929932787 [Eh]
	 SCS Total Energy          =    -437.0391736163093697 [Eh]
	-----------------------------------------------------------

  Dipole Moment: [D]
     X:    -0.0264      Y:     0.0204      Z:     0.0058     Total:     0.0339

*** Psi4 exiting successfully. Buy a developer a beer!
