                               Psi4 1.4a3.dev225

  ==> Input File <==

--------------------------------------------------------------------------
#psi4
#
memory 32 gb

molecule  {
0 1
  F       -1.0804830    -0.7645010    -0.1361910
  F       -0.0639430     1.0151310    -0.8578250
  F        1.0890430    -0.7229080    -0.2486870
  F        0.0553850     0.4722830     1.2427050
  C       -0.0162438    -0.0114992    -0.0020501
units angstrom
no_reorient  #important for SAPT in psi4, default
symmetry c1  #important for SAPT in psi4, default
}

set PROPERTIES_ORIGIN ["COM"]
properties('MP2/aug-cc-pvtz', properties = ['dipole'])
--------------------------------------------------------------------------

    Molecular point group: c1
  Charge       = 0
  Multiplicity = 1
  Basis Set: AUG-CC-PVTZ
    Blend: AUG-CC-PVTZ
  Basis Set: (AUG-CC-PVTZ AUX)
    Blend: AUG-CC-PVTZ-JKFIT

    Orbital Energies [Eh]
    ---------------------

    Doubly Occupied:

       1A    -26.387682     2A    -26.375649     3A    -26.375648
       4A    -26.375613     5A    -11.616329     6A     -1.798963
       7A     -1.687568     8A     -1.672576     9A     -1.672573
      10A     -1.011057    11A     -0.888716    12A     -0.884335
      13A     -0.884333    14A     -0.763325    15A     -0.763325
      16A     -0.716051    17A     -0.709668    18A     -0.709666
      19A     -0.687125    20A     -0.687124    21A     -0.682960

  @DF-RHF Final Energy:  -435.81719530165537

   => Energetics <=

    Nuclear Repulsion Energy =            204.2659837093590340
    One-Electron Energy =               -1013.4657836603893202
    Two-Electron Energy =                 373.3826046493749118
    Total Energy =                       -435.8171953016553744
  Basis Set: (AUG-CC-PVTZ AUX)
    Blend: AUG-CC-PVTZ-RI
    Molecular point group: c1

    Geometry (in Angstrom), charge = 0, multiplicity = 1:

       Center              X                  Y                   Z               Mass
    ------------   -----------------  -----------------  -----------------  -----------------
         F           -1.078268207388    -0.762933892981    -0.135911852429    18.998403162730
         F           -0.061728207388     1.016698107019    -0.857545852429    18.998403162730
         F            1.091257792612    -0.721340892981    -0.248407852429    18.998403162730
         F            0.057599792612     0.473850107019     1.242984147571    18.998403162730
         C           -0.014029007388    -0.009932092981    -0.001770952429    12.000000000000

  Basis Set: AUG-CC-PVTZ
    Blend: AUG-CC-PVTZ
  Basis Set: (AUG-CC-PVTZ AUX)
    Blend: AUG-CC-PVTZ-JKFIT
	 Reference Energy          =    -435.8171953016553744 [Eh]
	 Singles Energy            =      -0.0000000000000000 [Eh]
	 Same-Spin Energy          =      -0.3303847634092336 [Eh]
	 Opposite-Spin Energy      =      -0.9262253135776104 [Eh]
	 Correlation Energy        =      -1.2566100769868440 [Eh]
	 Total Energy              =    -437.0738053786421915 [Eh]

	 ================> DF-SCS-MP2 Energies <==================
	-----------------------------------------------------------
	 SCS Same-Spin Scale       =       0.3333333333333333 [-]
	 SCS Opposite-Spin Scale   =       1.2000000000000000 [-]
	 SCS Same-Spin Energy      =      -0.1101282544697445 [Eh]
	 SCS Opposite-Spin Energy  =      -1.1114703762931324 [Eh]
	 SCS Correlation Energy    =      -1.2215986307628770 [Eh]
	 SCS Total Energy          =    -437.0387939324182298 [Eh]
	-----------------------------------------------------------

  Dipole Moment: [D]
     X:    -0.1589      Y:    -0.1125      Z:    -0.0200     Total:     0.1957

*** Psi4 exiting successfully. Buy a developer a beer!
