                               Psi4 1.4a3.dev225

  ==> Input File <==

--------------------------------------------------------------------------
#psi4
#
memory 32 gb

molecule  {
0 1
  F       -1.0804830    -0.7645010    -0.1361910
  F       -0.0639430     1.0151310    -0.8578250
  F        1.0890430    -0.7229080    -0.2486870
  F        0.0553850     0.4722830     1.2427050
  C        0.0162378     0.0114832     0.0020441
units angstrom
no_reorient  #important for SAPT in psi4, default
symmetry c1  #important for SAPT in psi4, default
}

set PROPERTIES_ORIGIN ["COM"]
properties('MP2/aug-cc-pvtz', properties = ['dipole'])
--------------------------------------------------------------------------

    Molecular point group: c1
  Charge       = 0
  Multiplicity = 1
  Basis Set: AUG-CC-PVTZ
    Blend: AUG-CC-PVTZ
  Basis Set: (AUG-CC-PVTZ AUX)
    Blend: AUG-CC-PVTZ-JKFIT

    Orbital Energies [Eh]
    ---------------------

    Doubly Occupied:

       1A    -26.381656     2A    -26.381655     3A    -26.381621
       4A    -26.369661     5A    -11.616333     6A     -1.798800
       7A     -1.682927     8A     -1.682925     9A     -1.667015
      10A     -1.011019    11A     -0.887332    12A     -0.887331
      13A     -0.882656    14A     -0.763343    15A     -0.763342
      16A     -0.714370    17A     -0.714369    18A     -0.706598
      19A     -0.689542    20A     -0.683887    21A     -0.683885

  @DF-RHF Final Energy:  -435.81721907648193

   => Energetics <=

    Nuclear Repulsion Energy =            204.2656666105362717
    One-Electron Energy =               -1013.4652320710421236
    Two-Electron Energy =                 373.3823463840238901
    Total Energy =                       -435.8172190764819334
  Basis Set: (AUG-CC-PVTZ AUX)
    Blend: AUG-CC-PVTZ-RI
    Molecular point group: c1

    Geometry (in Angstrom), charge = 0, multiplicity = 1:

       Center              X                  Y                   Z               Mass
    ------------   -----------------  -----------------  -----------------  -----------------
         F           -1.082697837997    -0.766068084108    -0.136470192956    18.998403162730
         F           -0.066157837997     1.013563915892    -0.858104192956    18.998403162730
         F            1.086828162003    -0.724475084108    -0.248966192956    18.998403162730
         F            0.053170162003     0.470715915892     1.242425807044    18.998403162730
         C            0.014022962003     0.009916115892     0.001764907044    12.000000000000

  Basis Set: AUG-CC-PVTZ
    Blend: AUG-CC-PVTZ
  Basis Set: (AUG-CC-PVTZ AUX)
    Blend: AUG-CC-PVTZ-JKFIT
	 Reference Energy          =    -435.8172190764819334 [Eh]
	 Singles Energy            =      -0.0000000000000000 [Eh]
	 Same-Spin Energy          =      -0.3303847092510026 [Eh]
	 Opposite-Spin Energy      =      -0.9262244552161658 [Eh]
	 Correlation Energy        =      -1.2566091644671684 [Eh]
	 Total Energy              =    -437.0738282409491262 [Eh]

	 ================> DF-SCS-MP2 Energies <==================
	-----------------------------------------------------------
	 SCS Same-Spin Scale       =       0.3333333333333333 [-]
	 SCS Opposite-Spin Scale   =       1.2000000000000000 [-]
	 SCS Same-Spin Energy      =      -0.1101282364170009 [Eh]
	 SCS Opposite-Spin Energy  =      -1.1114693462593990 [Eh]
	 SCS Correlation Energy    =      -1.2215975826763998 [Eh]
	 SCS Total Energy          =    -437.0388166591583285 [Eh]
	-----------------------------------------------------------

  Dipole Moment: [D]
     X:     0.1582      Y:     0.1119      Z:     0.0199     Total:     0.1948

*** Psi4 exiting successfully. Buy a developer a beer!
