                               Psi4 1.3.2 release

  ==> Input File <==

--------------------------------------------------------------------------
#psi4
#
memory 32 gb

molecule  {
0 1
  F       -0.0027800    -0.3482790     1.2838710
  F       -0.9758850     0.8758910    -0.2239650
  F       -0.1919820    -1.0798600    -0.7527970
  F        1.1706460     0.5522470    -0.3071110
  C       -0.0002062    -0.0261801     0.0965167
units angstrom
no_reorient  #important for SAPT in psi4, default
symmetry c1  #important for SAPT in psi4, default
}

set PROPERTIES_ORIGIN ["COM"]
properties('MP2/aug-cc-pvtz', properties = ['dipole'])
--------------------------------------------------------------------------

    Molecular point group: c1
  Charge       = 0
  Multiplicity = 1
  Basis Set: AUG-CC-PVTZ
    Blend: AUG-CC-PVTZ
  Basis Set: (AUG-CC-PVTZ AUX)
    Blend: AUG-CC-PVTZ-JKFIT

    Orbital Energies [Eh]
    ---------------------

    Doubly Occupied:

       1A    -26.424581     2A    -26.363114     3A    -26.363113
       4A    -26.363078     5A    -11.617823     6A     -1.825833
       7A     -1.708290     8A     -1.651192     9A     -1.651190
      10A     -1.019805    11A     -0.902096    12A     -0.889590
      13A     -0.889590    14A     -0.764473    15A     -0.764472
      16A     -0.725181    17A     -0.703928    18A     -0.703926
      19A     -0.677967    20A     -0.677966    21A     -0.669155

  @DF-RHF Final Energy:  -435.80461544421763

   => Energetics <=

    Nuclear Repulsion Energy =            204.3315557510097733
    One-Electron Energy =               -1013.5596117311040416
    Two-Electron Energy =                 373.4234405358766367
    Total Energy =                       -435.8046154442176316
  Basis Set: (AUG-CC-PVTZ AUX)
    Blend: AUG-CC-PVTZ-RI
    Molecular point group: c1

    Geometry (in Angstrom), charge = 0, multiplicity = 1:

       Center              X                  Y                   Z               Mass
    ------------   -----------------  -----------------  -----------------  -----------------
         F           -0.002751663871    -0.344708511314     1.270709108264    18.998403162730
         F           -0.975856663871     0.879461488686    -0.237126891736    18.998403162730
         F           -0.191953663871    -1.076289511314    -0.765958891736    18.998403162730
         F            1.170674336129     0.555817488686    -0.320272891736    18.998403162730
         C           -0.000177863871    -0.022609611314     0.083354808264    12.000000000000

  Basis Set: AUG-CC-PVTZ
    Blend: AUG-CC-PVTZ
  Basis Set: (AUG-CC-PVTZ AUX)
    Blend: AUG-CC-PVTZ-JKFIT
	 Reference Energy          =    -435.8046154442176316 [Eh]
	 Singles Energy            =      -0.0000000000000000 [Eh]
	 Same-Spin Energy          =      -0.3307348408795860 [Eh]
	 Opposite-Spin Energy      =      -0.9270129846772146 [Eh]
	 Correlation Energy        =      -1.2577478255568006 [Eh]
	 Total Energy              =    -437.0623632697744370 [Eh]

	 ================> DF-SCS-MP2 Energies <==================
	-----------------------------------------------------------
	 SCS Same-Spin Scale       =       0.3333333333333333 [-]
	 SCS Opposite-Spin Scale   =       1.2000000000000000 [-]
	 SCS Same-Spin Energy      =      -0.1102449469598620 [Eh]
	 SCS Opposite-Spin Energy  =      -1.1124155816126575 [Eh]
	 SCS Correlation Energy    =      -1.2226605285725196 [Eh]
	 SCS Total Energy          =    -437.0272759727901644 [Eh]
	-----------------------------------------------------------

  Dipole Moment: [D]
     X:    -0.0021      Y:    -0.2599      Z:     0.9580     Total:     0.9926

*** Psi4 exiting successfully. Buy a developer a beer!
