                               Psi4 1.3.2 release

  ==> Input File <==

--------------------------------------------------------------------------
#psi4
#
memory 32 gb

molecule  {
0 1
  F       -0.0027800    -0.3482790     1.2838710
  F       -0.9758850     0.8758910    -0.2239650
  F       -0.1919820    -1.0798600    -0.7527970
  F        1.1706460     0.5522470    -0.3071110
  C       -0.0004154    -0.0523613     0.1930284
units angstrom
no_reorient  #important for SAPT in psi4, default
symmetry c1  #important for SAPT in psi4, default
}

set PROPERTIES_ORIGIN ["COM"]
properties('MP2/aug-cc-pvtz', properties = ['dipole'])
--------------------------------------------------------------------------

    Molecular point group: c1
  Charge       = 0
  Multiplicity = 1
  Basis Set: AUG-CC-PVTZ
    Blend: AUG-CC-PVTZ
  Basis Set: (AUG-CC-PVTZ AUX)
    Blend: AUG-CC-PVTZ-JKFIT

    Orbital Energies [Eh]
    ---------------------

    Doubly Occupied:

       1A    -26.474589     2A    -26.345959     3A    -26.345958
       4A    -26.345922     5A    -11.622186     6A     -1.910969
       7A     -1.695927     8A     -1.623093     9A     -1.623090
      10A     -1.055640    11A     -0.926522    12A     -0.926521
      13A     -0.907458    14A     -0.755301    15A     -0.755298
      16A     -0.722099    17A     -0.690614    18A     -0.690612
      19A     -0.655925    20A     -0.655924    21A     -0.650408

  @DF-RHF Final Energy:  -435.75671744447550

   => Energetics <=

    Nuclear Repulsion Energy =            204.4847039752030753
    One-Electron Energy =               -1013.7228127814923937
    Two-Electron Energy =                 373.4813913618138486
    Total Energy =                       -435.7567174444754983
  Basis Set: (AUG-CC-PVTZ AUX)
    Blend: AUG-CC-PVTZ-RI
    Molecular point group: c1

    Geometry (in Angstrom), charge = 0, multiplicity = 1:

       Center              X                  Y                   Z               Mass
    ------------   -----------------  -----------------  -----------------  -----------------
         F           -0.002723134527    -0.341138088524     1.257547466582    18.998403162730
         F           -0.975828134527     0.883031911476    -0.250288533418    18.998403162730
         F           -0.191925134527    -1.072719088524    -0.779120533418    18.998403162730
         F            1.170702865473     0.559387911476    -0.333434533418    18.998403162730
         C           -0.000358534527    -0.045220388524     0.166704866582    12.000000000000

  Basis Set: AUG-CC-PVTZ
    Blend: AUG-CC-PVTZ
  Basis Set: (AUG-CC-PVTZ AUX)
    Blend: AUG-CC-PVTZ-JKFIT
	 Reference Energy          =    -435.7567174444754983 [Eh]
	 Singles Energy            =      -0.0000000000000000 [Eh]
	 Same-Spin Energy          =      -0.3317718447323040 [Eh]
	 Opposite-Spin Energy      =      -0.9296471080675548 [Eh]
	 Correlation Energy        =      -1.2614189527998589 [Eh]
	 Total Energy              =    -437.0181363972753843 [Eh]

	 ================> DF-SCS-MP2 Energies <==================
	-----------------------------------------------------------
	 SCS Same-Spin Scale       =       0.3333333333333333 [-]
	 SCS Opposite-Spin Scale   =       1.2000000000000000 [-]
	 SCS Same-Spin Energy      =      -0.1105906149107680 [Eh]
	 SCS Opposite-Spin Energy  =      -1.1155765296810658 [Eh]
	 SCS Correlation Energy    =      -1.2261671445918338 [Eh]
	 SCS Total Energy          =    -436.9828845890673392 [Eh]
	-----------------------------------------------------------

  Dipole Moment: [D]
     X:    -0.0042      Y:    -0.5336      Z:     1.9669     Total:     2.0380

*** Psi4 exiting successfully. Buy a developer a beer!
