                               Psi4 1.3.2 release

  ==> Input File <==

--------------------------------------------------------------------------
#psi4
#
memory 32 gb

molecule  {
0 1
  F       -0.1110609    -0.2621354     1.2994541
  F       -0.9758850     0.8758910    -0.2239650
  F       -0.1919820    -1.0798600    -0.7527970
  F        1.1706460     0.5522470    -0.3071110
  C        0.0000030     0.0000010     0.0000050
units angstrom
no_reorient  #important for SAPT in psi4, default
symmetry c1  #important for SAPT in psi4, default
}

set PROPERTIES_ORIGIN ["COM"]
properties('MP2/aug-cc-pvtz', properties = ['dipole'])
--------------------------------------------------------------------------

    Molecular point group: c1
  Charge       = 0
  Multiplicity = 1
  Basis Set: AUG-CC-PVTZ
    Blend: AUG-CC-PVTZ
  Basis Set: (AUG-CC-PVTZ AUX)
    Blend: AUG-CC-PVTZ-JKFIT

    Orbital Energies [Eh]
    ---------------------

    Doubly Occupied:

       1A    -26.383201     2A    -26.383177     3A    -26.377829
       4A    -26.368737     5A    -11.616125     6A     -1.798680
       7A     -1.684743     8A     -1.680814     9A     -1.667056
      10A     -1.010737    11A     -0.890027    12A     -0.886653
      13A     -0.879760    14A     -0.768224    15A     -0.758596
      16A     -0.715732    17A     -0.714123    18A     -0.706733
      19A     -0.690447    20A     -0.684791    21A     -0.678896

  @DF-RHF Final Energy:  -435.81465906045497

   => Energetics <=

    Nuclear Repulsion Energy =            204.4139607068982798
    One-Electron Energy =               -1013.7670772430082025
    Two-Electron Energy =                 373.5384574756549796
    Total Energy =                       -435.8146590604549715
  Basis Set: (AUG-CC-PVTZ AUX)
    Blend: AUG-CC-PVTZ-RI
    Molecular point group: c1

    Geometry (in Angstrom), charge = 0, multiplicity = 1:

       Center              X                  Y                   Z               Mass
    ------------   -----------------  -----------------  -----------------  -----------------
         F           -0.087682530486    -0.280734293658     1.296089355553    18.998403162730
         F           -0.952506630486     0.857292106342    -0.227329744447    18.998403162730
         F           -0.168603630486    -1.098458893658    -0.756161744447    18.998403162730
         F            1.194024369514     0.533648106342    -0.310475744447    18.998403162730
         C            0.023381369514    -0.018597893658    -0.003359744447    12.000000000000

  Basis Set: AUG-CC-PVTZ
    Blend: AUG-CC-PVTZ
  Basis Set: (AUG-CC-PVTZ AUX)
    Blend: AUG-CC-PVTZ-JKFIT
	 Reference Energy          =    -435.8146590604549715 [Eh]
	 Singles Energy            =      -0.0000000000000000 [Eh]
	 Same-Spin Energy          =      -0.3304258155041503 [Eh]
	 Opposite-Spin Energy      =      -0.9262805728545169 [Eh]
	 Correlation Energy        =      -1.2567063883586673 [Eh]
	 Total Energy              =    -437.0713654488136513 [Eh]

	 ================> DF-SCS-MP2 Energies <==================
	-----------------------------------------------------------
	 SCS Same-Spin Scale       =       0.3333333333333333 [-]
	 SCS Opposite-Spin Scale   =       1.2000000000000000 [-]
	 SCS Same-Spin Energy      =      -0.1101419385013834 [Eh]
	 SCS Opposite-Spin Energy  =      -1.1115366874254202 [Eh]
	 SCS Correlation Energy    =      -1.2216786259268035 [Eh]
	 SCS Total Energy          =    -437.0363376863817848 [Eh]
	-----------------------------------------------------------

  Dipole Moment: [D]
     X:     0.1590      Y:    -0.1255      Z:    -0.0265     Total:     0.2043

*** Psi4 exiting successfully. Buy a developer a beer!
