                               Psi4 1.3.2 release

  ==> Input File <==

--------------------------------------------------------------------------
#psi4
#
memory 32 gb

molecule  {
0 1
  F       -0.0027800    -0.3482790     1.2838710
  F       -0.9758850     0.8758910    -0.2239650
  F       -0.1919820    -1.0798600    -0.7527970
  F        1.1706460     0.5522470    -0.3071110
  C        0.0000030     0.0000010     0.0000050
units angstrom
no_reorient  #important for SAPT in psi4, default
symmetry c1  #important for SAPT in psi4, default
}

set PROPERTIES_ORIGIN ["COM"]
properties('MP2/aug-cc-pvtz', properties = ['dipole'])
--------------------------------------------------------------------------

    Molecular point group: c1
  Charge       = 0
  Multiplicity = 1
  Basis Set: AUG-CC-PVTZ
    Blend: AUG-CC-PVTZ
  Basis Set: (AUG-CC-PVTZ AUX)
    Blend: AUG-CC-PVTZ-JKFIT

    Orbital Energies [Eh]
    ---------------------

    Doubly Occupied:

       1A    -26.378629     2A    -26.378624     3A    -26.378623
       4A    -26.378579     5A    -11.616114     6A     -1.798373
       7A     -1.677870     8A     -1.677861     9A     -1.677859
      10A     -1.010814    11A     -0.885629    12A     -0.885628
      13A     -0.885627    14A     -0.763227    15A     -0.763226
      16A     -0.711775    17A     -0.711772    18A     -0.711771
      19A     -0.686247    20A     -0.686247    21A     -0.686245

  @DF-RHF Final Energy:  -435.81776194001145

   => Energetics <=

    Nuclear Repulsion Energy =            204.3104791252789880
    One-Electron Energy =               -1013.5549997535676994
    Two-Electron Energy =                 373.4267586882772321
    Total Energy =                       -435.8177619400114509
  Basis Set: (AUG-CC-PVTZ AUX)
    Blend: AUG-CC-PVTZ-RI
    Molecular point group: c1

    Geometry (in Angstrom), charge = 0, multiplicity = 1:

       Center              X                  Y                   Z               Mass
    ------------   -----------------  -----------------  -----------------  -----------------
         F           -0.002780193214    -0.348278920467     1.283870749946    18.998403162730
         F           -0.975885193214     0.875891079533    -0.223965250054    18.998403162730
         F           -0.191982193214    -1.079859920467    -0.752797250054    18.998403162730
         F            1.170645806786     0.552247079533    -0.307111250054    18.998403162730
         C            0.000002806786     0.000001079533     0.000004749946    12.000000000000

  Basis Set: AUG-CC-PVTZ
    Blend: AUG-CC-PVTZ
  Basis Set: (AUG-CC-PVTZ AUX)
    Blend: AUG-CC-PVTZ-JKFIT
	 Reference Energy          =    -435.8177619400114509 [Eh]
	 Singles Energy            =      -0.0000000000000000 [Eh]
	 Same-Spin Energy          =      -0.3303574034309815 [Eh]
	 Opposite-Spin Energy      =      -0.9261414013258924 [Eh]
	 Correlation Energy        =      -1.2564988047568739 [Eh]
	 Total Energy              =    -437.0742607447683099 [Eh]

	 ================> DF-SCS-MP2 Energies <==================
	-----------------------------------------------------------
	 SCS Same-Spin Scale       =       0.3333333333333333 [-]
	 SCS Opposite-Spin Scale   =       1.2000000000000000 [-]
	 SCS Same-Spin Energy      =      -0.1101191344769938 [Eh]
	 SCS Opposite-Spin Energy  =      -1.1113696815910707 [Eh]
	 SCS Correlation Energy    =      -1.2214888160680646 [Eh]
	 SCS Total Energy          =    -437.0392507560795252 [Eh]
	-----------------------------------------------------------

  Dipole Moment: [D]
     X:     0.0000      Y:    -0.0000      Z:     0.0001     Total:     0.0001

*** Psi4 exiting successfully. Buy a developer a beer!
