                               Psi4 1.3.2 release

  ==> Input File <==

--------------------------------------------------------------------------
#psi4
#
memory 32 gb

molecule  {
0 1
  F       -0.0750440    -0.2912164     1.2958364
  F       -0.9758850     0.8758910    -0.2239650
  F       -0.1919820    -1.0798600    -0.7527970
  F        1.1706460     0.5522470    -0.3071110
  C        0.0000030     0.0000010     0.0000050
units angstrom
no_reorient  #important for SAPT in psi4, default
symmetry c1  #important for SAPT in psi4, default
}

set PROPERTIES_ORIGIN ["COM"]
properties('MP2/aug-cc-pvtz', properties = ['dipole'])
--------------------------------------------------------------------------

    Molecular point group: c1
  Charge       = 0
  Multiplicity = 1
  Basis Set: AUG-CC-PVTZ
    Blend: AUG-CC-PVTZ
  Basis Set: (AUG-CC-PVTZ AUX)
    Blend: AUG-CC-PVTZ-JKFIT

    Orbital Energies [Eh]
    ---------------------

    Doubly Occupied:

       1A    -26.381701     2A    -26.381678     3A    -26.378270
       4A    -26.372141     5A    -11.616120     6A     -1.798506
       7A     -1.682489     8A     -1.679839     9A     -1.670830
      10A     -1.010780    11A     -0.888603    12A     -0.886313
      13A     -0.881772    14A     -0.766518    15A     -0.760091
      16A     -0.714343    17A     -0.713295    18A     -0.708274
      19A     -0.689133    20A     -0.685486    21A     -0.682060

  @DF-RHF Final Energy:  -435.81640359898472

   => Energetics <=

    Nuclear Repulsion Energy =            204.3561455544732439
    One-Electron Energy =               -1013.6486168794449441
    Two-Electron Energy =                 373.4760677259870363
    Total Energy =                       -435.8164035989847207
  Basis Set: (AUG-CC-PVTZ AUX)
    Blend: AUG-CC-PVTZ-RI
    Molecular point group: c1

    Geometry (in Angstrom), charge = 0, multiplicity = 1:

       Center              X                  Y                   Z               Mass
    ------------   -----------------  -----------------  -----------------  -----------------
         F           -0.059441917494    -0.303536513350     1.293252740919    18.998403162730
         F           -0.960282917494     0.863570886650    -0.226548659081    18.998403162730
         F           -0.176379917494    -1.092180113350    -0.755380659081    18.998403162730
         F            1.186248082506     0.539926886650    -0.309694659081    18.998403162730
         C            0.015605082506    -0.012319113350    -0.002578659081    12.000000000000

  Basis Set: AUG-CC-PVTZ
    Blend: AUG-CC-PVTZ
  Basis Set: (AUG-CC-PVTZ AUX)
    Blend: AUG-CC-PVTZ-JKFIT
	 Reference Energy          =    -435.8164035989847207 [Eh]
	 Singles Energy            =      -0.0000000000000000 [Eh]
	 Same-Spin Energy          =      -0.3303876271131043 [Eh]
	 Opposite-Spin Energy      =      -0.9262028662776953 [Eh]
	 Correlation Energy        =      -1.2565904933907996 [Eh]
	 Total Energy              =    -437.0729940923754953 [Eh]

	 ================> DF-SCS-MP2 Energies <==================
	-----------------------------------------------------------
	 SCS Same-Spin Scale       =       0.3333333333333333 [-]
	 SCS Opposite-Spin Scale   =       1.2000000000000000 [-]
	 SCS Same-Spin Energy      =      -0.1101292090377014 [Eh]
	 SCS Opposite-Spin Energy  =      -1.1114434395332344 [Eh]
	 SCS Correlation Energy    =      -1.2215726485709359 [Eh]
	 SCS Total Energy          =    -437.0379762475556618 [Eh]
	-----------------------------------------------------------

  Dipole Moment: [D]
     X:     0.1059      Y:    -0.0832      Z:    -0.0191     Total:     0.1361

*** Psi4 exiting successfully. Buy a developer a beer!
