                               Psi4 1.3.2 release

  ==> Input File <==

--------------------------------------------------------------------------
#psi4
#
memory 32 gb

molecule  {
0 1
  F        0.0694976    -0.4036448     1.2656507
  F       -0.9758850     0.8758910    -0.2239650
  F       -0.1919820    -1.0798600    -0.7527970
  F        1.1706460     0.5522470    -0.3071110
  C        0.0000030     0.0000010     0.0000050
units angstrom
no_reorient  #important for SAPT in psi4, default
symmetry c1  #important for SAPT in psi4, default
}

set PROPERTIES_ORIGIN ["COM"]
properties('MP2/aug-cc-pvtz', properties = ['dipole'])
--------------------------------------------------------------------------

    Molecular point group: c1
  Charge       = 0
  Multiplicity = 1
  Basis Set: AUG-CC-PVTZ
    Blend: AUG-CC-PVTZ
  Basis Set: (AUG-CC-PVTZ AUX)
    Blend: AUG-CC-PVTZ-JKFIT

    Orbital Energies [Eh]
    ---------------------

    Doubly Occupied:

       1A    -26.384663     2A    -26.378277     3A    -26.375446
       4A    -26.375423     5A    -11.616124     6A     -1.798498
       7A     -1.684286     8A     -1.675858     9A     -1.673022
      10A     -1.010779    11A     -0.889255    12A     -0.884928
      13A     -0.882507    14A     -0.766513    15A     -0.760076
      16A     -0.715786    17A     -0.710486    18A     -0.709659
      19A     -0.687536    20A     -0.686214    21A     -0.682961

  @DF-RHF Final Energy:  -435.81646464397636

   => Energetics <=

    Nuclear Repulsion Energy =            204.3550405571434396
    One-Electron Energy =               -1013.6464193606150275
    Two-Electron Energy =                 373.4749141594952562
    Total Energy =                       -435.8164646439763601
  Basis Set: (AUG-CC-PVTZ AUX)
    Blend: AUG-CC-PVTZ-RI
    Molecular point group: c1

    Geometry (in Angstrom), charge = 0, multiplicity = 1:

       Center              X                  Y                   Z               Mass
    ------------   -----------------  -----------------  -----------------  -----------------
         F            0.053892194736    -0.391690877931     1.269584333266    18.998403162730
         F           -0.991490405264     0.887844922069    -0.220031366734    18.998403162730
         F           -0.207587405264    -1.067906077931    -0.748863366734    18.998403162730
         F            1.155040594736     0.564200922069    -0.303177366734    18.998403162730
         C           -0.015602405264     0.011954922069     0.003938633266    12.000000000000

  Basis Set: AUG-CC-PVTZ
    Blend: AUG-CC-PVTZ
  Basis Set: (AUG-CC-PVTZ AUX)
    Blend: AUG-CC-PVTZ-JKFIT
	 Reference Energy          =    -435.8164646439763601 [Eh]
	 Singles Energy            =      -0.0000000000000000 [Eh]
	 Same-Spin Energy          =      -0.3303869929616041 [Eh]
	 Opposite-Spin Energy      =      -0.9262018299190331 [Eh]
	 Correlation Energy        =      -1.2565888228806372 [Eh]
	 Total Energy              =    -437.0730534668570044 [Eh]

	 ================> DF-SCS-MP2 Energies <==================
	-----------------------------------------------------------
	 SCS Same-Spin Scale       =       0.3333333333333333 [-]
	 SCS Opposite-Spin Scale   =       1.2000000000000000 [-]
	 SCS Same-Spin Energy      =      -0.1101289976538680 [Eh]
	 SCS Opposite-Spin Energy  =      -1.1114421959028398 [Eh]
	 SCS Correlation Energy    =      -1.2215711935567077 [Eh]
	 SCS Total Energy          =    -437.0380358375330729 [Eh]
	-----------------------------------------------------------

  Dipole Moment: [D]
     X:    -0.1052      Y:     0.0810      Z:     0.0249     Total:     0.1351

*** Psi4 exiting successfully. Buy a developer a beer!
