                               Psi4 1.3.2 release

  ==> Input File <==

--------------------------------------------------------------------------
#psi4
#
memory 32 gb

molecule  {
0 1
  F        0.0333791    -0.3761911     1.2755379
  F       -0.9758850     0.8758910    -0.2239650
  F       -0.1919820    -1.0798600    -0.7527970
  F        1.1706460     0.5522470    -0.3071110
  C        0.0000030     0.0000010     0.0000050
units angstrom
no_reorient  #important for SAPT in psi4, default
symmetry c1  #important for SAPT in psi4, default
}

set PROPERTIES_ORIGIN ["COM"]
properties('MP2/aug-cc-pvtz', properties = ['dipole'])
--------------------------------------------------------------------------

    Molecular point group: c1
  Charge       = 0
  Multiplicity = 1
  Basis Set: AUG-CC-PVTZ
    Blend: AUG-CC-PVTZ
  Basis Set: (AUG-CC-PVTZ AUX)
    Blend: AUG-CC-PVTZ-JKFIT

    Orbital Energies [Eh]
    ---------------------

    Doubly Occupied:

       1A    -26.381688     2A    -26.378533     3A    -26.377048
       4A    -26.377024     5A    -11.616116     6A     -1.798405
       7A     -1.681145     8A     -1.676862     9A     -1.675477
      10A     -1.010805    11A     -0.887471    12A     -0.885280
      13A     -0.884085    14A     -0.764854    15A     -0.761634
      16A     -0.713730    17A     -0.711095    18A     -0.710649
      19A     -0.687244    20A     -0.686324    21A     -0.684659

  @DF-RHF Final Energy:  -435.81743447616196

   => Energetics <=

    Nuclear Repulsion Energy =            204.3216828478349214
    One-Electron Energy =               -1013.5779818234420873
    Two-Electron Energy =                 373.4388644994451738
    Total Energy =                       -435.8174344761619636
  Basis Set: (AUG-CC-PVTZ AUX)
    Blend: AUG-CC-PVTZ-RI
    Molecular point group: c1

    Geometry (in Angstrom), charge = 0, multiplicity = 1:

       Center              X                  Y                   Z               Mass
    ------------   -----------------  -----------------  -----------------  -----------------
         F            0.025571917857    -0.370164613402     1.277336821370    18.998403162730
         F           -0.983692182143     0.881917486598    -0.222166078630    18.998403162730
         F           -0.199789182143    -1.073833513402    -0.750998078630    18.998403162730
         F            1.162838817857     0.558273486598    -0.305312078630    18.998403162730
         C           -0.007804182143     0.006027486598     0.001803921370    12.000000000000

  Basis Set: AUG-CC-PVTZ
    Blend: AUG-CC-PVTZ
  Basis Set: (AUG-CC-PVTZ AUX)
    Blend: AUG-CC-PVTZ-JKFIT
	 Reference Energy          =    -435.8174344761619636 [Eh]
	 Singles Energy            =      -0.0000000000000000 [Eh]
	 Same-Spin Energy          =      -0.3303648387093970 [Eh]
	 Opposite-Spin Energy      =      -0.9261565537541160 [Eh]
	 Correlation Energy        =      -1.2565213924635130 [Eh]
	 Total Energy              =    -437.0739558686254895 [Eh]

	 ================> DF-SCS-MP2 Energies <==================
	-----------------------------------------------------------
	 SCS Same-Spin Scale       =       0.3333333333333333 [-]
	 SCS Opposite-Spin Scale   =       1.2000000000000000 [-]
	 SCS Same-Spin Energy      =      -0.1101216129031323 [Eh]
	 SCS Opposite-Spin Energy  =      -1.1113878645049391 [Eh]
	 SCS Correlation Energy    =      -1.2215094774080715 [Eh]
	 SCS Total Energy          =    -437.0389439535700262 [Eh]
	-----------------------------------------------------------

  Dipole Moment: [D]
     X:    -0.0527      Y:     0.0408      Z:     0.0118     Total:     0.0677

*** Psi4 exiting successfully. Buy a developer a beer!
