                               Psi4 1.4a3.dev225

  ==> Input File <==

--------------------------------------------------------------------------
#psi4
#
memory 32 gb

molecule  {
0 1
  F       -1.0804830    -0.7645010    -0.1361910
  F       -0.0639430     1.0151310    -0.8578250
  F        1.0890430    -0.7229080    -0.2486870
  F        0.0553850     0.4722830     1.2427050
  C       -0.0406050    -0.0287359    -0.0051206
units angstrom
no_reorient  #important for SAPT in psi4, default
symmetry c1  #important for SAPT in psi4, default
}

set PROPERTIES_ORIGIN ["COM"]
properties('MP2/aug-cc-pvtz', properties = ['dipole'])
--------------------------------------------------------------------------

    Molecular point group: c1
  Charge       = 0
  Multiplicity = 1
  Basis Set: AUG-CC-PVTZ
    Blend: AUG-CC-PVTZ
  Basis Set: (AUG-CC-PVTZ AUX)
    Blend: AUG-CC-PVTZ-JKFIT

    Orbital Energies [Eh]
    ---------------------

    Doubly Occupied:

       1A    -26.401332     2A    -26.371059     3A    -26.371058
       4A    -26.371023     5A    -11.616711     6A     -1.803957
       7A     -1.699311     8A     -1.664647     9A     -1.664645
      10A     -1.012674    11A     -0.893896    12A     -0.884152
      13A     -0.884151    14A     -0.763921    15A     -0.763921
      16A     -0.720936    17A     -0.707459    18A     -0.707458
      19A     -0.685562    20A     -0.685561    21A     -0.677902

  @DF-RHF Final Energy:  -435.81459932356904

   => Energetics <=

    Nuclear Repulsion Energy =            204.2683930178812375
    One-Electron Energy =               -1013.4633139738767795
    Two-Electron Energy =                 373.3803216324264440
    Total Energy =                       -435.8145993235690412
  Basis Set: (AUG-CC-PVTZ AUX)
    Blend: AUG-CC-PVTZ-RI
    Molecular point group: c1

    Geometry (in Angstrom), charge = 0, multiplicity = 1:

       Center              X                  Y                   Z               Mass
    ------------   -----------------  -----------------  -----------------  -----------------
         F           -1.074945984431    -0.760583263273    -0.135493117491    18.998403162730
         F           -0.058405984431     1.019048736727    -0.857127117491    18.998403162730
         F            1.094580015569    -0.718990263273    -0.247989117491    18.998403162730
         F            0.060922015569     0.476200736727     1.243402882509    18.998403162730
         C           -0.035067984431    -0.024818163273    -0.004422717491    12.000000000000

  Basis Set: AUG-CC-PVTZ
    Blend: AUG-CC-PVTZ
  Basis Set: (AUG-CC-PVTZ AUX)
    Blend: AUG-CC-PVTZ-JKFIT
	 Reference Energy          =    -435.8145993235690412 [Eh]
	 Singles Energy            =      -0.0000000000000000 [Eh]
	 Same-Spin Energy          =      -0.3304651468299611 [Eh]
	 Opposite-Spin Energy      =      -0.9264056388163575 [Eh]
	 Correlation Energy        =      -1.2568707856463186 [Eh]
	 Total Energy              =    -437.0714701092153405 [Eh]

	 ================> DF-SCS-MP2 Energies <==================
	-----------------------------------------------------------
	 SCS Same-Spin Scale       =       0.3333333333333333 [-]
	 SCS Opposite-Spin Scale   =       1.2000000000000000 [-]
	 SCS Same-Spin Energy      =      -0.1101550489433204 [Eh]
	 SCS Opposite-Spin Energy  =      -1.1116867665796291 [Eh]
	 SCS Correlation Energy    =      -1.2218418155229493 [Eh]
	 SCS Total Energy          =    -437.0364411390920054 [Eh]
	-----------------------------------------------------------

  Dipole Moment: [D]
     X:    -0.3991      Y:    -0.2824      Z:    -0.0503     Total:     0.4915

*** Psi4 exiting successfully. Buy a developer a beer!
