                               Psi4 1.3.2 release

  ==> Input File <==

--------------------------------------------------------------------------
#psi4
#
memory 32 gb

molecule  {
0 1
  F       -0.0208610    -0.3341617     1.2874515
  F       -0.9758850     0.8758910    -0.2239650
  F       -0.1919820    -1.0798600    -0.7527970
  F        1.1706460     0.5522470    -0.3071110
  C        0.0000030     0.0000010     0.0000050
units angstrom
no_reorient  #important for SAPT in psi4, default
symmetry c1  #important for SAPT in psi4, default
}

set PROPERTIES_ORIGIN ["COM"]
properties('MP2/aug-cc-pvtz', properties = ['dipole'])
--------------------------------------------------------------------------

    Molecular point group: c1
  Charge       = 0
  Multiplicity = 1
  Basis Set: AUG-CC-PVTZ
    Blend: AUG-CC-PVTZ
  Basis Set: (AUG-CC-PVTZ AUX)
    Blend: AUG-CC-PVTZ-JKFIT

    Orbital Energies [Eh]
    ---------------------

    Doubly Occupied:

       1A    -26.379403     2A    -26.379380     3A    -26.378597
       4A    -26.377034     5A    -11.616114     6A     -1.798381
       7A     -1.679040     8A     -1.678359     9A     -1.676165
      10A     -1.010812    11A     -0.886387    12A     -0.885800
      13A     -0.884685    14A     -0.764035    15A     -0.762427
      16A     -0.712381    17A     -0.712133    18A     -0.710842
      19A     -0.687003    20A     -0.686132    21A     -0.685475

  @DF-RHF Final Energy:  -435.81767874851187

   => Energetics <=

    Nuclear Repulsion Energy =            204.3133059223778218
    One-Electron Energy =               -1013.5607967028632856
    Two-Electron Energy =                 373.4298120319735972
    Total Energy =                       -435.8176787485118666
  Basis Set: (AUG-CC-PVTZ AUX)
    Blend: AUG-CC-PVTZ-RI
    Molecular point group: c1

    Geometry (in Angstrom), charge = 0, multiplicity = 1:

       Center              X                  Y                   Z               Mass
    ------------   -----------------  -----------------  -----------------  -----------------
         F           -0.016957385685    -0.337209638941     1.286678196306    18.998403162730
         F           -0.971981385685     0.872843061059    -0.224738303694    18.998403162730
         F           -0.188078385685    -1.082907938941    -0.753570303694    18.998403162730
         F            1.174549614315     0.549199061059    -0.307884303694    18.998403162730
         C            0.003906614315    -0.003046938941    -0.000768303694    12.000000000000

  Basis Set: AUG-CC-PVTZ
    Blend: AUG-CC-PVTZ
  Basis Set: (AUG-CC-PVTZ AUX)
    Blend: AUG-CC-PVTZ-JKFIT
	 Reference Energy          =    -435.8176787485118666 [Eh]
	 Singles Energy            =      -0.0000000000000000 [Eh]
	 Same-Spin Energy          =      -0.3303592760078711 [Eh]
	 Opposite-Spin Energy      =      -0.9261452089176323 [Eh]
	 Correlation Energy        =      -1.2565044849255034 [Eh]
	 Total Energy              =    -437.0741832334373953 [Eh]

	 ================> DF-SCS-MP2 Energies <==================
	-----------------------------------------------------------
	 SCS Same-Spin Scale       =       0.3333333333333333 [-]
	 SCS Opposite-Spin Scale   =       1.2000000000000000 [-]
	 SCS Same-Spin Energy      =      -0.1101197586692904 [Eh]
	 SCS Opposite-Spin Energy  =      -1.1113742507011588 [Eh]
	 SCS Correlation Energy    =      -1.2214940093704492 [Eh]
	 SCS Total Energy          =    -437.0391727578823406 [Eh]
	-----------------------------------------------------------

  Dipole Moment: [D]
     X:     0.0265      Y:    -0.0207      Z:    -0.0052     Total:     0.0340

*** Psi4 exiting successfully. Buy a developer a beer!
