                               Psi4 1.4a3.dev225

  ==> Input File <==

--------------------------------------------------------------------------
#psi4
#
memory 32 gb

molecule  {
0 1
  F       -1.0804830    -0.7645010    -0.1361910
  F       -0.0639430     1.0151310    -0.8578250
  F        1.0890430    -0.7229080    -0.2486870
  F        0.0553850     0.4722830     1.2427050
  C        0.0405990     0.0287199     0.0051146
units angstrom
no_reorient  #important for SAPT in psi4, default
symmetry c1  #important for SAPT in psi4, default
}

set PROPERTIES_ORIGIN ["COM"]
properties('MP2/aug-cc-pvtz', properties = ['dipole'])
--------------------------------------------------------------------------

    Molecular point group: c1
  Charge       = 0
  Multiplicity = 1
  Basis Set: AUG-CC-PVTZ
    Blend: AUG-CC-PVTZ
  Basis Set: (AUG-CC-PVTZ AUX)
    Blend: AUG-CC-PVTZ-JKFIT

    Orbital Energies [Eh]
    ---------------------

    Doubly Occupied:

       1A    -26.386116     2A    -26.386114     3A    -26.386080
       4A    -26.356170     5A    -11.616776     6A     -1.801493
       7A     -1.690521     8A     -1.690518     9A     -1.649826
      10A     -1.012099    11A     -0.890993    12A     -0.890992
      13A     -0.879225    14A     -0.764213    15A     -0.764212
      16A     -0.719062    17A     -0.719060    18A     -0.697371
      19A     -0.694381    20A     -0.677916    21A     -0.677915

  @DF-RHF Final Energy:  -435.81496341283969

   => Energetics <=

    Nuclear Repulsion Energy =            204.2633458361670478
    One-Electron Energy =               -1013.4545128055508485
    Two-Electron Energy =                 373.3762035565441693
    Total Energy =                       -435.8149634128396883
  Basis Set: (AUG-CC-PVTZ AUX)
    Blend: AUG-CC-PVTZ-RI
    Molecular point group: c1

    Geometry (in Angstrom), charge = 0, multiplicity = 1:

       Center              X                  Y                   Z               Mass
    ------------   -----------------  -----------------  -----------------  -----------------
         F           -1.086020060954    -0.768418713816    -0.136888927894    18.998403162730
         F           -0.069480060954     1.011213286184    -0.858522927894    18.998403162730
         F            1.083505939046    -0.726825713816    -0.249384927894    18.998403162730
         F            0.049847939046     0.468365286184     1.242007072106    18.998403162730
         C            0.035061939046     0.024802186184     0.004416672106    12.000000000000

  Basis Set: AUG-CC-PVTZ
    Blend: AUG-CC-PVTZ
  Basis Set: (AUG-CC-PVTZ AUX)
    Blend: AUG-CC-PVTZ-JKFIT
	 Reference Energy          =    -435.8149634128396883 [Eh]
	 Singles Energy            =      -0.0000000000000000 [Eh]
	 Same-Spin Energy          =      -0.3304646334483935 [Eh]
	 Opposite-Spin Energy      =      -0.9263929817413350 [Eh]
	 Correlation Energy        =      -1.2568576151897286 [Eh]
	 Total Energy              =    -437.0718210280294329 [Eh]

	 ================> DF-SCS-MP2 Energies <==================
	-----------------------------------------------------------
	 SCS Same-Spin Scale       =       0.3333333333333333 [-]
	 SCS Opposite-Spin Scale   =       1.2000000000000000 [-]
	 SCS Same-Spin Energy      =      -0.1101548778161312 [Eh]
	 SCS Opposite-Spin Energy  =      -1.1116715780896020 [Eh]
	 SCS Correlation Energy    =      -1.2218264559057332 [Eh]
	 SCS Total Energy          =    -437.0367898687454158 [Eh]
	-----------------------------------------------------------

  Dipole Moment: [D]
     X:     0.3947      Y:     0.2792      Z:     0.0497     Total:     0.4861

*** Psi4 exiting successfully. Buy a developer a beer!
