                               Psi4 1.3.2 release

  ==> Input File <==

--------------------------------------------------------------------------
#psi4
#
memory 32 gb

molecule  {
0 1
  F       -0.0027800    -0.3482790     1.2838710
  F       -0.9758850     0.8758910    -0.2239650
  F       -0.1919820    -1.0798600    -0.7527970
  F        1.1706460     0.5522470    -0.3071110
  C        0.0004214     0.0523633    -0.1930184
units angstrom
no_reorient  #important for SAPT in psi4, default
symmetry c1  #important for SAPT in psi4, default
}

set PROPERTIES_ORIGIN ["COM"]
properties('MP2/aug-cc-pvtz', properties = ['dipole'])
--------------------------------------------------------------------------

    Molecular point group: c1
  Charge       = 0
  Multiplicity = 1
  Basis Set: AUG-CC-PVTZ
    Blend: AUG-CC-PVTZ
  Basis Set: (AUG-CC-PVTZ AUX)
    Blend: AUG-CC-PVTZ-JKFIT

    Orbital Energies [Eh]
    ---------------------

    Doubly Occupied:

       1A    -26.408708     2A    -26.408707     3A    -26.408674
       4A    -26.286689     5A    -11.625727     6A     -1.825708
       7A     -1.726103     8A     -1.726101     9A     -1.562626
      10A     -1.024410    11A     -0.916693    12A     -0.916692
      13A     -0.877429    14A     -0.775443    15A     -0.775442
      16A     -0.746214    17A     -0.746213    18A     -0.717802
      19A     -0.632198    20A     -0.626438    21A     -0.626438

  @DF-RHF Final Energy:  -435.78157255835032

   => Energetics <=

    Nuclear Repulsion Energy =            204.1598587195742311
    One-Electron Energy =               -1013.1619533534382072
    Two-Electron Energy =                 373.2205220755136565
    Total Energy =                       -435.7815725583503195
  Basis Set: (AUG-CC-PVTZ AUX)
    Blend: AUG-CC-PVTZ-RI
    Molecular point group: c1

    Geometry (in Angstrom), charge = 0, multiplicity = 1:

       Center              X                  Y                   Z               Mass
    ------------   -----------------  -----------------  -----------------  -----------------
         F           -0.002837251901    -0.355419752410     1.310194033309    18.998403162730
         F           -0.975942251901     0.868750247590    -0.197641966691    18.998403162730
         F           -0.192039251901    -1.087000752410    -0.726473966691    18.998403162730
         F            1.170588748099     0.545106247590    -0.280787966691    18.998403162730
         C            0.000364148099     0.045222547590    -0.166695366691    12.000000000000

  Basis Set: AUG-CC-PVTZ
    Blend: AUG-CC-PVTZ
  Basis Set: (AUG-CC-PVTZ AUX)
    Blend: AUG-CC-PVTZ-JKFIT
	 Reference Energy          =    -435.7815725583503195 [Eh]
	 Singles Energy            =      -0.0000000000000000 [Eh]
	 Same-Spin Energy          =      -0.3317434611769836 [Eh]
	 Opposite-Spin Energy      =      -0.9288545741783045 [Eh]
	 Correlation Energy        =      -1.2605980353552881 [Eh]
	 Total Energy              =    -437.0421705937056345 [Eh]

	 ================> DF-SCS-MP2 Energies <==================
	-----------------------------------------------------------
	 SCS Same-Spin Scale       =       0.3333333333333333 [-]
	 SCS Opposite-Spin Scale   =       1.2000000000000000 [-]
	 SCS Same-Spin Energy      =      -0.1105811537256612 [Eh]
	 SCS Opposite-Spin Energy  =      -1.1146254890139653 [Eh]
	 SCS Correlation Energy    =      -1.2252066427396264 [Eh]
	 SCS Total Energy          =    -437.0067792010899552 [Eh]
	-----------------------------------------------------------

  Dipole Moment: [D]
     X:     0.0041      Y:     0.5109      Z:    -1.8834     Total:     1.9515

*** Psi4 exiting successfully. Buy a developer a beer!
