                               Psi4 1.4a2.dev612

  ==> Input File <==

--------------------------------------------------------------------------
#psi4
#
memory 32 gb

molecule  {
0 1
  O       -2.5416370     0.0659770    -0.3927070
  N       -0.7122740    -1.2241950    -0.0249760
  C        1.8380290     0.7314390    -0.0343340
  C        1.7187040    -0.7521010    -0.3806110
  C        0.5749500     1.5632640    -0.2598230
  C        0.6466580    -1.4925250     0.4187290
  C       -0.7290552     1.0759062     0.8756599
  C       -1.3868420    -0.0349600     0.0307530
  H        2.6566510     1.1652070    -0.6217190
  H        2.1344690     0.8237010     1.0199600
  H        1.5025340    -0.8781880    -1.4483810
  H        2.6863370    -1.2343500    -0.1898600
  H        0.2863390     1.5300770    -1.3181450
  H        0.8108260     2.6104720    -0.0371320
  H        0.7923570    -2.5718330     0.3164690
  H        0.7525260    -1.2638240     1.4882170
  H       -1.3561390     1.9546950     0.6612310
  H       -0.2921570     0.9237120     1.6255030
  H       -1.2491170    -1.9758090    -0.4428220
units angstrom
no_reorient  #important for SAPT in psi4, default
symmetry c1  #important for SAPT in psi4, default
}

set PROPERTIES_ORIGIN ["COM"]
properties('MP2/aug-cc-pvtz', properties = ['dipole'])
--------------------------------------------------------------------------

    Molecular point group: c1
  Charge       = 0
  Multiplicity = 1
  Basis Set: AUG-CC-PVTZ
    Blend: AUG-CC-PVTZ
  Basis Set: (AUG-CC-PVTZ AUX)
    Blend: AUG-CC-PVTZ-JKFIT

    Orbital Energies [Eh]
    ---------------------

    Doubly Occupied:

       1A    -20.508454     2A    -15.577211     3A    -11.348225
       4A    -11.277429     5A    -11.249281     6A    -11.234142
       7A    -11.234036     8A    -11.233479     9A     -1.362466
      10A     -1.226983    11A     -1.083034    12A     -1.032117
      13A     -0.953759    14A     -0.883761    15A     -0.795732
      16A     -0.775943    17A     -0.700575    18A     -0.683995
      19A     -0.625339    20A     -0.618616    21A     -0.606090
      22A     -0.582721    23A     -0.571290    24A     -0.551592
      25A     -0.520665    26A     -0.513852    27A     -0.484037
      28A     -0.473710    29A     -0.433125    30A     -0.398074
      31A     -0.380949

  @DF-RHF Final Energy:  -362.99306805917394

   => Energetics <=

    Nuclear Repulsion Energy =            391.4677546691594330
    One-Electron Energy =               -1269.0802805636774337
    Two-Electron Energy =                 514.6194578353440647
    Total Energy =                       -362.9930680591739929
  Basis Set: (AUG-CC-PVTZ AUX)
    Blend: AUG-CC-PVTZ-RI
    Molecular point group: c1

    Geometry (in Angstrom), charge = 0, multiplicity = 1:

       Center              X                  Y                   Z               Mass
    ------------   -----------------  -----------------  -----------------  -----------------
         O           -2.454223531515     0.082801448933    -0.412471008122    15.994914619570
         N           -0.624860531515    -1.207370551067    -0.044740008122    14.003074004430
         C            1.925442468485     0.748263448933    -0.054098008122    12.000000000000
         C            1.806117468485    -0.735276551067    -0.400375008122    12.000000000000
         C            0.662363468485     1.580088448933    -0.279587008122    12.000000000000
         C            0.734071468485    -1.475700551067     0.398964991878    12.000000000000
         C           -0.641641731515     1.092730648933     0.855895891878    12.000000000000
         C           -1.299428531515    -0.018135551067     0.010988991878    12.000000000000
         H            2.744064468485     1.182031448933    -0.641483008122     1.007825032230
         H            2.221882468485     0.840525448933     1.000195991878     1.007825032230
         H            1.589947468485    -0.861363551067    -1.468145008122     1.007825032230
         H            2.773750468485    -1.217525551067    -0.209624008122     1.007825032230
         H            0.373752468485     1.546901448933    -1.337909008122     1.007825032230
         H            0.898239468485     2.627296448933    -0.056896008122     1.007825032230
         H            0.879770468485    -2.555008551067     0.296704991878     1.007825032230
         H            0.839939468485    -1.246999551067     1.468452991878     1.007825032230
         H           -1.268725531515     1.971519448933     0.641466991878     1.007825032230
         H           -0.204743531515     0.940536448933     1.605738991878     1.007825032230
         H           -1.161703531515    -1.958984551067    -0.462586008122     1.007825032230

  Basis Set: AUG-CC-PVTZ
    Blend: AUG-CC-PVTZ
  Basis Set: (AUG-CC-PVTZ AUX)
    Blend: AUG-CC-PVTZ-JKFIT
	 Reference Energy          =    -362.9930680591739360 [Eh]
	 Singles Energy            =      -0.0000000000000000 [Eh]
	 Same-Spin Energy          =      -0.3785035928952363 [Eh]
	 Opposite-Spin Energy      =      -1.2515994289725072 [Eh]
	 Correlation Energy        =      -1.6301030218677435 [Eh]
	 Total Energy              =    -364.6231710810416757 [Eh]

	 ================> DF-SCS-MP2 Energies <==================
	-----------------------------------------------------------
	 SCS Same-Spin Scale       =       0.3333333333333333 [-]
	 SCS Opposite-Spin Scale   =       1.2000000000000000 [-]
	 SCS Same-Spin Energy      =      -0.1261678642984121 [Eh]
	 SCS Opposite-Spin Energy  =      -1.5019193147670087 [Eh]
	 SCS Correlation Energy    =      -1.6280871790654208 [Eh]
	 SCS Total Energy          =    -364.6211552382393393 [Eh]
	-----------------------------------------------------------

  Dipole Moment: [D]
     X:     4.1479      Y:    -1.0182      Z:     0.9035     Total:     4.3656

*** Psi4 exiting successfully. Buy a developer a beer!
