                               Psi4 1.4a2.dev612

  ==> Input File <==

--------------------------------------------------------------------------
#psi4
#
memory 32 gb

molecule  {
0 1
  O       -2.5416370     0.0659770    -0.3927070
  N       -0.7122740    -1.2241950    -0.0249760
  C        1.8380290     0.7314390    -0.0343340
  C        1.7187040    -0.7521010    -0.3806110
  C        0.5749500     1.5632640    -0.2598230
  C        0.6466580    -1.4925250     0.4187290
  C       -0.7118405     1.0873382     0.8301301
  C       -1.3868420    -0.0349600     0.0307530
  H        2.6566510     1.1652070    -0.6217190
  H        2.1344690     0.8237010     1.0199600
  H        1.5025340    -0.8781880    -1.4483810
  H        2.6863370    -1.2343500    -0.1898600
  H        0.2863390     1.5300770    -1.3181450
  H        0.8108260     2.6104720    -0.0371320
  H        0.7923570    -2.5718330     0.3164690
  H        0.7525260    -1.2638240     1.4882170
  H       -1.3561390     1.9546950     0.6612310
  H       -0.2921570     0.9237120     1.6255030
  H       -1.2491170    -1.9758090    -0.4428220
units angstrom
no_reorient  #important for SAPT in psi4, default
symmetry c1  #important for SAPT in psi4, default
}

set PROPERTIES_ORIGIN ["COM"]
properties('MP2/aug-cc-pvtz', properties = ['dipole'])
--------------------------------------------------------------------------

    Molecular point group: c1
  Charge       = 0
  Multiplicity = 1
  Basis Set: AUG-CC-PVTZ
    Blend: AUG-CC-PVTZ
  Basis Set: (AUG-CC-PVTZ AUX)
    Blend: AUG-CC-PVTZ-JKFIT

    Orbital Energies [Eh]
    ---------------------

    Doubly Occupied:

       1A    -20.508289     2A    -15.577419     3A    -11.346556
       4A    -11.277437     5A    -11.247175     6A    -11.234050
       7A    -11.233215     8A    -11.232829     9A     -1.362469
      10A     -1.227153    11A     -1.083910    12A     -1.033260
      13A     -0.952008    14A     -0.884265    15A     -0.794194
      16A     -0.774148    17A     -0.695894    18A     -0.683998
      19A     -0.624477    20A     -0.618039    21A     -0.606049
      22A     -0.583636    23A     -0.572426    24A     -0.549009
      25A     -0.522300    26A     -0.514652    27A     -0.483683
      28A     -0.473431    29A     -0.438583    30A     -0.402383
      31A     -0.381563

  @DF-RHF Final Energy:  -363.01901323609763

   => Energetics <=

    Nuclear Repulsion Energy =            391.9333659563195056
    One-Electron Energy =               -1270.0677580545564069
    Two-Electron Energy =                 515.1153788621393232
    Total Energy =                       -363.0190132360976349
  Basis Set: (AUG-CC-PVTZ AUX)
    Blend: AUG-CC-PVTZ-RI
    Molecular point group: c1

    Geometry (in Angstrom), charge = 0, multiplicity = 1:

       Center              X                  Y                   Z               Mass
    ------------   -----------------  -----------------  -----------------  -----------------
         O           -2.456050282277     0.081588333706    -0.407639579353    15.994914619570
         N           -0.626687282277    -1.208583666294    -0.039908579353    14.003074004430
         C            1.923615717723     0.747050333706    -0.049266579353    12.000000000000
         C            1.804290717723    -0.736489666294    -0.395543579353    12.000000000000
         C            0.660536717723     1.578875333706    -0.274755579353    12.000000000000
         C            0.732244717723    -1.476913666294     0.403796420647    12.000000000000
         C           -0.626253782277     1.102949533706     0.815197520647    12.000000000000
         C           -1.301255282277    -0.019348666294     0.015820420647    12.000000000000
         H            2.742237717723     1.180818333706    -0.636651579353     1.007825032230
         H            2.220055717723     0.839312333706     1.005027420647     1.007825032230
         H            1.588120717723    -0.862576666294    -1.463313579353     1.007825032230
         H            2.771923717723    -1.218738666294    -0.204792579353     1.007825032230
         H            0.371925717723     1.545688333706    -1.333077579353     1.007825032230
         H            0.896412717723     2.626083333706    -0.052064579353     1.007825032230
         H            0.877943717723    -2.556221666294     0.301536420647     1.007825032230
         H            0.838112717723    -1.248212666294     1.473284420647     1.007825032230
         H           -1.270552282277     1.970306333706     0.646298420647     1.007825032230
         H           -0.206570282277     0.939323333706     1.610570420647     1.007825032230
         H           -1.163530282277    -1.960197666294    -0.457754579353     1.007825032230

  Basis Set: AUG-CC-PVTZ
    Blend: AUG-CC-PVTZ
  Basis Set: (AUG-CC-PVTZ AUX)
    Blend: AUG-CC-PVTZ-JKFIT
	 Reference Energy          =    -363.0190132360976349 [Eh]
	 Singles Energy            =      -0.0000000000000000 [Eh]
	 Same-Spin Energy          =      -0.3780370335777126 [Eh]
	 Opposite-Spin Energy      =      -1.2501550342337173 [Eh]
	 Correlation Energy        =      -1.6281920678114299 [Eh]
	 Total Energy              =    -364.6472053039090611 [Eh]

	 ================> DF-SCS-MP2 Energies <==================
	-----------------------------------------------------------
	 SCS Same-Spin Scale       =       0.3333333333333333 [-]
	 SCS Opposite-Spin Scale   =       1.2000000000000000 [-]
	 SCS Same-Spin Energy      =      -0.1260123445259042 [Eh]
	 SCS Opposite-Spin Energy  =      -1.5001860410804608 [Eh]
	 SCS Correlation Energy    =      -1.6261983856063651 [Eh]
	 SCS Total Energy          =    -364.6452116217039929 [Eh]
	-----------------------------------------------------------

  Dipole Moment: [D]
     X:     4.1287      Y:    -1.0213      Z:     0.9236     Total:     4.3523

*** Psi4 exiting successfully. Buy a developer a beer!
