                               Psi4 1.4a2.dev612

  ==> Input File <==

--------------------------------------------------------------------------
#psi4
#
memory 32 gb

molecule  {
0 1
  O       -2.5416370     0.0659770    -0.3927070
  N       -0.7122740    -1.2241950    -0.0249760
  C        1.8380290     0.7314390    -0.0343340
  C        1.7187040    -0.7521010    -0.3806110
  C        0.5749500     1.5632640    -0.2598230
  C        0.6466580    -1.4925250     0.4187290
  C       -0.6946258     1.0987701     0.7846003
  C       -1.3868420    -0.0349600     0.0307530
  H        2.6566510     1.1652070    -0.6217190
  H        2.1344690     0.8237010     1.0199600
  H        1.5025340    -0.8781880    -1.4483810
  H        2.6863370    -1.2343500    -0.1898600
  H        0.2863390     1.5300770    -1.3181450
  H        0.8108260     2.6104720    -0.0371320
  H        0.7923570    -2.5718330     0.3164690
  H        0.7525260    -1.2638240     1.4882170
  H       -1.3561390     1.9546950     0.6612310
  H       -0.2921570     0.9237120     1.6255030
  H       -1.2491170    -1.9758090    -0.4428220
units angstrom
no_reorient  #important for SAPT in psi4, default
symmetry c1  #important for SAPT in psi4, default
}

set PROPERTIES_ORIGIN ["COM"]
properties('MP2/aug-cc-pvtz', properties = ['dipole'])
--------------------------------------------------------------------------

    Molecular point group: c1
  Charge       = 0
  Multiplicity = 1
  Basis Set: AUG-CC-PVTZ
    Blend: AUG-CC-PVTZ
  Basis Set: (AUG-CC-PVTZ AUX)
    Blend: AUG-CC-PVTZ-JKFIT

    Orbital Energies [Eh]
    ---------------------

    Doubly Occupied:

       1A    -20.508228     2A    -15.577645     3A    -11.345183
       4A    -11.277439     5A    -11.245081     6A    -11.234035
       7A    -11.233018     8A    -11.232250     9A     -1.362535
      10A     -1.227342    11A     -1.085081    12A     -1.034669
      13A     -0.950439    14A     -0.884896    15A     -0.793400
      16A     -0.772178    17A     -0.691536    18A     -0.683698
      19A     -0.623734    20A     -0.616954    21A     -0.606024
      22A     -0.584968    23A     -0.572927    24A     -0.545888
      25A     -0.524212    26A     -0.515354    27A     -0.483334
      28A     -0.473106    29A     -0.444964    30A     -0.405687
      31A     -0.381913

  @DF-RHF Final Energy:  -363.03999845448539

   => Energetics <=

    Nuclear Repulsion Energy =            392.3869824051631667
    One-Electron Energy =               -1271.0185268532839018
    Two-Electron Energy =                 515.5915459936353500
    Total Energy =                       -363.0399984544853851
  Basis Set: (AUG-CC-PVTZ AUX)
    Blend: AUG-CC-PVTZ-RI
    Molecular point group: c1

    Geometry (in Angstrom), charge = 0, multiplicity = 1:

       Center              X                  Y                   Z               Mass
    ------------   -----------------  -----------------  -----------------  -----------------
         O           -2.457877033038     0.080375229090    -0.402808150584    15.994914619570
         N           -0.628514033038    -1.209796770910    -0.035077150584    14.003074004430
         C            1.921788966962     0.745837229090    -0.044435150584    12.000000000000
         C            1.802463966962    -0.737702770910    -0.390712150584    12.000000000000
         C            0.658709966962     1.577662229090    -0.269924150584    12.000000000000
         C            0.730417966962    -1.478126770910     0.408627849416    12.000000000000
         C           -0.610865833038     1.113168329090     0.774499149416    12.000000000000
         C           -1.303082033038    -0.020561770910     0.020651849416    12.000000000000
         H            2.740410966962     1.179605229090    -0.631820150584     1.007825032230
         H            2.218228966962     0.838099229090     1.009858849416     1.007825032230
         H            1.586293966962    -0.863789770910    -1.458482150584     1.007825032230
         H            2.770096966962    -1.219951770910    -0.199961150584     1.007825032230
         H            0.370098966962     1.544475229090    -1.328246150584     1.007825032230
         H            0.894585966962     2.624870229090    -0.047233150584     1.007825032230
         H            0.876116966962    -2.557434770910     0.306367849416     1.007825032230
         H            0.836285966962    -1.249425770910     1.478115849416     1.007825032230
         H           -1.272379033038     1.969093229090     0.651129849416     1.007825032230
         H           -0.208397033038     0.938110229090     1.615401849416     1.007825032230
         H           -1.165357033038    -1.961410770910    -0.452923150584     1.007825032230

  Basis Set: AUG-CC-PVTZ
    Blend: AUG-CC-PVTZ
  Basis Set: (AUG-CC-PVTZ AUX)
    Blend: AUG-CC-PVTZ-JKFIT
	 Reference Energy          =    -363.0399984544853851 [Eh]
	 Singles Energy            =      -0.0000000000000000 [Eh]
	 Same-Spin Energy          =      -0.3777005184253070 [Eh]
	 Opposite-Spin Energy      =      -1.2490211930214401 [Eh]
	 Correlation Energy        =      -1.6267217114467472 [Eh]
	 Total Energy              =    -364.6667201659321336 [Eh]

	 ================> DF-SCS-MP2 Energies <==================
	-----------------------------------------------------------
	 SCS Same-Spin Scale       =       0.3333333333333333 [-]
	 SCS Opposite-Spin Scale   =       1.2000000000000000 [-]
	 SCS Same-Spin Energy      =      -0.1259001728084357 [Eh]
	 SCS Opposite-Spin Energy  =      -1.4988254316257281 [Eh]
	 SCS Correlation Energy    =      -1.6247256044341638 [Eh]
	 SCS Total Energy          =    -364.6647240589195462 [Eh]
	-----------------------------------------------------------

  Dipole Moment: [D]
     X:     4.1132      Y:    -1.0246      Z:     0.9347     Total:     4.3407

*** Psi4 exiting successfully. Buy a developer a beer!
