                               Psi4 1.4a2.dev612

  ==> Input File <==

--------------------------------------------------------------------------
#psi4
#
memory 32 gb

molecule  {
0 1
  O       -2.5416370     0.0659770    -0.3927070
  N       -0.7122740    -1.2241950    -0.0249760
  C        1.8380290     0.7314390    -0.0343340
  C        1.7187040    -0.7521010    -0.3806110
  C        0.5749500     1.5632640    -0.2598230
  C        0.6466580    -1.4925250     0.4187290
  C       -0.6429817     1.1330660     0.6480108
  C       -1.3868420    -0.0349600     0.0307530
  H        2.6566510     1.1652070    -0.6217190
  H        2.1344690     0.8237010     1.0199600
  H        1.5025340    -0.8781880    -1.4483810
  H        2.6863370    -1.2343500    -0.1898600
  H        0.2863390     1.5300770    -1.3181450
  H        0.8108260     2.6104720    -0.0371320
  H        0.7923570    -2.5718330     0.3164690
  H        0.7525260    -1.2638240     1.4882170
  H       -1.3561390     1.9546950     0.6612310
  H       -0.2921570     0.9237120     1.6255030
  H       -1.2491170    -1.9758090    -0.4428220
units angstrom
no_reorient  #important for SAPT in psi4, default
symmetry c1  #important for SAPT in psi4, default
}

set PROPERTIES_ORIGIN ["COM"]
properties('MP2/aug-cc-pvtz', properties = ['dipole'])
--------------------------------------------------------------------------

    Molecular point group: c1
  Charge       = 0
  Multiplicity = 1
  Basis Set: AUG-CC-PVTZ
    Blend: AUG-CC-PVTZ
  Basis Set: (AUG-CC-PVTZ AUX)
    Blend: AUG-CC-PVTZ-JKFIT

    Orbital Energies [Eh]
    ---------------------

    Doubly Occupied:

       1A    -20.508696     2A    -15.578405     3A    -11.343055
       4A    -11.277384     5A    -11.238692     6A    -11.234250
       7A    -11.234232     8A    -11.232914     9A     -1.363132
      10A     -1.228014    11A     -1.090941    12A     -1.040110
      13A     -0.946524    14A     -0.887493    15A     -0.794344
      16A     -0.766068    17A     -0.687570    18A     -0.678216
      19A     -0.624817    20A     -0.611926    21A     -0.604034
      22A     -0.590179    23A     -0.571271    24A     -0.541321
      25A     -0.523726    26A     -0.516810    27A     -0.481956
      28A     -0.471265    29A     -0.464799    30A     -0.410329
      31A     -0.382558

  @DF-RHF Final Energy:  -363.07374479628430

   => Energetics <=

    Nuclear Repulsion Energy =            393.6784179624659146
    One-Electron Energy =               -1273.6542612513021595
    Two-Electron Energy =                 516.9020984925519997
    Total Energy =                       -363.0737447962842452
  Basis Set: (AUG-CC-PVTZ AUX)
    Blend: AUG-CC-PVTZ-RI
    Molecular point group: c1

    Geometry (in Angstrom), charge = 0, multiplicity = 1:

       Center              X                  Y                   Z               Mass
    ------------   -----------------  -----------------  -----------------  -----------------
         O           -2.463357285323     0.076735894019    -0.388313853666    15.994914619570
         N           -0.633994285323    -1.213436105981    -0.020582853666    14.003074004430
         C            1.916308714677     0.742197894019    -0.029940853666    12.000000000000
         C            1.796983714677    -0.741342105981    -0.376217853666    12.000000000000
         C            0.653229714677     1.574022894019    -0.255429853666    12.000000000000
         C            0.724937714677    -1.481766105981     0.423122146334    12.000000000000
         C           -0.564701985323     1.143824894019     0.652403946334    12.000000000000
         C           -1.308562285323    -0.024201105981     0.035146146334    12.000000000000
         H            2.734930714677     1.175965894019    -0.617325853666     1.007825032230
         H            2.212748714677     0.834459894019     1.024353146334     1.007825032230
         H            1.580813714677    -0.867429105981    -1.443987853666     1.007825032230
         H            2.764616714677    -1.223591105981    -0.185466853666     1.007825032230
         H            0.364618714677     1.540835894019    -1.313751853666     1.007825032230
         H            0.889105714677     2.621230894019    -0.032738853666     1.007825032230
         H            0.870636714677    -2.561074105981     0.320862146334     1.007825032230
         H            0.830805714677    -1.253065105981     1.492610146334     1.007825032230
         H           -1.277859285323     1.965453894019     0.665624146334     1.007825032230
         H           -0.213877285323     0.934470894019     1.629896146334     1.007825032230
         H           -1.170837285323    -1.965050105981    -0.438428853666     1.007825032230

  Basis Set: AUG-CC-PVTZ
    Blend: AUG-CC-PVTZ
  Basis Set: (AUG-CC-PVTZ AUX)
    Blend: AUG-CC-PVTZ-JKFIT
	 Reference Energy          =    -363.0737447962843021 [Eh]
	 Singles Energy            =      -0.0000000000000000 [Eh]
	 Same-Spin Energy          =      -0.3775059367683218 [Eh]
	 Opposite-Spin Energy      =      -1.2475282898383253 [Eh]
	 Correlation Energy        =      -1.6250342266066471 [Eh]
	 Total Energy              =    -364.6987790228909603 [Eh]

	 ================> DF-SCS-MP2 Energies <==================
	-----------------------------------------------------------
	 SCS Same-Spin Scale       =       0.3333333333333333 [-]
	 SCS Opposite-Spin Scale   =       1.2000000000000000 [-]
	 SCS Same-Spin Energy      =      -0.1258353122561073 [Eh]
	 SCS Opposite-Spin Energy  =      -1.4970339478059904 [Eh]
	 SCS Correlation Energy    =      -1.6228692600620978 [Eh]
	 SCS Total Energy          =    -364.6966140563463910 [Eh]
	-----------------------------------------------------------

  Dipole Moment: [D]
     X:     4.0799      Y:    -1.0339      Z:     0.9180     Total:     4.3078

*** Psi4 exiting successfully. Buy a developer a beer!
