                               Psi4 1.4a2.dev612

  ==> Input File <==

--------------------------------------------------------------------------
#psi4
#
memory 32 gb

molecule  {
0 1
  O       -2.5416370     0.0659770    -0.3927070
  N       -0.7122740    -1.2241950    -0.0249760
  C        1.8380290     0.7314390    -0.0343340
  C        1.7187040    -0.7521010    -0.3806110
  C        0.5749500     1.5632640    -0.2598230
  C        0.6466580    -1.4925250     0.4187290
  C       -0.6774111     1.1102021     0.7390705
  C       -1.3868420    -0.0349600     0.0307530
  H        2.6566510     1.1652070    -0.6217190
  H        2.1344690     0.8237010     1.0199600
  H        1.5025340    -0.8781880    -1.4483810
  H        2.6863370    -1.2343500    -0.1898600
  H        0.2863390     1.5300770    -1.3181450
  H        0.8108260     2.6104720    -0.0371320
  H        0.7923570    -2.5718330     0.3164690
  H        0.7525260    -1.2638240     1.4882170
  H       -1.3561390     1.9546950     0.6612310
  H       -0.2921570     0.9237120     1.6255030
  H       -1.2491170    -1.9758090    -0.4428220
units angstrom
no_reorient  #important for SAPT in psi4, default
symmetry c1  #important for SAPT in psi4, default
}

set PROPERTIES_ORIGIN ["COM"]
properties('MP2/aug-cc-pvtz', properties = ['dipole'])
--------------------------------------------------------------------------

    Molecular point group: c1
  Charge       = 0
  Multiplicity = 1
  Basis Set: AUG-CC-PVTZ
    Blend: AUG-CC-PVTZ
  Basis Set: (AUG-CC-PVTZ AUX)
    Blend: AUG-CC-PVTZ-JKFIT

    Orbital Energies [Eh]
    ---------------------

    Doubly Occupied:

       1A    -20.508275     2A    -15.577886     3A    -11.344132
       4A    -11.277432     5A    -11.242974     6A    -11.234068
       7A    -11.232900     8A    -11.232302     9A     -1.362667
      10A     -1.227549    11A     -1.086594    12A     -1.036307
      13A     -0.949021    14A     -0.885651    15A     -0.793238
      16A     -0.770142    17A     -0.688608    18A     -0.682502
      19A     -0.623505    20A     -0.615177    21A     -0.605902
      22A     -0.586612    23A     -0.572822    24A     -0.542529
      25A     -0.526085    26A     -0.515965    27A     -0.482958
      28A     -0.472691    29A     -0.451817    30A     -0.407998
      31A     -0.382157

  @DF-RHF Final Energy:  -363.05606287664625

   => Energetics <=

    Nuclear Repulsion Energy =            392.8288487872309247
    One-Electron Energy =               -1271.9328908293141467
    Two-Electron Energy =                 516.0479791654369137
    Total Energy =                       -363.0560628766462514
  Basis Set: (AUG-CC-PVTZ AUX)
    Blend: AUG-CC-PVTZ-RI
    Molecular point group: c1

    Geometry (in Angstrom), charge = 0, multiplicity = 1:

       Center              X                  Y                   Z               Mass
    ------------   -----------------  -----------------  -----------------  -----------------
         O           -2.459703783800     0.079162113862    -0.397976721815    15.994914619570
         N           -0.630340783800    -1.211009886138    -0.030245721815    14.003074004430
         C            1.919962216200     0.744624113862    -0.039603721815    12.000000000000
         C            1.800637216200    -0.738915886138    -0.385880721815    12.000000000000
         C            0.656883216200     1.576449113862    -0.265092721815    12.000000000000
         C            0.728591216200    -1.479339886138     0.413459278185    12.000000000000
         C           -0.595477883800     1.123387213862     0.733800778185    12.000000000000
         C           -1.304908783800    -0.021774886138     0.025483278185    12.000000000000
         H            2.738584216200     1.178392113862    -0.626988721815     1.007825032230
         H            2.216402216200     0.836886113862     1.014690278185     1.007825032230
         H            1.584467216200    -0.865002886138    -1.453650721815     1.007825032230
         H            2.768270216200    -1.221164886138    -0.195129721815     1.007825032230
         H            0.368272216200     1.543262113862    -1.323414721815     1.007825032230
         H            0.892759216200     2.623657113862    -0.042401721815     1.007825032230
         H            0.874290216200    -2.558647886138     0.311199278185     1.007825032230
         H            0.834459216200    -1.250638886138     1.482947278185     1.007825032230
         H           -1.274205783800     1.967880113862     0.655961278185     1.007825032230
         H           -0.210223783800     0.936897113862     1.620233278185     1.007825032230
         H           -1.167183783800    -1.962623886138    -0.448091721815     1.007825032230

  Basis Set: AUG-CC-PVTZ
    Blend: AUG-CC-PVTZ
  Basis Set: (AUG-CC-PVTZ AUX)
    Blend: AUG-CC-PVTZ-JKFIT
	 Reference Energy          =    -363.0560628766462514 [Eh]
	 Singles Energy            =      -0.0000000000000000 [Eh]
	 Same-Spin Energy          =      -0.3774974610620051 [Eh]
	 Opposite-Spin Energy      =      -1.2482038958457036 [Eh]
	 Correlation Energy        =      -1.6257013569077086 [Eh]
	 Total Energy              =    -364.6817642335539631 [Eh]

	 ================> DF-SCS-MP2 Energies <==================
	-----------------------------------------------------------
	 SCS Same-Spin Scale       =       0.3333333333333333 [-]
	 SCS Opposite-Spin Scale   =       1.2000000000000000 [-]
	 SCS Same-Spin Energy      =      -0.1258324870206683 [Eh]
	 SCS Opposite-Spin Energy  =      -1.4978446750148442 [Eh]
	 SCS Correlation Energy    =      -1.6236771620355126 [Eh]
	 SCS Total Energy          =    -364.6797400386817571 [Eh]
	-----------------------------------------------------------

  Dipole Moment: [D]
     X:     4.1002      Y:    -1.0278      Z:     0.9373     Total:     4.3297

*** Psi4 exiting successfully. Buy a developer a beer!
