                               Psi4 1.4a2.dev612

  ==> Input File <==

--------------------------------------------------------------------------
#psi4
#
memory 32 gb

molecule  {
0 1
  O       -2.5416370     0.0659770    -0.3927070
  N       -0.7122740    -1.2241950    -0.0249760
  C        1.8380290     0.7314390    -0.0343340
  C        1.7187040    -0.7521010    -0.3806110
  C        0.5749500     1.5632640    -0.2598230
  C        0.6466580    -1.4925250     0.4187290
  C       -0.6601964     1.1216341     0.6935406
  C       -1.3868420    -0.0349600     0.0307530
  H        2.6566510     1.1652070    -0.6217190
  H        2.1344690     0.8237010     1.0199600
  H        1.5025340    -0.8781880    -1.4483810
  H        2.6863370    -1.2343500    -0.1898600
  H        0.2863390     1.5300770    -1.3181450
  H        0.8108260     2.6104720    -0.0371320
  H        0.7923570    -2.5718330     0.3164690
  H        0.7525260    -1.2638240     1.4882170
  H       -1.3561390     1.9546950     0.6612310
  H       -0.2921570     0.9237120     1.6255030
  H       -1.2491170    -1.9758090    -0.4428220
units angstrom
no_reorient  #important for SAPT in psi4, default
symmetry c1  #important for SAPT in psi4, default
}

set PROPERTIES_ORIGIN ["COM"]
properties('MP2/aug-cc-pvtz', properties = ['dipole'])
--------------------------------------------------------------------------

    Molecular point group: c1
  Charge       = 0
  Multiplicity = 1
  Basis Set: AUG-CC-PVTZ
    Blend: AUG-CC-PVTZ
  Basis Set: (AUG-CC-PVTZ AUX)
    Blend: AUG-CC-PVTZ-JKFIT

    Orbital Energies [Eh]
    ---------------------

    Doubly Occupied:

       1A    -20.508432     2A    -15.578141     3A    -11.343420
       4A    -11.277415     5A    -11.240843     6A    -11.234136
       7A    -11.232977     8A    -11.232863     9A     -1.362866
      10A     -1.227773    11A     -1.088517    12A     -1.038134
      13A     -0.947724    14A     -0.886521    15A     -0.793584
      16A     -0.768100    17A     -0.687603    18A     -0.680300
      19A     -0.623894    20A     -0.613175    21A     -0.605394
      22A     -0.588400    23A     -0.572230    24A     -0.540255
      25A     -0.526612    26A     -0.516479    27A     -0.482515
      28A     -0.472115    29A     -0.458594    30A     -0.409492
      31A     -0.382362

  @DF-RHF Final Energy:  -363.06728568896244

   => Energetics <=

    Nuclear Repulsion Energy =            393.2592191371365971
    One-Electron Energy =               -1272.8112769210083570
    Two-Electron Energy =                 516.4847720949093173
    Total Energy =                       -363.0672856889624427
  Basis Set: (AUG-CC-PVTZ AUX)
    Blend: AUG-CC-PVTZ-RI
    Molecular point group: c1

    Geometry (in Angstrom), charge = 0, multiplicity = 1:

       Center              X                  Y                   Z               Mass
    ------------   -----------------  -----------------  -----------------  -----------------
         O           -2.461530534562     0.077948998635    -0.393145282435    15.994914619570
         N           -0.632167534562    -1.212223001365    -0.025414282435    14.003074004430
         C            1.918135465438     0.743410998635    -0.034772282435    12.000000000000
         C            1.798810465438    -0.740129001365    -0.381049282435    12.000000000000
         C            0.655056465438     1.575235998635    -0.260261282435    12.000000000000
         C            0.726764465438    -1.480553001365     0.418290717565    12.000000000000
         C           -0.580089934562     1.133606098635     0.693102317565    12.000000000000
         C           -1.306735534562    -0.022988001365     0.030314717565    12.000000000000
         H            2.736757465438     1.177178998635    -0.622157282435     1.007825032230
         H            2.214575465438     0.835672998635     1.019521717565     1.007825032230
         H            1.582640465438    -0.866216001365    -1.448819282435     1.007825032230
         H            2.766443465438    -1.222378001365    -0.190298282435     1.007825032230
         H            0.366445465438     1.542048998635    -1.318583282435     1.007825032230
         H            0.890932465438     2.622443998635    -0.037570282435     1.007825032230
         H            0.872463465438    -2.559861001365     0.316030717565     1.007825032230
         H            0.832632465438    -1.251852001365     1.487778717565     1.007825032230
         H           -1.276032534562     1.966666998635     0.660792717565     1.007825032230
         H           -0.212050534562     0.935683998635     1.625064717565     1.007825032230
         H           -1.169010534562    -1.963837001365    -0.443260282435     1.007825032230

  Basis Set: AUG-CC-PVTZ
    Blend: AUG-CC-PVTZ
  Basis Set: (AUG-CC-PVTZ AUX)
    Blend: AUG-CC-PVTZ-JKFIT
	 Reference Energy          =    -363.0672856889624427 [Eh]
	 Singles Energy            =      -0.0000000000000000 [Eh]
	 Same-Spin Energy          =      -0.3774314000011263 [Eh]
	 Opposite-Spin Energy      =      -1.2477066496915543 [Eh]
	 Correlation Energy        =      -1.6251380496926806 [Eh]
	 Total Energy              =    -364.6924237386551226 [Eh]

	 ================> DF-SCS-MP2 Energies <==================
	-----------------------------------------------------------
	 SCS Same-Spin Scale       =       0.3333333333333333 [-]
	 SCS Opposite-Spin Scale   =       1.2000000000000000 [-]
	 SCS Same-Spin Energy      =      -0.1258104666670421 [Eh]
	 SCS Opposite-Spin Energy  =      -1.4972479796298652 [Eh]
	 SCS Correlation Energy    =      -1.6230584462969073 [Eh]
	 SCS Total Energy          =    -364.6903441352593518 [Eh]
	-----------------------------------------------------------

  Dipole Moment: [D]
     X:     4.0892      Y:    -1.0310      Z:     0.9317     Total:     4.3189

*** Psi4 exiting successfully. Buy a developer a beer!
