                               Psi4 1.4a2.dev612

  ==> Input File <==

--------------------------------------------------------------------------
#psi4
#
memory 32 gb

molecule  {
0 1
  N        0.9996340     1.7721850     0.3204360
  N       -1.4856460     0.8456190    -0.6184330
  C        0.4210120    -0.5622280    -0.0768460
  C        1.3959190     0.4607190     0.0923330
  C       -1.0315900    -0.2881510    -0.0320430
  C        0.8419438    -1.9149722    -0.0847964
  C        2.7530010     0.0889630     0.1086070
  C        2.1912380    -2.2332610    -0.2798300
  C        3.1442100    -1.2359490    -0.0781950
  C       -1.9074690    -1.1902190     0.5957330
  C       -3.2772020    -0.9437210     0.5761060
  C        1.9752090     2.8430570     0.2492220
  C       -2.8095250     1.0776250    -0.6159580
  C       -3.7438200     0.2120800    -0.0497060
  H        0.0898220    -2.6479260    -0.4670950
  H        3.5165330     0.8472870     0.2502520
  H        0.1131400     1.9772450    -0.1334260
  H        2.4918570    -3.2637390    -0.4496120
  H        4.2036760    -1.4834020    -0.0698800
  H       -1.5082140    -2.0621420     1.1053590
  H       -3.9675240    -1.6332930     1.0562410
  H        2.5505250     2.8512150    -0.6889090
  H        2.6804910     2.7762290     1.0829750
  H        1.4421210     3.7916170     0.3400310
  H       -3.1269050     2.0013970    -1.0972120
  H       -4.8034740     0.4484120    -0.0854480
units angstrom
no_reorient  #important for SAPT in psi4, default
symmetry c1  #important for SAPT in psi4, default
}

set PROPERTIES_ORIGIN ["COM"]
properties('MP2/aug-cc-pvtz', properties = ['dipole'])
--------------------------------------------------------------------------

    Molecular point group: c1
  Charge       = 0
  Multiplicity = 1
  Basis Set: AUG-CC-PVTZ
    Blend: AUG-CC-PVTZ
  Basis Set: (AUG-CC-PVTZ AUX)
    Blend: AUG-CC-PVTZ-JKFIT

    Orbital Energies [Eh]
    ---------------------

    Doubly Occupied:

       1A    -15.567993     2A    -15.550976     3A    -11.289582
       4A    -11.280805     5A    -11.279440     6A    -11.262375
       7A    -11.249106     8A    -11.241474     9A    -11.240715
      10A    -11.240346    11A    -11.236531    12A    -11.236489
      13A    -11.222886    14A    -11.221862    15A     -1.262798
      16A     -1.229288    17A     -1.131945    18A     -1.088078
      19A     -1.060622    20A     -0.998466    21A     -0.992229
      22A     -0.915865    23A     -0.870693    24A     -0.859626
      25A     -0.804462    26A     -0.794661    27A     -0.720074
      28A     -0.696835    29A     -0.670111    30A     -0.657894
      31A     -0.648743    32A     -0.621348    33A     -0.608126
      34A     -0.599049    35A     -0.587545    36A     -0.575342
      37A     -0.568615    38A     -0.548275    39A     -0.533398
      40A     -0.528704    41A     -0.504806    42A     -0.495218
      43A     -0.485793    44A     -0.421901    45A     -0.417000
      46A     -0.388044    47A     -0.369166    48A     -0.317079
      49A     -0.278110

  @DF-RHF Final Energy:  -570.47673508517801

   => Energetics <=

    Nuclear Repulsion Energy =            818.2682718414801002
    One-Electron Energy =               -2396.7490358556779029
    Two-Electron Energy =                1008.0040289290197961
    Total Energy =                       -570.4767350851780066
  Basis Set: (AUG-CC-PVTZ AUX)
    Blend: AUG-CC-PVTZ-RI
    Molecular point group: c1

    Geometry (in Angstrom), charge = 0, multiplicity = 1:

       Center              X                  Y                   Z               Mass
    ------------   -----------------  -----------------  -----------------  -----------------
         N            1.019512757723     1.793609711643     0.312111614259    14.003074004430
         N           -1.465767242277     0.867043711643    -0.626757385741    14.003074004430
         C            0.440890757723    -0.540803288357    -0.085170385741    12.000000000000
         C            1.415797757723     0.482143711643     0.084008614259    12.000000000000
         C           -1.011711242277    -0.266726288357    -0.040367385741    12.000000000000
         C            0.861822557723    -1.893547488357    -0.093120785741    12.000000000000
         C            2.772879757723     0.110387711643     0.100282614259    12.000000000000
         C            2.211116757723    -2.211836288357    -0.288154385741    12.000000000000
         C            3.164088757723    -1.214524288357    -0.086519385741    12.000000000000
         C           -1.887590242277    -1.168794288357     0.587408614259    12.000000000000
         C           -3.257323242277    -0.922296288357     0.567781614259    12.000000000000
         C            1.995087757723     2.864481711643     0.240897614259    12.000000000000
         C           -2.789646242277     1.099049711643    -0.624282385741    12.000000000000
         C           -3.723941242277     0.233504711643    -0.058030385741    12.000000000000
         H            0.109700757723    -2.626501288357    -0.475419385741     1.007825032230
         H            3.536411757723     0.868711711643     0.241927614259     1.007825032230
         H            0.133018757723     1.998669711643    -0.141750385741     1.007825032230
         H            2.511735757723    -3.242314288357    -0.457936385741     1.007825032230
         H            4.223554757723    -1.461977288357    -0.078204385741     1.007825032230
         H           -1.488335242277    -2.040717288357     1.097034614259     1.007825032230
         H           -3.947645242277    -1.611868288357     1.047916614259     1.007825032230
         H            2.570403757723     2.872639711643    -0.697233385741     1.007825032230
         H            2.700369757723     2.797653711643     1.074650614259     1.007825032230
         H            1.461999757723     3.813041711643     0.331706614259     1.007825032230
         H           -3.107026242277     2.022821711643    -1.105536385741     1.007825032230
         H           -4.783595242277     0.469836711643    -0.093772385741     1.007825032230

  Basis Set: AUG-CC-PVTZ
    Blend: AUG-CC-PVTZ
  Basis Set: (AUG-CC-PVTZ AUX)
    Blend: AUG-CC-PVTZ-JKFIT
	 Reference Energy          =    -570.4767350851780066 [Eh]
	 Singles Energy            =      -0.0000000000000000 [Eh]
	 Same-Spin Energy          =      -0.6405243299302867 [Eh]
	 Opposite-Spin Energy      =      -1.9787440390280659 [Eh]
	 Correlation Energy        =      -2.6192683689583527 [Eh]
	 Total Energy              =    -573.0960034541363939 [Eh]

	 ================> DF-SCS-MP2 Energies <==================
	-----------------------------------------------------------
	 SCS Same-Spin Scale       =       0.3333333333333333 [-]
	 SCS Opposite-Spin Scale   =       1.2000000000000000 [-]
	 SCS Same-Spin Energy      =      -0.2135081099767622 [Eh]
	 SCS Opposite-Spin Energy  =      -2.3744928468336792 [Eh]
	 SCS Correlation Energy    =      -2.5880009568104416 [Eh]
	 SCS Total Energy          =    -573.0647360419884535 [Eh]
	-----------------------------------------------------------

  Dipole Moment: [D]
     X:    -1.5835      Y:     0.2483      Z:     0.2460     Total:     1.6216

*** Psi4 exiting successfully. Buy a developer a beer!
