                               Psi4 1.4a2.dev612

  ==> Input File <==

--------------------------------------------------------------------------
#psi4
#
memory 32 gb

molecule  {
0 1
  N        0.9996340     1.7721850     0.3204360
  N       -1.4856460     0.8456190    -0.6184330
  C        0.4210120    -0.5622280    -0.0768460
  C        1.3959190     0.4607190     0.0923330
  C       -1.0315900    -0.2881510    -0.0320430
  C        0.8423560    -1.8835050    -0.2823050
  C        2.7530010     0.0889630     0.1086070
  C        2.1912380    -2.2332610    -0.2798300
  C        3.1442100    -1.2359490    -0.0781950
  C       -1.9074690    -1.1902190     0.5957330
  C       -3.2772020    -0.9437210     0.5761060
  C        1.9752090     2.8430570     0.2492220
  C       -2.8095250     1.0776250    -0.6159580
  C       -3.7438200     0.2120800    -0.0497060
  H        0.0951187    -2.6303735    -0.5653999
  H        3.5165330     0.8472870     0.2502520
  H        0.1131400     1.9772450    -0.1334260
  H        2.4918570    -3.2637390    -0.4496120
  H        4.2036760    -1.4834020    -0.0698800
  H       -1.5082140    -2.0621420     1.1053590
  H       -3.9675240    -1.6332930     1.0562410
  H        2.5505250     2.8512150    -0.6889090
  H        2.6804910     2.7762290     1.0829750
  H        1.4421210     3.7916170     0.3400310
  H       -3.1269050     2.0013970    -1.0972120
  H       -4.8034740     0.4484120    -0.0854480
units angstrom
no_reorient  #important for SAPT in psi4, default
symmetry c1  #important for SAPT in psi4, default
}

set PROPERTIES_ORIGIN ["COM"]
properties('MP2/aug-cc-pvtz', properties = ['dipole'])
--------------------------------------------------------------------------

    Molecular point group: c1
  Charge       = 0
  Multiplicity = 1
  Basis Set: AUG-CC-PVTZ
    Blend: AUG-CC-PVTZ
  Basis Set: (AUG-CC-PVTZ AUX)
    Blend: AUG-CC-PVTZ-JKFIT

    Orbital Energies [Eh]
    ---------------------

    Doubly Occupied:

       1A    -15.568634     2A    -15.550492     3A    -11.289696
       4A    -11.281321     5A    -11.278938     6A    -11.263120
       7A    -11.248721     8A    -11.242478     9A    -11.241394
      10A    -11.237731    11A    -11.235927    12A    -11.233119
      13A    -11.220115    14A    -11.218481    15A     -1.263185
      16A     -1.228832    17A     -1.132342    18A     -1.088821
      19A     -1.060555    20A     -0.998691    21A     -0.992811
      22A     -0.915609    23A     -0.870861    24A     -0.860081
      25A     -0.805220    26A     -0.795882    27A     -0.720501
      28A     -0.697746    29A     -0.670808    30A     -0.657924
      31A     -0.649542    32A     -0.621902    33A     -0.608892
      34A     -0.602000    35A     -0.589268    36A     -0.576432
      37A     -0.567846    38A     -0.548168    39A     -0.534053
      40A     -0.528868    41A     -0.504682    42A     -0.496387
      43A     -0.488804    44A     -0.422723    45A     -0.416624
      46A     -0.388096    47A     -0.366889    48A     -0.317698
      49A     -0.279451

  @DF-RHF Final Energy:  -570.48893910920958

   => Energetics <=

    Nuclear Repulsion Energy =            818.5441991359258509
    One-Electron Energy =               -2397.3095528905128049
    Two-Electron Energy =                1008.2764146453774856
    Total Energy =                       -570.4889391092095821
  Basis Set: (AUG-CC-PVTZ AUX)
    Blend: AUG-CC-PVTZ-RI
    Molecular point group: c1

    Geometry (in Angstrom), charge = 0, multiplicity = 1:

       Center              X                  Y                   Z               Mass
    ------------   -----------------  -----------------  -----------------  -----------------
         N            1.019456893822     1.791462529975     0.325523763580    14.003074004430
         N           -1.465823106178     0.864896529975    -0.613345236420    14.003074004430
         C            0.440834893822    -0.542950470025    -0.071758236420    12.000000000000
         C            1.415741893822     0.479996529975     0.097420763580    12.000000000000
         C           -1.011767106178    -0.268873470025    -0.026955236420    12.000000000000
         C            0.862178893822    -1.864227470025    -0.277217236420    12.000000000000
         C            2.772823893822     0.108240529975     0.113694763580    12.000000000000
         C            2.211060893822    -2.213983470025    -0.274742236420    12.000000000000
         C            3.164032893822    -1.216671470025    -0.073107236420    12.000000000000
         C           -1.887646106178    -1.170941470025     0.600820763580    12.000000000000
         C           -3.257379106178    -0.924443470025     0.581193763580    12.000000000000
         C            1.995031893822     2.862334529975     0.254309763580    12.000000000000
         C           -2.789702106178     1.096902529975    -0.610870236420    12.000000000000
         C           -3.723997106178     0.231357529975    -0.044618236420    12.000000000000
         H            0.114941593822    -2.611095970025    -0.560312136420     1.007825032230
         H            3.536355893822     0.866564529975     0.255339763580     1.007825032230
         H            0.132962893822     1.996522529975    -0.128338236420     1.007825032230
         H            2.511679893822    -3.244461470025    -0.444524236420     1.007825032230
         H            4.223498893822    -1.464124470025    -0.064792236420     1.007825032230
         H           -1.488391106178    -2.042864470025     1.110446763580     1.007825032230
         H           -3.947701106178    -1.614015470025     1.061328763580     1.007825032230
         H            2.570347893822     2.870492529975    -0.683821236420     1.007825032230
         H            2.700313893822     2.795506529975     1.088062763580     1.007825032230
         H            1.461943893822     3.810894529975     0.345118763580     1.007825032230
         H           -3.107082106178     2.020674529975    -1.092124236420     1.007825032230
         H           -4.783651106178     0.467689529975    -0.080360236420     1.007825032230

  Basis Set: AUG-CC-PVTZ
    Blend: AUG-CC-PVTZ
  Basis Set: (AUG-CC-PVTZ AUX)
    Blend: AUG-CC-PVTZ-JKFIT
	 Reference Energy          =    -570.4889391092095821 [Eh]
	 Singles Energy            =      -0.0000000000000000 [Eh]
	 Same-Spin Energy          =      -0.6395522919664550 [Eh]
	 Opposite-Spin Energy      =      -1.9765574903640699 [Eh]
	 Correlation Energy        =      -2.6161097823305250 [Eh]
	 Total Energy              =    -573.1050488915401502 [Eh]

	 ================> DF-SCS-MP2 Energies <==================
	-----------------------------------------------------------
	 SCS Same-Spin Scale       =       0.3333333333333333 [-]
	 SCS Opposite-Spin Scale   =       1.2000000000000000 [-]
	 SCS Same-Spin Energy      =      -0.2131840973221517 [Eh]
	 SCS Opposite-Spin Energy  =      -2.3718689884368840 [Eh]
	 SCS Correlation Energy    =      -2.5850530857590357 [Eh]
	 SCS Total Energy          =    -573.0739921949685822 [Eh]
	-----------------------------------------------------------

  Dipole Moment: [D]
     X:    -1.7523      Y:     0.1763      Z:     0.3079     Total:     1.7878

*** Psi4 exiting successfully. Buy a developer a beer!
