                               Psi4 1.4a2.dev612

  ==> Input File <==

--------------------------------------------------------------------------
#psi4
#
memory 32 gb

molecule  {
0 1
  N        0.9996340     1.7721850     0.3204360
  N       -1.4856460     0.8456190    -0.6184330
  C        0.4210120    -0.5622280    -0.0768460
  C        1.3959190     0.4607190     0.0923330
  C       -1.0315900    -0.2881510    -0.0320430
  C        0.8423560    -1.8835050    -0.2823050
  C        2.7479126     0.0650382     0.2565993
  C        2.1912380    -2.2332610    -0.2798300
  C        3.1442100    -1.2359490    -0.0781950
  C       -1.9074690    -1.1902190     0.5957330
  C       -3.2772020    -0.9437210     0.5761060
  C        1.9752090     2.8430570     0.2492220
  C       -2.8095250     1.0776250    -0.6159580
  C       -3.7438200     0.2120800    -0.0497060
  H        0.0898220    -2.6479260    -0.4670950
  H        3.5165330     0.8472870     0.2502520
  H        0.1131400     1.9772450    -0.1334260
  H        2.4918570    -3.2637390    -0.4496120
  H        4.2036760    -1.4834020    -0.0698800
  H       -1.5082140    -2.0621420     1.1053590
  H       -3.9675240    -1.6332930     1.0562410
  H        2.5505250     2.8512150    -0.6889090
  H        2.6804910     2.7762290     1.0829750
  H        1.4421210     3.7916170     0.3400310
  H       -3.1269050     2.0013970    -1.0972120
  H       -4.8034740     0.4484120    -0.0854480
units angstrom
no_reorient  #important for SAPT in psi4, default
symmetry c1  #important for SAPT in psi4, default
}

set PROPERTIES_ORIGIN ["COM"]
properties('MP2/aug-cc-pvtz', properties = ['dipole'])
--------------------------------------------------------------------------

    Molecular point group: c1
  Charge       = 0
  Multiplicity = 1
  Basis Set: AUG-CC-PVTZ
    Blend: AUG-CC-PVTZ
  Basis Set: (AUG-CC-PVTZ AUX)
    Blend: AUG-CC-PVTZ-JKFIT

    Orbital Energies [Eh]
    ---------------------

    Doubly Occupied:

       1A    -15.568501     2A    -15.551943     3A    -11.290077
       4A    -11.281524     5A    -11.281399     6A    -11.263285
       7A    -11.249224     8A    -11.242262     9A    -11.241489
      10A    -11.238529    11A    -11.237649    12A    -11.232985
      13A    -11.221761    14A    -11.217885    15A     -1.263312
      16A     -1.229342    17A     -1.132196    18A     -1.088872
      19A     -1.060286    20A     -0.997918    21A     -0.992854
      22A     -0.915803    23A     -0.870587    24A     -0.860194
      25A     -0.804825    26A     -0.795604    27A     -0.720217
      28A     -0.697813    29A     -0.670376    30A     -0.658035
      31A     -0.650040    32A     -0.621023    33A     -0.606802
      34A     -0.601052    35A     -0.589209    36A     -0.576641
      37A     -0.567966    38A     -0.548434    39A     -0.533740
      40A     -0.528709    41A     -0.505476    42A     -0.496088
      43A     -0.486417    44A     -0.425109    45A     -0.415649
      46A     -0.388096    47A     -0.367097    48A     -0.317861
      49A     -0.278545

  @DF-RHF Final Energy:  -570.48253578516415

   => Energetics <=

    Nuclear Repulsion Energy =            818.2456035539141794
    One-Electron Energy =               -2396.6948748339705162
    Two-Electron Energy =                1007.9667354948921911
    Total Energy =                       -570.4825357851641456
  Basis Set: (AUG-CC-PVTZ AUX)
    Blend: AUG-CC-PVTZ-RI
    Molecular point group: c1

    Geometry (in Angstrom), charge = 0, multiplicity = 1:

       Center              X                  Y                   Z               Mass
    ------------   -----------------  -----------------  -----------------  -----------------
         N            1.019817561553     1.793118083309     0.315339183210    14.003074004430
         N           -1.465462438447     0.866552083309    -0.623529816790    14.003074004430
         C            0.441195561553    -0.541294916691    -0.081942816790    12.000000000000
         C            1.416102561553     0.481652083309     0.087236183210    12.000000000000
         C           -1.011406438447    -0.267217916691    -0.037139816790    12.000000000000
         C            0.862539561553    -1.862571916691    -0.287401816790    12.000000000000
         C            2.768096161553     0.085971283309     0.251502483210    12.000000000000
         C            2.211421561553    -2.212327916691    -0.284926816790    12.000000000000
         C            3.164393561553    -1.215015916691    -0.083291816790    12.000000000000
         C           -1.887285438447    -1.169285916691     0.590636183210    12.000000000000
         C           -3.257018438447    -0.922787916691     0.571009183210    12.000000000000
         C            1.995392561553     2.863990083309     0.244125183210    12.000000000000
         C           -2.789341438447     1.098558083309    -0.621054816790    12.000000000000
         C           -3.723636438447     0.233013083309    -0.054802816790    12.000000000000
         H            0.110005561553    -2.626992916691    -0.472191816790     1.007825032230
         H            3.536716561553     0.868220083309     0.245155183210     1.007825032230
         H            0.133323561553     1.998178083309    -0.138522816790     1.007825032230
         H            2.512040561553    -3.242805916691    -0.454708816790     1.007825032230
         H            4.223859561553    -1.462468916691    -0.074976816790     1.007825032230
         H           -1.488030438447    -2.041208916691     1.100262183210     1.007825032230
         H           -3.947340438447    -1.612359916691     1.051144183210     1.007825032230
         H            2.570708561553     2.872148083309    -0.694005816790     1.007825032230
         H            2.700674561553     2.797162083309     1.077878183210     1.007825032230
         H            1.462304561553     3.812550083309     0.334934183210     1.007825032230
         H           -3.106721438447     2.022330083309    -1.102308816790     1.007825032230
         H           -4.783290438447     0.469345083309    -0.090544816790     1.007825032230

  Basis Set: AUG-CC-PVTZ
    Blend: AUG-CC-PVTZ
  Basis Set: (AUG-CC-PVTZ AUX)
    Blend: AUG-CC-PVTZ-JKFIT
	 Reference Energy          =    -570.4825357851641456 [Eh]
	 Singles Energy            =      -0.0000000000000000 [Eh]
	 Same-Spin Energy          =      -0.6397554947541305 [Eh]
	 Opposite-Spin Energy      =      -1.9772854331429450 [Eh]
	 Correlation Energy        =      -2.6170409278970754 [Eh]
	 Total Energy              =    -573.0995767130611966 [Eh]

	 ================> DF-SCS-MP2 Energies <==================
	-----------------------------------------------------------
	 SCS Same-Spin Scale       =       0.3333333333333333 [-]
	 SCS Opposite-Spin Scale   =       1.2000000000000000 [-]
	 SCS Same-Spin Energy      =      -0.2132518315847102 [Eh]
	 SCS Opposite-Spin Energy  =      -2.3727425197715339 [Eh]
	 SCS Correlation Energy    =      -2.5859943513562440 [Eh]
	 SCS Total Energy          =    -573.0685301365203941 [Eh]
	-----------------------------------------------------------

  Dipole Moment: [D]
     X:    -1.7929      Y:     0.1920      Z:     0.2519     Total:     1.8206

*** Psi4 exiting successfully. Buy a developer a beer!
