                               Psi4 1.4a2.dev612

  ==> Input File <==

--------------------------------------------------------------------------
#psi4
#
memory 32 gb

molecule  {
0 1
  N        0.9996340     1.7721850     0.3204360
  N       -1.4856460     0.8456190    -0.6184330
  C        0.4210120    -0.5622280    -0.0768460
  C        1.3959190     0.4607190     0.0923330
  C       -1.0315900    -0.2881510    -0.0320430
  C        0.8421499    -1.8992386    -0.1835507
  C        2.7530010     0.0889630     0.1086070
  C        2.1912380    -2.2332610    -0.2798300
  C        3.1442100    -1.2359490    -0.0781950
  C       -1.9074690    -1.1902190     0.5957330
  C       -3.2772020    -0.9437210     0.5761060
  C        1.9752090     2.8430570     0.2492220
  C       -2.8095250     1.0776250    -0.6159580
  C       -3.7438200     0.2120800    -0.0497060
  H        0.0898220    -2.6479260    -0.4670950
  H        3.5165330     0.8472870     0.2502520
  H        0.1131400     1.9772450    -0.1334260
  H        2.4918570    -3.2637390    -0.4496120
  H        4.2036760    -1.4834020    -0.0698800
  H       -1.5082140    -2.0621420     1.1053590
  H       -3.9675240    -1.6332930     1.0562410
  H        2.5505250     2.8512150    -0.6889090
  H        2.6804910     2.7762290     1.0829750
  H        1.4421210     3.7916170     0.3400310
  H       -3.1269050     2.0013970    -1.0972120
  H       -4.8034740     0.4484120    -0.0854480
units angstrom
no_reorient  #important for SAPT in psi4, default
symmetry c1  #important for SAPT in psi4, default
}

set PROPERTIES_ORIGIN ["COM"]
properties('MP2/aug-cc-pvtz', properties = ['dipole'])
--------------------------------------------------------------------------

    Molecular point group: c1
  Charge       = 0
  Multiplicity = 1
  Basis Set: AUG-CC-PVTZ
    Blend: AUG-CC-PVTZ
  Basis Set: (AUG-CC-PVTZ AUX)
    Blend: AUG-CC-PVTZ-JKFIT

    Orbital Energies [Eh]
    ---------------------

    Doubly Occupied:

       1A    -15.568252     2A    -15.550749     3A    -11.289769
       4A    -11.281092     5A    -11.279246     6A    -11.262825
       7A    -11.248862     8A    -11.241908     9A    -11.240927
      10A    -11.238273    11A    -11.236313    12A    -11.234029
      13A    -11.220963    14A    -11.219265    15A     -1.262989
      16A     -1.229040    17A     -1.132583    18A     -1.088476
      19A     -1.060656    20A     -0.998977    21A     -0.992649
      22A     -0.915806    23A     -0.870910    24A     -0.859934
      25A     -0.805156    26A     -0.795659    27A     -0.720501
      28A     -0.697559    29A     -0.670560    30A     -0.658088
      31A     -0.649380    32A     -0.621884    33A     -0.608471
      34A     -0.601135    35A     -0.589028    36A     -0.576083
      37A     -0.568396    38A     -0.548391    39A     -0.533830
      40A     -0.528861    41A     -0.504518    42A     -0.496234
      43A     -0.488595    44A     -0.422611    45A     -0.416779
      46A     -0.388082    47A     -0.368363    48A     -0.317196
      49A     -0.279031

  @DF-RHF Final Energy:  -570.48656640744764

   => Energetics <=

    Nuclear Repulsion Energy =            818.5442206991501735
    One-Electron Energy =               -2397.3038067901807153
    Two-Electron Energy =                1008.2730196835829020
    Total Energy =                       -570.4865664074476399
  Basis Set: (AUG-CC-PVTZ AUX)
    Blend: AUG-CC-PVTZ-RI
    Molecular point group: c1

    Geometry (in Angstrom), charge = 0, multiplicity = 1:

       Center              X                  Y                   Z               Mass
    ------------   -----------------  -----------------  -----------------  -----------------
         N            1.019499323723     1.792584164927     0.318548612024    14.003074004430
         N           -1.465780676277     0.866018164927    -0.620320387976    14.003074004430
         C            0.440877323723    -0.541828835073    -0.078733387976    12.000000000000
         C            1.415784323723     0.481118164927     0.090445612024    12.000000000000
         C           -1.011724676277    -0.267751835073    -0.033930387976    12.000000000000
         C            0.862015223723    -1.878839435073    -0.185438087976    12.000000000000
         C            2.772866323723     0.109362164927     0.106719612024    12.000000000000
         C            2.211103323723    -2.212861835073    -0.281717387976    12.000000000000
         C            3.164075323723    -1.215549835073    -0.080082387976    12.000000000000
         C           -1.887603676277    -1.169819835073     0.593845612024    12.000000000000
         C           -3.257336676277    -0.923321835073     0.574218612024    12.000000000000
         C            1.995074323723     2.863456164927     0.247334612024    12.000000000000
         C           -2.789659676277     1.098024164927    -0.617845387976    12.000000000000
         C           -3.723954676277     0.232479164927    -0.051593387976    12.000000000000
         H            0.109687323723    -2.627526835073    -0.468982387976     1.007825032230
         H            3.536398323723     0.867686164927     0.248364612024     1.007825032230
         H            0.133005323723     1.997644164927    -0.135313387976     1.007825032230
         H            2.511722323723    -3.243339835073    -0.451499387976     1.007825032230
         H            4.223541323723    -1.463002835073    -0.071767387976     1.007825032230
         H           -1.488348676277    -2.041742835073     1.103471612024     1.007825032230
         H           -3.947658676277    -1.612893835073     1.054353612024     1.007825032230
         H            2.570390323723     2.871614164927    -0.690796387976     1.007825032230
         H            2.700356323723     2.796628164927     1.081087612024     1.007825032230
         H            1.461986323723     3.812016164927     0.338143612024     1.007825032230
         H           -3.107039676277     2.021796164927    -1.099099387976     1.007825032230
         H           -4.783608676277     0.468811164927    -0.087335387976     1.007825032230

  Basis Set: AUG-CC-PVTZ
    Blend: AUG-CC-PVTZ
  Basis Set: (AUG-CC-PVTZ AUX)
    Blend: AUG-CC-PVTZ-JKFIT
	 Reference Energy          =    -570.4865664074476399 [Eh]
	 Singles Energy            =      -0.0000000000000000 [Eh]
	 Same-Spin Energy          =      -0.6397889361481079 [Eh]
	 Opposite-Spin Energy      =      -1.9770339108163446 [Eh]
	 Correlation Energy        =      -2.6168228469644523 [Eh]
	 Total Energy              =    -573.1033892544120363 [Eh]

	 ================> DF-SCS-MP2 Energies <==================
	-----------------------------------------------------------
	 SCS Same-Spin Scale       =       0.3333333333333333 [-]
	 SCS Opposite-Spin Scale   =       1.2000000000000000 [-]
	 SCS Same-Spin Energy      =      -0.2132629787160360 [Eh]
	 SCS Opposite-Spin Energy  =      -2.3724406929796134 [Eh]
	 SCS Correlation Energy    =      -2.5857036716956494 [Eh]
	 SCS Total Energy          =    -573.0722700791433226 [Eh]
	-----------------------------------------------------------

  Dipole Moment: [D]
     X:    -1.6848      Y:     0.1877      Z:     0.3025     Total:     1.7220

*** Psi4 exiting successfully. Buy a developer a beer!
