                               Psi4 1.4a2.dev612

  ==> Input File <==

--------------------------------------------------------------------------
#psi4
#
memory 32 gb

molecule  {
0 1
  N        0.9996340     1.7721850     0.3204360
  N       -1.4856460     0.8456190    -0.6184330
  C        0.4210120    -0.5622280    -0.0768460
  C        1.3959190     0.4607190     0.0923330
  C       -1.0315900    -0.2881510    -0.0320430
  C        0.8423560    -1.8835050    -0.2823050
  C        2.7530010     0.0889630     0.1086070
  C        2.1912380    -2.2332610    -0.2798300
  C        3.1442100    -1.2359490    -0.0781950
  C       -1.9425875    -1.3374270     0.3367031
  C       -3.2772020    -0.9437210     0.5761060
  C        1.9752090     2.8430570     0.2492220
  C       -2.8095250     1.0776250    -0.6159580
  C       -3.7438200     0.2120800    -0.0497060
  H        0.0898220    -2.6479260    -0.4670950
  H        3.5165330     0.8472870     0.2502520
  H        0.1131400     1.9772450    -0.1334260
  H        2.4918570    -3.2637390    -0.4496120
  H        4.2036760    -1.4834020    -0.0698800
  H       -1.5082140    -2.0621420     1.1053590
  H       -3.9675240    -1.6332930     1.0562410
  H        2.5505250     2.8512150    -0.6889090
  H        2.6804910     2.7762290     1.0829750
  H        1.4421210     3.7916170     0.3400310
  H       -3.1269050     2.0013970    -1.0972120
  H       -4.8034740     0.4484120    -0.0854480
units angstrom
no_reorient  #important for SAPT in psi4, default
symmetry c1  #important for SAPT in psi4, default
}

set PROPERTIES_ORIGIN ["COM"]
properties('MP2/aug-cc-pvtz', properties = ['dipole'])
--------------------------------------------------------------------------

    Molecular point group: c1
  Charge       = 0
  Multiplicity = 1
  Basis Set: AUG-CC-PVTZ
    Blend: AUG-CC-PVTZ
  Basis Set: (AUG-CC-PVTZ AUX)
    Blend: AUG-CC-PVTZ-JKFIT

    Orbital Energies [Eh]
    ---------------------

    Doubly Occupied:

       1A    -15.567296     2A    -15.551226     3A    -11.297849
       4A    -11.285481     5A    -11.280119     6A    -11.268597
       7A    -11.249278     8A    -11.246982     9A    -11.240548
      10A    -11.237504    11A    -11.237068    12A    -11.233468
      13A    -11.220307    14A    -11.218472    15A     -1.263154
      16A     -1.229539    17A     -1.132939    18A     -1.086411
      19A     -1.059027    20A     -0.999026    21A     -0.991407
      22A     -0.916074    23A     -0.869898    24A     -0.856735
      25A     -0.804526    26A     -0.795792    27A     -0.719827
      28A     -0.696445    29A     -0.667447    30A     -0.653390
      31A     -0.646785    32A     -0.616862    33A     -0.608707
      34A     -0.600716    35A     -0.587522    36A     -0.574909
      37A     -0.567679    38A     -0.550058    39A     -0.531476
      40A     -0.521397    41A     -0.501600    42A     -0.498366
      43A     -0.489834    44A     -0.422410    45A     -0.415620
      46A     -0.387441    47A     -0.369207    48A     -0.315840
      49A     -0.279155

  @DF-RHF Final Energy:  -570.46239303026300

   => Energetics <=

    Nuclear Repulsion Energy =            817.5803283563408286
    One-Electron Energy =               -2395.3626219722991664
    Two-Electron Energy =                1007.3199005856952226
    Total Energy =                       -570.4623930302630015
  Basis Set: (AUG-CC-PVTZ AUX)
    Blend: AUG-CC-PVTZ-RI
    Molecular point group: c1

    Geometry (in Angstrom), charge = 0, multiplicity = 1:

       Center              X                  Y                   Z               Mass
    ------------   -----------------  -----------------  -----------------  -----------------
         N            1.021774982006     1.801153922587     0.341869683568    14.003074004430
         N           -1.463505017994     0.874587922587    -0.596999316432    14.003074004430
         C            0.443152982006    -0.533259077413    -0.055412316432    12.000000000000
         C            1.418059982006     0.489687922587     0.113766683568    12.000000000000
         C           -1.009449017994    -0.259182077413    -0.010609316432    12.000000000000
         C            0.864496982006    -1.854536077413    -0.260871316432    12.000000000000
         C            2.775141982006     0.117931922587     0.130040683568    12.000000000000
         C            2.213378982006    -2.204292077413    -0.258396316432    12.000000000000
         C            3.166350982006    -1.206980077413    -0.056761316432    12.000000000000
         C           -1.920446517994    -1.308458077413     0.358136783568    12.000000000000
         C           -3.255061017994    -0.914752077413     0.597539683568    12.000000000000
         C            1.997349982006     2.872025922587     0.270655683568    12.000000000000
         C           -2.787384017994     1.106593922587    -0.594524316432    12.000000000000
         C           -3.721679017994     0.241048922587    -0.028272316432    12.000000000000
         H            0.111962982006    -2.618957077413    -0.445661316432     1.007825032230
         H            3.538673982006     0.876255922587     0.271685683568     1.007825032230
         H            0.135280982006     2.006213922587    -0.111992316432     1.007825032230
         H            2.513997982006    -3.234770077413    -0.428178316432     1.007825032230
         H            4.225816982006    -1.454433077413    -0.048446316432     1.007825032230
         H           -1.486073017994    -2.033173077413     1.126792683568     1.007825032230
         H           -3.945383017994    -1.604324077413     1.077674683568     1.007825032230
         H            2.572665982006     2.880183922587    -0.667475316432     1.007825032230
         H            2.702631982006     2.805197922587     1.104408683568     1.007825032230
         H            1.464261982006     3.820585922587     0.361464683568     1.007825032230
         H           -3.104764017994     2.030365922587    -1.075778316432     1.007825032230
         H           -4.781333017994     0.477380922587    -0.064014316432     1.007825032230

  Basis Set: AUG-CC-PVTZ
    Blend: AUG-CC-PVTZ
  Basis Set: (AUG-CC-PVTZ AUX)
    Blend: AUG-CC-PVTZ-JKFIT
	 Reference Energy          =    -570.4623930302630015 [Eh]
	 Singles Energy            =      -0.0000000000000000 [Eh]
	 Same-Spin Energy          =      -0.6404119657140745 [Eh]
	 Opposite-Spin Energy      =      -1.9796780588233549 [Eh]
	 Correlation Energy        =      -2.6200900245374292 [Eh]
	 Total Energy              =    -573.0824830548003774 [Eh]

	 ================> DF-SCS-MP2 Energies <==================
	-----------------------------------------------------------
	 SCS Same-Spin Scale       =       0.3333333333333333 [-]
	 SCS Opposite-Spin Scale   =       1.2000000000000000 [-]
	 SCS Same-Spin Energy      =      -0.2134706552380248 [Eh]
	 SCS Opposite-Spin Energy  =      -2.3756136705880260 [Eh]
	 SCS Correlation Energy    =      -2.5890843258260507 [Eh]
	 SCS Total Energy          =    -573.0514773560890944 [Eh]
	-----------------------------------------------------------

  Dipole Moment: [D]
     X:    -1.7226      Y:     0.3354      Z:     0.3572     Total:     1.7909

*** Psi4 exiting successfully. Buy a developer a beer!
