                               Psi4 1.4a2.dev612

  ==> Input File <==

--------------------------------------------------------------------------
#psi4
#
memory 32 gb

molecule  {
0 1
  N        0.9996340     1.7721850     0.3204360
  N       -1.4856460     0.8456190    -0.6184330
  C        0.4210120    -0.5622280    -0.0768460
  C        1.3959190     0.4607190     0.0923330
  C       -1.0315900    -0.2881510    -0.0320430
  C        0.8423560    -1.8835050    -0.2823050
  C        2.7530010     0.0889630     0.1086070
  C        2.1912380    -2.2332610    -0.2798300
  C        3.1442100    -1.2359490    -0.0781950
  C       -1.9074690    -1.1902190     0.5957330
  C       -3.2772020    -0.9437210     0.5761060
  C        1.9752090     2.8430570     0.2492220
  C       -2.8095250     1.0776250    -0.6159580
  C       -3.7438200     0.2120800    -0.0497060
  H        0.0898220    -2.6479260    -0.4670950
  H        3.5165330     0.8472870     0.2502520
  H        0.1131400     1.9772450    -0.1334260
  H        2.4918570    -3.2637390    -0.4496120
  H        4.2036760    -1.4834020    -0.0698800
  H       -1.5082140    -2.0621420     1.1053590
  H       -3.9675240    -1.6332930     1.0562410
  H        2.5505250     2.8512150    -0.6889090
  H        2.6804910     2.7762290     1.0829750
  H        1.4421210     3.7916170     0.3400310
  H       -3.1522881     1.8569418    -1.3589149
  H       -4.8034740     0.4484120    -0.0854480
units angstrom
no_reorient  #important for SAPT in psi4, default
symmetry c1  #important for SAPT in psi4, default
}

set PROPERTIES_ORIGIN ["COM"]
properties('MP2/aug-cc-pvtz', properties = ['dipole'])
--------------------------------------------------------------------------

    Molecular point group: c1
  Charge       = 0
  Multiplicity = 1
  Basis Set: AUG-CC-PVTZ
    Blend: AUG-CC-PVTZ
  Basis Set: (AUG-CC-PVTZ AUX)
    Blend: AUG-CC-PVTZ-JKFIT

    Orbital Energies [Eh]
    ---------------------

    Doubly Occupied:

       1A    -15.569306     2A    -15.550743     3A    -11.290402
       4A    -11.285096     5A    -11.279142     6A    -11.263509
       7A    -11.248745     8A    -11.242988     9A    -11.242248
      10A    -11.237639    11A    -11.236075    12A    -11.233395
      13A    -11.220144    14A    -11.218581    15A     -1.263580
      16A     -1.229020    17A     -1.132564    18A     -1.089348
      19A     -1.060376    20A     -0.998935    21A     -0.992641
      22A     -0.915664    23A     -0.871152    24A     -0.858368
      25A     -0.804625    26A     -0.796337    27A     -0.719243
      28A     -0.696951    29A     -0.671015    30A     -0.657679
      31A     -0.649340    32A     -0.619755    33A     -0.608715
      34A     -0.602073    35A     -0.589061    36A     -0.576896
      37A     -0.568295    38A     -0.545185    39A     -0.534493
      40A     -0.529429    41A     -0.504989    42A     -0.495334
      43A     -0.488349    44A     -0.423422    45A     -0.416416
      46A     -0.388331    47A     -0.367260    48A     -0.317469
      49A     -0.279377

  @DF-RHF Final Energy:  -570.48314413648222

   => Energetics <=

    Nuclear Repulsion Energy =            818.3833102021128525
    One-Electron Energy =               -2396.9735145736071900
    Two-Electron Energy =                1008.1070602350121135
    Total Energy =                       -570.4831441364822240
  Basis Set: (AUG-CC-PVTZ AUX)
    Blend: AUG-CC-PVTZ-RI
    Molecular point group: c1

    Geometry (in Angstrom), charge = 0, multiplicity = 1:

       Center              X                  Y                   Z               Mass
    ------------   -----------------  -----------------  -----------------  -----------------
         N            1.019624845274     1.792349414128     0.326418258698    14.003074004430
         N           -1.465655154726     0.865783414128    -0.612450741302    14.003074004430
         C            0.441002845274    -0.542063585872    -0.070863741302    12.000000000000
         C            1.415909845274     0.480883414128     0.098315258698    12.000000000000
         C           -1.011599154726    -0.267986585872    -0.026060741302    12.000000000000
         C            0.862346845274    -1.863340585872    -0.276322741302    12.000000000000
         C            2.772991845274     0.109127414128     0.114589258698    12.000000000000
         C            2.211228845274    -2.213096585872    -0.273847741302    12.000000000000
         C            3.164200845274    -1.215784585872    -0.072212741302    12.000000000000
         C           -1.887478154726    -1.170054585872     0.601715258698    12.000000000000
         C           -3.257211154726    -0.923556585872     0.582088258698    12.000000000000
         C            1.995199845274     2.863221414128     0.255204258698    12.000000000000
         C           -2.789534154726     1.097789414128    -0.609975741302    12.000000000000
         C           -3.723829154726     0.232244414128    -0.043723741302    12.000000000000
         H            0.109812845274    -2.627761585872    -0.461112741302     1.007825032230
         H            3.536523845274     0.867451414128     0.256234258698     1.007825032230
         H            0.133130845274     1.997409414128    -0.127443741302     1.007825032230
         H            2.511847845274    -3.243574585872    -0.443629741302     1.007825032230
         H            4.223666845274    -1.463237585872    -0.063897741302     1.007825032230
         H           -1.488223154726    -2.041977585872     1.111341258698     1.007825032230
         H           -3.947533154726    -1.613128585872     1.062223258698     1.007825032230
         H            2.570515845274     2.871379414128    -0.682926741302     1.007825032230
         H            2.700481845274     2.796393414128     1.088957258698     1.007825032230
         H            1.462111845274     3.811781414128     0.346013258698     1.007825032230
         H           -3.132297254726     1.877106214128    -1.352932641302     1.007825032230
         H           -4.783483154726     0.468576414128    -0.079465741302     1.007825032230

  Basis Set: AUG-CC-PVTZ
    Blend: AUG-CC-PVTZ
  Basis Set: (AUG-CC-PVTZ AUX)
    Blend: AUG-CC-PVTZ-JKFIT
	 Reference Energy          =    -570.4831441364822240 [Eh]
	 Singles Energy            =      -0.0000000000000000 [Eh]
	 Same-Spin Energy          =      -0.6398482607242014 [Eh]
	 Opposite-Spin Energy      =      -1.9773225821079492 [Eh]
	 Correlation Energy        =      -2.6171708428321505 [Eh]
	 Total Energy              =    -573.1003149793143621 [Eh]

	 ================> DF-SCS-MP2 Energies <==================
	-----------------------------------------------------------
	 SCS Same-Spin Scale       =       0.3333333333333333 [-]
	 SCS Opposite-Spin Scale   =       1.2000000000000000 [-]
	 SCS Same-Spin Energy      =      -0.2132827535747338 [Eh]
	 SCS Opposite-Spin Energy  =      -2.3727870985295390 [Eh]
	 SCS Correlation Energy    =      -2.5860698521042726 [Eh]
	 SCS Total Energy          =    -573.0692139885865117 [Eh]
	-----------------------------------------------------------

  Dipole Moment: [D]
     X:    -1.7286      Y:     0.0331      Z:     0.2601     Total:     1.7483

*** Psi4 exiting successfully. Buy a developer a beer!
