                               Psi4 1.4a2.dev612

  ==> Input File <==

--------------------------------------------------------------------------
#psi4
#
memory 32 gb

molecule  {
0 1
  N        0.9996340     1.7721850     0.3204360
  N       -1.4856460     0.8456190    -0.6184330
  C        0.4210120    -0.5622280    -0.0768460
  C        1.3959190     0.4607190     0.0923330
  C       -1.0315900    -0.2881510    -0.0320430
  C        0.8423560    -1.8835050    -0.2823050
  C        2.7428243     0.0411133     0.4045915
  C        2.1912380    -2.2332610    -0.2798300
  C        3.1442100    -1.2359490    -0.0781950
  C       -1.9074690    -1.1902190     0.5957330
  C       -3.2772020    -0.9437210     0.5761060
  C        1.9752090     2.8430570     0.2492220
  C       -2.8095250     1.0776250    -0.6159580
  C       -3.7438200     0.2120800    -0.0497060
  H        0.0898220    -2.6479260    -0.4670950
  H        3.5165330     0.8472870     0.2502520
  H        0.1131400     1.9772450    -0.1334260
  H        2.4918570    -3.2637390    -0.4496120
  H        4.2036760    -1.4834020    -0.0698800
  H       -1.5082140    -2.0621420     1.1053590
  H       -3.9675240    -1.6332930     1.0562410
  H        2.5505250     2.8512150    -0.6889090
  H        2.6804910     2.7762290     1.0829750
  H        1.4421210     3.7916170     0.3400310
  H       -3.1269050     2.0013970    -1.0972120
  H       -4.8034740     0.4484120    -0.0854480
units angstrom
no_reorient  #important for SAPT in psi4, default
symmetry c1  #important for SAPT in psi4, default
}

set PROPERTIES_ORIGIN ["COM"]
properties('MP2/aug-cc-pvtz', properties = ['dipole'])
--------------------------------------------------------------------------

    Molecular point group: c1
  Charge       = 0
  Multiplicity = 1
  Basis Set: AUG-CC-PVTZ
    Blend: AUG-CC-PVTZ
  Basis Set: (AUG-CC-PVTZ AUX)
    Blend: AUG-CC-PVTZ-JKFIT

    Orbital Energies [Eh]
    ---------------------

    Doubly Occupied:

       1A    -15.568595     2A    -15.554851     3A    -11.290553
       4A    -11.287322     5A    -11.281688     6A    -11.263592
       7A    -11.249804     8A    -11.242452     9A    -11.242257
      10A    -11.241944    11A    -11.241681    12A    -11.233047
      13A    -11.226293    14A    -11.217392    15A     -1.263701
      16A     -1.230270    17A     -1.131593    18A     -1.089090
      19A     -1.059386    20A     -0.995461    21A     -0.992610
      22A     -0.915913    23A     -0.869781    24A     -0.860364
      25A     -0.803675    26A     -0.793706    27A     -0.719274
      28A     -0.698316    29A     -0.669530    30A     -0.657714
      31A     -0.650420    32A     -0.619824    33A     -0.605629
      34A     -0.596987    35A     -0.586981    36A     -0.576687
      37A     -0.566519    38A     -0.548411    39A     -0.532793
      40A     -0.528598    41A     -0.506481    42A     -0.494093
      43A     -0.478983    44A     -0.426549    45A     -0.414557
      46A     -0.388297    47A     -0.366882    48A     -0.318698
      49A     -0.278069

  @DF-RHF Final Energy:  -570.46205490844056

   => Energetics <=

    Nuclear Repulsion Energy =            817.3948652958274579
    One-Electron Energy =               -2394.9592111405572723
    Two-Electron Energy =                1007.1022909362892506
    Total Energy =                       -570.4620549084405638
  Basis Set: (AUG-CC-PVTZ AUX)
    Blend: AUG-CC-PVTZ-RI
    Molecular point group: c1

    Geometry (in Angstrom), charge = 0, multiplicity = 1:

       Center              X                  Y                   Z               Mass
    ------------   -----------------  -----------------  -----------------  -----------------
         N            1.020149226865     1.794677554925     0.305692763149    14.003074004430
         N           -1.465130773135     0.868111554925    -0.633176236851    14.003074004430
         C            0.441527226865    -0.539735445075    -0.091589236851    12.000000000000
         C            1.416434226865     0.483211554925     0.077589763149    12.000000000000
         C           -1.011074773135    -0.265658445075    -0.046786236851    12.000000000000
         C            0.862871226865    -1.861012445075    -0.297048236851    12.000000000000
         C            2.763339526865     0.063605854925     0.389848263149    12.000000000000
         C            2.211753226865    -2.210768445075    -0.294573236851    12.000000000000
         C            3.164725226865    -1.213456445075    -0.092938236851    12.000000000000
         C           -1.886953773135    -1.167726445075     0.580989763149    12.000000000000
         C           -3.256686773135    -0.921228445075     0.561362763149    12.000000000000
         C            1.995724226865     2.865549554925     0.234478763149    12.000000000000
         C           -2.789009773135     1.100117554925    -0.630701236851    12.000000000000
         C           -3.723304773135     0.234572554925    -0.064449236851    12.000000000000
         H            0.110337226865    -2.625433445075    -0.481838236851     1.007825032230
         H            3.537048226865     0.869779554925     0.235508763149     1.007825032230
         H            0.133655226865     1.999737554925    -0.148169236851     1.007825032230
         H            2.512372226865    -3.241246445075    -0.464355236851     1.007825032230
         H            4.224191226865    -1.460909445075    -0.084623236851     1.007825032230
         H           -1.487698773135    -2.039649445075     1.090615763149     1.007825032230
         H           -3.947008773135    -1.610800445075     1.041497763149     1.007825032230
         H            2.571040226865     2.873707554925    -0.703652236851     1.007825032230
         H            2.701006226865     2.798721554925     1.068231763149     1.007825032230
         H            1.462636226865     3.814109554925     0.325287763149     1.007825032230
         H           -3.106389773135     2.023889554925    -1.111955236851     1.007825032230
         H           -4.782958773135     0.470904554925    -0.100191236851     1.007825032230

  Basis Set: AUG-CC-PVTZ
    Blend: AUG-CC-PVTZ
  Basis Set: (AUG-CC-PVTZ AUX)
    Blend: AUG-CC-PVTZ-JKFIT
	 Reference Energy          =    -570.4620549084405638 [Eh]
	 Singles Energy            =      -0.0000000000000000 [Eh]
	 Same-Spin Energy          =      -0.6405121716990883 [Eh]
	 Opposite-Spin Energy      =      -1.9800671660229650 [Eh]
	 Correlation Energy        =      -2.6205793377220532 [Eh]
	 Total Energy              =    -573.0826342461625700 [Eh]

	 ================> DF-SCS-MP2 Energies <==================
	-----------------------------------------------------------
	 SCS Same-Spin Scale       =       0.3333333333333333 [-]
	 SCS Opposite-Spin Scale   =       1.2000000000000000 [-]
	 SCS Same-Spin Energy      =      -0.2135040572330294 [Eh]
	 SCS Opposite-Spin Energy  =      -2.3760805992275578 [Eh]
	 SCS Correlation Energy    =      -2.5895846564605871 [Eh]
	 SCS Total Energy          =    -573.0516395649011656 [Eh]
	-----------------------------------------------------------

  Dipole Moment: [D]
     X:    -1.9270      Y:     0.1974      Z:     0.1264     Total:     1.9412

*** Psi4 exiting successfully. Buy a developer a beer!
