                               Psi4 1.4a2.dev612

  ==> Input File <==

--------------------------------------------------------------------------
#psi4
#
memory 32 gb

molecule  {
0 1
  N        0.9996340     1.7721850     0.3204360
  N       -1.4856460     0.8456190    -0.6184330
  C        0.4210120    -0.5622280    -0.0768460
  C        1.3959190     0.4607190     0.0923330
  C       -1.0315900    -0.2881510    -0.0320430
  C        0.8422530    -1.8913718    -0.2329278
  C        2.7530010     0.0889630     0.1086070
  C        2.1912380    -2.2332610    -0.2798300
  C        3.1442100    -1.2359490    -0.0781950
  C       -1.9074690    -1.1902190     0.5957330
  C       -3.2772020    -0.9437210     0.5761060
  C        1.9752090     2.8430570     0.2492220
  C       -2.8095250     1.0776250    -0.6159580
  C       -3.7438200     0.2120800    -0.0497060
  H        0.0898220    -2.6479260    -0.4670950
  H        3.5165330     0.8472870     0.2502520
  H        0.1131400     1.9772450    -0.1334260
  H        2.4918570    -3.2637390    -0.4496120
  H        4.2036760    -1.4834020    -0.0698800
  H       -1.5082140    -2.0621420     1.1053590
  H       -3.9675240    -1.6332930     1.0562410
  H        2.5505250     2.8512150    -0.6889090
  H        2.6804910     2.7762290     1.0829750
  H        1.4421210     3.7916170     0.3400310
  H       -3.1269050     2.0013970    -1.0972120
  H       -4.8034740     0.4484120    -0.0854480
units angstrom
no_reorient  #important for SAPT in psi4, default
symmetry c1  #important for SAPT in psi4, default
}

set PROPERTIES_ORIGIN ["COM"]
properties('MP2/aug-cc-pvtz', properties = ['dipole'])
--------------------------------------------------------------------------

    Molecular point group: c1
  Charge       = 0
  Multiplicity = 1
  Basis Set: AUG-CC-PVTZ
    Blend: AUG-CC-PVTZ
  Basis Set: (AUG-CC-PVTZ AUX)
    Blend: AUG-CC-PVTZ-JKFIT

    Orbital Energies [Eh]
    ---------------------

    Doubly Occupied:

       1A    -15.568431     2A    -15.550627     3A    -11.289849
       4A    -11.281237     5A    -11.279113     6A    -11.263038
       7A    -11.248774     8A    -11.242167     9A    -11.241228
      10A    -11.237642    11A    -11.236143    12A    -11.233370
      13A    -11.220351    14A    -11.218601    15A     -1.263106
      16A     -1.228932    17A     -1.132594    18A     -1.088686
      19A     -1.060656    20A     -0.998990    21A     -0.992764
      22A     -0.915725    23A     -0.870982    24A     -0.860079
      25A     -0.805334    26A     -0.795972    27A     -0.720640
      28A     -0.697743    29A     -0.670700    30A     -0.658187
      31A     -0.649655    32A     -0.621973    33A     -0.608575
      34A     -0.601899    35A     -0.589484    36A     -0.576320
      37A     -0.568165    38A     -0.548431    39A     -0.533936
      40A     -0.528886    41A     -0.504156    42A     -0.496830
      43A     -0.489169    44A     -0.422906    45A     -0.416601
      46A     -0.388094    47A     -0.367865    48A     -0.317340
      49A     -0.279319

  @DF-RHF Final Energy:  -570.48897435235278

   => Energetics <=

    Nuclear Repulsion Energy =            818.5941997645080619
    One-Electron Energy =               -2397.4038172817136001
    Two-Electron Energy =                1008.3206431648526404
    Total Energy =                       -570.4889743523527841
  Basis Set: (AUG-CC-PVTZ AUX)
    Blend: AUG-CC-PVTZ-RI
    Molecular point group: c1

    Geometry (in Angstrom), charge = 0, multiplicity = 1:

       Center              X                  Y                   Z               Mass
    ------------   -----------------  -----------------  -----------------  -----------------
         N            1.019492603464     1.792071391569     0.321767107647    14.003074004430
         N           -1.465787396536     0.865505391569    -0.617101892353    14.003074004430
         C            0.440870603464    -0.542341608431    -0.075514892353    12.000000000000
         C            1.415777603464     0.480605391569     0.093664107647    12.000000000000
         C           -1.011731396536    -0.268264608431    -0.030711892353    12.000000000000
         C            0.862111603464    -1.871485408431    -0.231596692353    12.000000000000
         C            2.772859603464     0.108849391569     0.109938107647    12.000000000000
         C            2.211096603464    -2.213374608431    -0.278498892353    12.000000000000
         C            3.164068603464    -1.216062608431    -0.076863892353    12.000000000000
         C           -1.887610396536    -1.170332608431     0.597064107647    12.000000000000
         C           -3.257343396536    -0.923834608431     0.577437107647    12.000000000000
         C            1.995067603464     2.862943391569     0.250553107647    12.000000000000
         C           -2.789666396536     1.097511391569    -0.614626892353    12.000000000000
         C           -3.723961396536     0.231966391569    -0.048374892353    12.000000000000
         H            0.109680603464    -2.628039608431    -0.465763892353     1.007825032230
         H            3.536391603464     0.867173391569     0.251583107647     1.007825032230
         H            0.132998603464     1.997131391569    -0.132094892353     1.007825032230
         H            2.511715603464    -3.243852608431    -0.448280892353     1.007825032230
         H            4.223534603464    -1.463515608431    -0.068548892353     1.007825032230
         H           -1.488355396536    -2.042255608431     1.106690107647     1.007825032230
         H           -3.947665396536    -1.613406608431     1.057572107647     1.007825032230
         H            2.570383603464     2.871101391569    -0.687577892353     1.007825032230
         H            2.700349603464     2.796115391569     1.084306107647     1.007825032230
         H            1.461979603464     3.811503391569     0.341362107647     1.007825032230
         H           -3.107046396536     2.021283391569    -1.095880892353     1.007825032230
         H           -4.783615396536     0.468298391569    -0.084116892353     1.007825032230

  Basis Set: AUG-CC-PVTZ
    Blend: AUG-CC-PVTZ
  Basis Set: (AUG-CC-PVTZ AUX)
    Blend: AUG-CC-PVTZ-JKFIT
	 Reference Energy          =    -570.4889743523527841 [Eh]
	 Singles Energy            =      -0.0000000000000000 [Eh]
	 Same-Spin Energy          =      -0.6395797522922797 [Eh]
	 Opposite-Spin Energy      =      -1.9766158304603343 [Eh]
	 Correlation Energy        =      -2.6161955827526140 [Eh]
	 Total Energy              =    -573.1051699351054367 [Eh]

	 ================> DF-SCS-MP2 Energies <==================
	-----------------------------------------------------------
	 SCS Same-Spin Scale       =       0.3333333333333333 [-]
	 SCS Opposite-Spin Scale   =       1.2000000000000000 [-]
	 SCS Same-Spin Energy      =      -0.2131932507640932 [Eh]
	 SCS Opposite-Spin Energy  =      -2.3719389965524011 [Eh]
	 SCS Correlation Energy    =      -2.5851322473164942 [Eh]
	 SCS Total Energy          =    -573.0741065996692214 [Eh]
	-----------------------------------------------------------

  Dipole Moment: [D]
     X:    -1.7266      Y:     0.1706      Z:     0.3316     Total:     1.7664

*** Psi4 exiting successfully. Buy a developer a beer!
