                               Psi4 1.4a2.dev612

  ==> Input File <==

--------------------------------------------------------------------------
#psi4
#
memory 32 gb

molecule  {
0 1
  N        0.9996340     1.7721850     0.3204360
  N       -1.4856460     0.8456190    -0.6184330
  C        0.4210120    -0.5622280    -0.0768460
  C        1.3959190     0.4607190     0.0923330
  C       -1.0315900    -0.2881510    -0.0320430
  C        0.8423560    -1.8835050    -0.2823050
  C        2.7530010     0.0889630     0.1086070
  C        2.1912380    -2.2332610    -0.2798300
  C        3.1442100    -1.2359490    -0.0781950
  C       -1.9074690    -1.1902190     0.5957330
  C       -3.2772020    -0.9437210     0.5761060
  C        1.9752090     2.8430570     0.2492220
  C       -2.8095250     1.0776250    -0.6159580
  C       -3.7438200     0.2120800    -0.0497060
  H        0.0898220    -2.6479260    -0.4670950
  H        3.5165330     0.8472870     0.2502520
  H        0.1131400     1.9772450    -0.1334260
  H        2.4918570    -3.2637390    -0.4496120
  H        4.2036760    -1.4834020    -0.0698800
  H       -1.4851080    -1.9051242     1.3599401
  H       -3.9675240    -1.6332930     1.0562410
  H        2.5505250     2.8512150    -0.6889090
  H        2.6804910     2.7762290     1.0829750
  H        1.4421210     3.7916170     0.3400310
  H       -3.1269050     2.0013970    -1.0972120
  H       -4.8034740     0.4484120    -0.0854480
units angstrom
no_reorient  #important for SAPT in psi4, default
symmetry c1  #important for SAPT in psi4, default
}

set PROPERTIES_ORIGIN ["COM"]
properties('MP2/aug-cc-pvtz', properties = ['dipole'])
--------------------------------------------------------------------------

    Molecular point group: c1
  Charge       = 0
  Multiplicity = 1
  Basis Set: AUG-CC-PVTZ
    Blend: AUG-CC-PVTZ
  Basis Set: (AUG-CC-PVTZ AUX)
    Blend: AUG-CC-PVTZ-JKFIT

    Orbital Energies [Eh]
    ---------------------

    Doubly Occupied:

       1A    -15.568848     2A    -15.550737     3A    -11.290570
       4A    -11.282125     5A    -11.279150     6A    -11.263723
       7A    -11.248876     8A    -11.244550     9A    -11.242566
      10A    -11.237039    11A    -11.236103    12A    -11.232713
      13A    -11.219753    14A    -11.217873    15A     -1.263567
      16A     -1.229052    17A     -1.132202    18A     -1.088633
      19A     -1.060159    20A     -0.998627    21A     -0.992551
      22A     -0.915697    23A     -0.870282    24A     -0.858769
      25A     -0.805202    26A     -0.795951    27A     -0.719919
      28A     -0.697143    29A     -0.670544    30A     -0.654549
      31A     -0.649076    32A     -0.619570    33A     -0.609092
      34A     -0.602201    35A     -0.587958    36A     -0.576142
      37A     -0.567667    38A     -0.550997    39A     -0.532291
      40A     -0.525266    41A     -0.502799    42A     -0.498263
      43A     -0.488445    44A     -0.423162    45A     -0.416877
      46A     -0.387741    47A     -0.365153    48A     -0.318196
      49A     -0.279593

  @DF-RHF Final Energy:  -570.48322832493216

   => Energetics <=

    Nuclear Repulsion Energy =            818.3824437297553231
    One-Electron Energy =               -2396.9954157741944982
    Two-Electron Energy =                1008.1297437195070188
    Total Energy =                       -570.4832283249321563
  Basis Set: (AUG-CC-PVTZ AUX)
    Blend: AUG-CC-PVTZ-RI
    Molecular point group: c1

    Geometry (in Angstrom), charge = 0, multiplicity = 1:

       Center              X                  Y                   Z               Mass
    ------------   -----------------  -----------------  -----------------  -----------------
         N            1.019359399777     1.790699050434     0.323591947986    14.003074004430
         N           -1.465920600223     0.864133050434    -0.615277052014    14.003074004430
         C            0.440737399777    -0.543713949566    -0.073690052014    12.000000000000
         C            1.415644399777     0.479233050434     0.095488947986    12.000000000000
         C           -1.011864600223    -0.269636949566    -0.028887052014    12.000000000000
         C            0.862081399777    -1.864990949566    -0.279149052014    12.000000000000
         C            2.772726399777     0.107477050434     0.111762947986    12.000000000000
         C            2.210963399777    -2.214746949566    -0.276674052014    12.000000000000
         C            3.163935399777    -1.217434949566    -0.075039052014    12.000000000000
         C           -1.887743600223    -1.171704949566     0.598888947986    12.000000000000
         C           -3.257476600223    -0.925206949566     0.579261947986    12.000000000000
         C            1.994934399777     2.861571050434     0.252377947986    12.000000000000
         C           -2.789799600223     1.096139050434    -0.612802052014    12.000000000000
         C           -3.724094600223     0.230594050434    -0.046550052014    12.000000000000
         H            0.109547399777    -2.629411949566    -0.463939052014     1.007825032230
         H            3.536258399777     0.865801050434     0.253407947986     1.007825032230
         H            0.132865399777     1.995759050434    -0.130270052014     1.007825032230
         H            2.511582399777    -3.245224949566    -0.446456052014     1.007825032230
         H            4.223401399777    -1.464887949566    -0.066724052014     1.007825032230
         H           -1.465382600223    -1.886610149566     1.363096047986     1.007825032230
         H           -3.947798600223    -1.614778949566     1.059396947986     1.007825032230
         H            2.570250399777     2.869729050434    -0.685753052014     1.007825032230
         H            2.700216399777     2.794743050434     1.086130947986     1.007825032230
         H            1.461846399777     3.810131050434     0.343186947986     1.007825032230
         H           -3.107179600223     2.019911050434    -1.094056052014     1.007825032230
         H           -4.783748600223     0.466926050434    -0.082292052014     1.007825032230

  Basis Set: AUG-CC-PVTZ
    Blend: AUG-CC-PVTZ
  Basis Set: (AUG-CC-PVTZ AUX)
    Blend: AUG-CC-PVTZ-JKFIT
	 Reference Energy          =    -570.4832283249321563 [Eh]
	 Singles Energy            =      -0.0000000000000000 [Eh]
	 Same-Spin Energy          =      -0.6397356920008128 [Eh]
	 Opposite-Spin Energy      =      -1.9770381243392958 [Eh]
	 Correlation Energy        =      -2.6167738163401086 [Eh]
	 Total Energy              =    -573.1000021412722845 [Eh]

	 ================> DF-SCS-MP2 Energies <==================
	-----------------------------------------------------------
	 SCS Same-Spin Scale       =       0.3333333333333333 [-]
	 SCS Opposite-Spin Scale   =       1.2000000000000000 [-]
	 SCS Same-Spin Energy      =      -0.2132452306669376 [Eh]
	 SCS Opposite-Spin Energy  =      -2.3724457492071549 [Eh]
	 SCS Correlation Energy    =      -2.5856909798740926 [Eh]
	 SCS Total Energy          =    -573.0689193048062862 [Eh]
	-----------------------------------------------------------

  Dipole Moment: [D]
     X:    -1.7508      Y:     0.2831      Z:     0.4726     Total:     1.8354

*** Psi4 exiting successfully. Buy a developer a beer!
