                               Psi4 1.4a2.dev612

  ==> Input File <==

--------------------------------------------------------------------------
#psi4
#
memory 32 gb

molecule  {
0 1
  N        0.9996340     1.7721850     0.3204360
  N       -1.4856460     0.8456190    -0.6184330
  C        0.4210120    -0.5622280    -0.0768460
  C        1.3959190     0.4607190     0.0923330
  C       -1.0315900    -0.2881510    -0.0320430
  C        0.8423560    -1.8835050    -0.2823050
  C        2.7530010     0.0889630     0.1086070
  C        2.1912380    -2.2332610    -0.2798300
  C        3.1442100    -1.2359490    -0.0781950
  C       -1.9074690    -1.1902190     0.5957330
  C       -3.2772020    -0.9437210     0.5761060
  C        1.9752090     2.8430570     0.2492220
  C       -2.8095250     1.0776250    -0.6159580
  C       -3.7438200     0.2120800    -0.0497060
  H        0.0977671    -2.6215973    -0.6145524
  H        3.5165330     0.8472870     0.2502520
  H        0.1131400     1.9772450    -0.1334260
  H        2.4918570    -3.2637390    -0.4496120
  H        4.2036760    -1.4834020    -0.0698800
  H       -1.5082140    -2.0621420     1.1053590
  H       -3.9675240    -1.6332930     1.0562410
  H        2.5505250     2.8512150    -0.6889090
  H        2.6804910     2.7762290     1.0829750
  H        1.4421210     3.7916170     0.3400310
  H       -3.1269050     2.0013970    -1.0972120
  H       -4.8034740     0.4484120    -0.0854480
units angstrom
no_reorient  #important for SAPT in psi4, default
symmetry c1  #important for SAPT in psi4, default
}

set PROPERTIES_ORIGIN ["COM"]
properties('MP2/aug-cc-pvtz', properties = ['dipole'])
--------------------------------------------------------------------------

    Molecular point group: c1
  Charge       = 0
  Multiplicity = 1
  Basis Set: AUG-CC-PVTZ
    Blend: AUG-CC-PVTZ
  Basis Set: (AUG-CC-PVTZ AUX)
    Blend: AUG-CC-PVTZ-JKFIT

    Orbital Energies [Eh]
    ---------------------

    Doubly Occupied:

       1A    -15.568635     2A    -15.550503     3A    -11.289578
       4A    -11.281280     5A    -11.278956     6A    -11.263044
       7A    -11.248744     8A    -11.242489     9A    -11.241318
      10A    -11.238178    11A    -11.235952    12A    -11.233187
      13A    -11.220257    14A    -11.218602    15A     -1.263161
      16A     -1.228849    17A     -1.132322    18A     -1.088773
      19A     -1.060518    20A     -0.998562    21A     -0.992813
      22A     -0.915628    23A     -0.870751    24A     -0.860007
      25A     -0.805068    26A     -0.795609    27A     -0.720368
      28A     -0.697693    29A     -0.670767    30A     -0.657725
      31A     -0.649339    32A     -0.621902    33A     -0.608997
      34A     -0.601577    35A     -0.588928    36A     -0.576356
      37A     -0.567860    38A     -0.548022    39A     -0.534051
      40A     -0.528866    41A     -0.505240    42A     -0.496021
      43A     -0.488184    44A     -0.422485    45A     -0.416727
      46A     -0.388083    47A     -0.366669    48A     -0.317754
      49A     -0.279454

  @DF-RHF Final Energy:  -570.48801544590492

   => Energetics <=

    Nuclear Repulsion Energy =            818.5099811703248633
    One-Electron Energy =               -2397.2442858077019991
    Two-Electron Energy =                1008.2462891914722150
    Total Energy =                       -570.4880154459049209
  Basis Set: (AUG-CC-PVTZ AUX)
    Blend: AUG-CC-PVTZ-RI
    Molecular point group: c1

    Geometry (in Angstrom), charge = 0, multiplicity = 1:

       Center              X                  Y                   Z               Mass
    ------------   -----------------  -----------------  -----------------  -----------------
         N            1.019442395597     1.791414486131     0.325792840749    14.003074004430
         N           -1.465837604403     0.864848486131    -0.613076159251    14.003074004430
         C            0.440820395597    -0.542998513869    -0.071489159251    12.000000000000
         C            1.415727395597     0.479948486131     0.097689840749    12.000000000000
         C           -1.011781604403    -0.268921513869    -0.026686159251    12.000000000000
         C            0.862164395597    -1.864275513869    -0.276948159251    12.000000000000
         C            2.772809395597     0.108192486131     0.113963840749    12.000000000000
         C            2.211046395597    -2.214031513869    -0.274473159251    12.000000000000
         C            3.164018395597    -1.216719513869    -0.072838159251    12.000000000000
         C           -1.887660604403    -1.170989513869     0.601089840749    12.000000000000
         C           -3.257393604403    -0.924491513869     0.581462840749    12.000000000000
         C            1.995017395597     2.862286486131     0.254578840749    12.000000000000
         C           -2.789716604403     1.096854486131    -0.610601159251    12.000000000000
         C           -3.724011604403     0.231309486131    -0.044349159251    12.000000000000
         H            0.117575495597    -2.602367813869    -0.609195559251     1.007825032230
         H            3.536341395597     0.866516486131     0.255608840749     1.007825032230
         H            0.132948395597     1.996474486131    -0.128069159251     1.007825032230
         H            2.511665395597    -3.244509513869    -0.444255159251     1.007825032230
         H            4.223484395597    -1.464172513869    -0.064523159251     1.007825032230
         H           -1.488405604403    -2.042912513869     1.110715840749     1.007825032230
         H           -3.947715604403    -1.614063513869     1.061597840749     1.007825032230
         H            2.570333395597     2.870444486131    -0.683552159251     1.007825032230
         H            2.700299395597     2.795458486131     1.088331840749     1.007825032230
         H            1.461929395597     3.810846486131     0.345387840749     1.007825032230
         H           -3.107096604403     2.020626486131    -1.091855159251     1.007825032230
         H           -4.783665604403     0.467641486131    -0.080091159251     1.007825032230

  Basis Set: AUG-CC-PVTZ
    Blend: AUG-CC-PVTZ
  Basis Set: (AUG-CC-PVTZ AUX)
    Blend: AUG-CC-PVTZ-JKFIT
	 Reference Energy          =    -570.4880154459049209 [Eh]
	 Singles Energy            =      -0.0000000000000000 [Eh]
	 Same-Spin Energy          =      -0.6396253009398564 [Eh]
	 Opposite-Spin Energy      =      -1.9766918439418875 [Eh]
	 Correlation Energy        =      -2.6163171448817439 [Eh]
	 Total Energy              =    -573.1043325907866119 [Eh]

	 ================> DF-SCS-MP2 Energies <==================
	-----------------------------------------------------------
	 SCS Same-Spin Scale       =       0.3333333333333333 [-]
	 SCS Opposite-Spin Scale   =       1.2000000000000000 [-]
	 SCS Same-Spin Energy      =      -0.2132084336466188 [Eh]
	 SCS Opposite-Spin Energy  =      -2.3720302127302650 [Eh]
	 SCS Correlation Energy    =      -2.5852386463768839 [Eh]
	 SCS Total Energy          =    -573.0732540922817861 [Eh]
	-----------------------------------------------------------

  Dipole Moment: [D]
     X:    -1.7430      Y:     0.1875      Z:     0.2821     Total:     1.7756

*** Psi4 exiting successfully. Buy a developer a beer!
