                               Psi4 1.4a2.dev612

  ==> Input File <==

--------------------------------------------------------------------------
#psi4
#
memory 32 gb

molecule  {
0 1
  N        0.9996340     1.7721850     0.3204360
  N       -1.4856460     0.8456190    -0.6184330
  C        0.4210120    -0.5622280    -0.0768460
  C        1.3959190     0.4607190     0.0923330
  C       -1.0315900    -0.2881510    -0.0320430
  C        0.8423560    -1.8835050    -0.2823050
  C        2.7496088     0.0730131     0.2072685
  C        2.1912380    -2.2332610    -0.2798300
  C        3.1442100    -1.2359490    -0.0781950
  C       -1.9074690    -1.1902190     0.5957330
  C       -3.2772020    -0.9437210     0.5761060
  C        1.9752090     2.8430570     0.2492220
  C       -2.8095250     1.0776250    -0.6159580
  C       -3.7438200     0.2120800    -0.0497060
  H        0.0898220    -2.6479260    -0.4670950
  H        3.5165330     0.8472870     0.2502520
  H        0.1131400     1.9772450    -0.1334260
  H        2.4918570    -3.2637390    -0.4496120
  H        4.2036760    -1.4834020    -0.0698800
  H       -1.5082140    -2.0621420     1.1053590
  H       -3.9675240    -1.6332930     1.0562410
  H        2.5505250     2.8512150    -0.6889090
  H        2.6804910     2.7762290     1.0829750
  H        1.4421210     3.7916170     0.3400310
  H       -3.1269050     2.0013970    -1.0972120
  H       -4.8034740     0.4484120    -0.0854480
units angstrom
no_reorient  #important for SAPT in psi4, default
symmetry c1  #important for SAPT in psi4, default
}

set PROPERTIES_ORIGIN ["COM"]
properties('MP2/aug-cc-pvtz', properties = ['dipole'])
--------------------------------------------------------------------------

    Molecular point group: c1
  Charge       = 0
  Multiplicity = 1
  Basis Set: AUG-CC-PVTZ
    Blend: AUG-CC-PVTZ
  Basis Set: (AUG-CC-PVTZ AUX)
    Blend: AUG-CC-PVTZ-JKFIT

    Orbital Energies [Eh]
    ---------------------

    Doubly Occupied:

       1A    -15.568526     2A    -15.551300     3A    -11.289994
       4A    -11.281367     5A    -11.280275     6A    -11.263245
       7A    -11.249046     8A    -11.242309     9A    -11.241482
      10A    -11.237909    11A    -11.236702    12A    -11.233016
      13A    -11.220830    14A    -11.218059    15A     -1.263255
      16A     -1.229130    17A     -1.132319    18A     -1.088858
      19A     -1.060473    20A     -0.998406    21A     -0.992859
      22A     -0.915742    23A     -0.870792    24A     -0.860184
      25A     -0.805097    26A     -0.795953    27A     -0.720467
      28A     -0.697756    29A     -0.670597    30A     -0.658139
      31A     -0.649970    32A     -0.621412    33A     -0.607327
      34A     -0.601911    35A     -0.589559    36A     -0.576583
      37A     -0.568097    38A     -0.548443    39A     -0.533880
      40A     -0.528766    41A     -0.504929    42A     -0.496560
      43A     -0.487894    44A     -0.424504    45A     -0.415942
      46A     -0.388079    47A     -0.367170    48A     -0.317710
      49A     -0.278817

  @DF-RHF Final Energy:  -570.48637808891613

   => Energetics <=

    Nuclear Repulsion Energy =            818.4175526169557315
    One-Electron Energy =               -2397.0445876022727134
    Two-Electron Energy =                1008.1406568964009693
    Total Energy =                       -570.4863780889161262
  Basis Set: (AUG-CC-PVTZ AUX)
    Blend: AUG-CC-PVTZ-RI
    Molecular point group: c1

    Geometry (in Angstrom), charge = 0, multiplicity = 1:

       Center              X                  Y                   Z               Mass
    ------------   -----------------  -----------------  -----------------  -----------------
         N            1.019706999931     1.792598263783     0.318554660909    14.003074004430
         N           -1.465573000069     0.866032263783    -0.620314339091    14.003074004430
         C            0.441084999931    -0.541814736217    -0.078727339091    12.000000000000
         C            1.415991999931     0.481132263783     0.090451660909    12.000000000000
         C           -1.011517000069    -0.267737736217    -0.033924339091    12.000000000000
         C            0.862428999931    -1.863091736217    -0.284186339091    12.000000000000
         C            2.769681799931     0.093426363783     0.205387160909    12.000000000000
         C            2.211310999931    -2.212847736217    -0.281711339091    12.000000000000
         C            3.164282999931    -1.215535736217    -0.080076339091    12.000000000000
         C           -1.887396000069    -1.169805736217     0.593851660909    12.000000000000
         C           -3.257129000069    -0.923307736217     0.574224660909    12.000000000000
         C            1.995281999931     2.863470263783     0.247340660909    12.000000000000
         C           -2.789452000069     1.098038263783    -0.617839339091    12.000000000000
         C           -3.723747000069     0.232493263783    -0.051587339091    12.000000000000
         H            0.109894999931    -2.627512736217    -0.468976339091     1.007825032230
         H            3.536605999931     0.867700263783     0.248370660909     1.007825032230
         H            0.133212999931     1.997658263783    -0.135307339091     1.007825032230
         H            2.511929999931    -3.243325736217    -0.451493339091     1.007825032230
         H            4.223748999931    -1.462988736217    -0.071761339091     1.007825032230
         H           -1.488141000069    -2.041728736217     1.103477660909     1.007825032230
         H           -3.947451000069    -1.612879736217     1.054359660909     1.007825032230
         H            2.570597999931     2.871628263783    -0.690790339091     1.007825032230
         H            2.700563999931     2.796642263783     1.081093660909     1.007825032230
         H            1.462193999931     3.812030263783     0.338149660909     1.007825032230
         H           -3.106832000069     2.021810263783    -1.099093339091     1.007825032230
         H           -4.783401000069     0.468825263783    -0.087329339091     1.007825032230

  Basis Set: AUG-CC-PVTZ
    Blend: AUG-CC-PVTZ
  Basis Set: (AUG-CC-PVTZ AUX)
    Blend: AUG-CC-PVTZ-JKFIT
	 Reference Energy          =    -570.4863780889161262 [Eh]
	 Singles Energy            =      -0.0000000000000000 [Eh]
	 Same-Spin Energy          =      -0.6396047351502741 [Eh]
	 Opposite-Spin Energy      =      -1.9767716400507864 [Eh]
	 Correlation Energy        =      -2.6163763752010603 [Eh]
	 Total Energy              =    -573.1027544641171971 [Eh]

	 ================> DF-SCS-MP2 Energies <==================
	-----------------------------------------------------------
	 SCS Same-Spin Scale       =       0.3333333333333333 [-]
	 SCS Opposite-Spin Scale   =       1.2000000000000000 [-]
	 SCS Same-Spin Energy      =      -0.2132015783834247 [Eh]
	 SCS Opposite-Spin Energy  =      -2.3721259680609434 [Eh]
	 SCS Correlation Energy    =      -2.5853275464443684 [Eh]
	 SCS Total Energy          =    -573.0717056353604448 [Eh]
	-----------------------------------------------------------

  Dipole Moment: [D]
     X:    -1.7710      Y:     0.1851      Z:     0.2900     Total:     1.8042

*** Psi4 exiting successfully. Buy a developer a beer!
