                               Psi4 1.4a2.dev612

  ==> Input File <==

--------------------------------------------------------------------------
#psi4
#
memory 32 gb

molecule  {
0 1
  N        0.9996340     1.7721850     0.3204360
  N       -1.4856460     0.8456190    -0.6184330
  C        0.4210120    -0.5622280    -0.0768460
  C        1.3959190     0.4607190     0.0923330
  C       -1.0315900    -0.2881510    -0.0320430
  C        0.8423560    -1.8835050    -0.2823050
  C        2.7513049     0.0809881     0.1579378
  C        2.1912380    -2.2332610    -0.2798300
  C        3.1442100    -1.2359490    -0.0781950
  C       -1.9074690    -1.1902190     0.5957330
  C       -3.2772020    -0.9437210     0.5761060
  C        1.9752090     2.8430570     0.2492220
  C       -2.8095250     1.0776250    -0.6159580
  C       -3.7438200     0.2120800    -0.0497060
  H        0.0898220    -2.6479260    -0.4670950
  H        3.5165330     0.8472870     0.2502520
  H        0.1131400     1.9772450    -0.1334260
  H        2.4918570    -3.2637390    -0.4496120
  H        4.2036760    -1.4834020    -0.0698800
  H       -1.5082140    -2.0621420     1.1053590
  H       -3.9675240    -1.6332930     1.0562410
  H        2.5505250     2.8512150    -0.6889090
  H        2.6804910     2.7762290     1.0829750
  H        1.4421210     3.7916170     0.3400310
  H       -3.1269050     2.0013970    -1.0972120
  H       -4.8034740     0.4484120    -0.0854480
units angstrom
no_reorient  #important for SAPT in psi4, default
symmetry c1  #important for SAPT in psi4, default
}

set PROPERTIES_ORIGIN ["COM"]
properties('MP2/aug-cc-pvtz', properties = ['dipole'])
--------------------------------------------------------------------------

    Molecular point group: c1
  Charge       = 0
  Multiplicity = 1
  Basis Set: AUG-CC-PVTZ
    Blend: AUG-CC-PVTZ
  Basis Set: (AUG-CC-PVTZ AUX)
    Blend: AUG-CC-PVTZ-JKFIT

    Orbital Energies [Eh]
    ---------------------

    Doubly Occupied:

       1A    -15.568574     2A    -15.550817     3A    -11.289943
       4A    -11.281363     5A    -11.279411     6A    -11.263232
       7A    -11.248874     8A    -11.242373     9A    -11.241500
      10A    -11.237544    11A    -11.236123    12A    -11.233060
      13A    -11.220228    14A    -11.218222    15A     -1.263231
      16A     -1.228960    17A     -1.132386    18A     -1.088869
      19A     -1.060593    20A     -0.998708    21A     -0.992851
      22A     -0.915676    23A     -0.870942    24A     -0.860193
      25A     -0.805287    26A     -0.796134    27A     -0.720637
      28A     -0.697751    29A     -0.670733    30A     -0.658223
      31A     -0.649915    32A     -0.621728    33A     -0.607959
      34A     -0.602338    35A     -0.589750    36A     -0.576529
      37A     -0.568057    38A     -0.548452    39A     -0.533954
      40A     -0.528825    41A     -0.504310    42A     -0.496992
      43A     -0.488867    44A     -0.423850    45A     -0.416189
      46A     -0.388082    47A     -0.367236    48A     -0.317603
      49A     -0.279131

  @DF-RHF Final Energy:  -570.48877261651103

   => Energetics <=

    Nuclear Repulsion Energy =            818.5308163776796846
    One-Electron Energy =               -2397.2747719689932637
    Two-Electron Energy =                1008.2551829748025511
    Total Energy =                       -570.4887726165110280
  Basis Set: (AUG-CC-PVTZ AUX)
    Blend: AUG-CC-PVTZ-RI
    Molecular point group: c1

    Geometry (in Angstrom), charge = 0, multiplicity = 1:

       Center              X                  Y                   Z               Mass
    ------------   -----------------  -----------------  -----------------  -----------------
         N            1.019596444827     1.792078437738     0.321770132089    14.003074004430
         N           -1.465683555173     0.865512437738    -0.617098867911    14.003074004430
         C            0.440974444827    -0.542334562262    -0.075511867911    12.000000000000
         C            1.415881444827     0.480612437738     0.093667132089    12.000000000000
         C           -1.011627555173    -0.268257562262    -0.030708867911    12.000000000000
         C            0.862318444827    -1.863611562262    -0.280970867911    12.000000000000
         C            2.771267344827     0.100881537738     0.159271932089    12.000000000000
         C            2.211200444827    -2.213367562262    -0.278495867911    12.000000000000
         C            3.164172444827    -1.216055562262    -0.076860867911    12.000000000000
         C           -1.887506555173    -1.170325562262     0.597067132089    12.000000000000
         C           -3.257239555173    -0.923827562262     0.577440132089    12.000000000000
         C            1.995171444827     2.862950437738     0.250556132089    12.000000000000
         C           -2.789562555173     1.097518437738    -0.614623867911    12.000000000000
         C           -3.723857555173     0.231973437738    -0.048371867911    12.000000000000
         H            0.109784444827    -2.628032562262    -0.465760867911     1.007825032230
         H            3.536495444827     0.867180437738     0.251586132089     1.007825032230
         H            0.133102444827     1.997138437738    -0.132091867911     1.007825032230
         H            2.511819444827    -3.243845562262    -0.448277867911     1.007825032230
         H            4.223638444827    -1.463508562262    -0.068545867911     1.007825032230
         H           -1.488251555173    -2.042248562262     1.106693132089     1.007825032230
         H           -3.947561555173    -1.613399562262     1.057575132089     1.007825032230
         H            2.570487444827     2.871108437738    -0.687574867911     1.007825032230
         H            2.700453444827     2.796122437738     1.084309132089     1.007825032230
         H            1.462083444827     3.811510437738     0.341365132089     1.007825032230
         H           -3.106942555173     2.021290437738    -1.095877867911     1.007825032230
         H           -4.783511555173     0.468305437738    -0.084113867911     1.007825032230

  Basis Set: AUG-CC-PVTZ
    Blend: AUG-CC-PVTZ
  Basis Set: (AUG-CC-PVTZ AUX)
    Blend: AUG-CC-PVTZ-JKFIT
	 Reference Energy          =    -570.4887726165110280 [Eh]
	 Singles Energy            =      -0.0000000000000000 [Eh]
	 Same-Spin Energy          =      -0.6395125808161206 [Eh]
	 Opposite-Spin Energy      =      -1.9764975208427029 [Eh]
	 Correlation Energy        =      -2.6160101016588237 [Eh]
	 Total Energy              =    -573.1047827181698722 [Eh]

	 ================> DF-SCS-MP2 Energies <==================
	-----------------------------------------------------------
	 SCS Same-Spin Scale       =       0.3333333333333333 [-]
	 SCS Opposite-Spin Scale   =       1.2000000000000000 [-]
	 SCS Same-Spin Energy      =      -0.2131708602720402 [Eh]
	 SCS Opposite-Spin Energy  =      -2.3717970250112432 [Eh]
	 SCS Correlation Energy    =      -2.5849678852832834 [Eh]
	 SCS Total Energy          =    -573.0737405017943047 [Eh]
	-----------------------------------------------------------

  Dipole Moment: [D]
     X:    -1.7608      Y:     0.1753      Z:     0.3266     Total:     1.7994

*** Psi4 exiting successfully. Buy a developer a beer!
