                               Psi4 1.4a2.dev612

  ==> Input File <==

--------------------------------------------------------------------------
#psi4
#
memory 32 gb

molecule  {
0 1
  N        0.9996340     1.7721850     0.3204360
  N       -1.4856460     0.8456190    -0.6184330
  C        0.4210120    -0.5622280    -0.0768460
  C        1.3959190     0.4607190     0.0923330
  C       -1.0315900    -0.2881510    -0.0320430
  C        0.8423560    -1.8835050    -0.2823050
  C        2.7530010     0.0889630     0.1086070
  C        2.1912380    -2.2332610    -0.2798300
  C        3.1442100    -1.2359490    -0.0781950
  C       -1.9074690    -1.1902190     0.5957330
  C       -3.2772020    -0.9437210     0.5761060
  C        1.9752090     2.8430570     0.2492220
  C       -2.8095250     1.0776250    -0.6159580
  C       -3.7438200     0.2120800    -0.0497060
  H        0.0898220    -2.6479260    -0.4670950
  H        3.5165330     0.8472870     0.2502520
  H        0.1131400     1.9772450    -0.1334260
  H        2.4918570    -3.2637390    -0.4496120
  H        4.2036760    -1.4834020    -0.0698800
  H       -1.5005120    -2.0098027     1.1902194
  H       -3.9675240    -1.6332930     1.0562410
  H        2.5505250     2.8512150    -0.6889090
  H        2.6804910     2.7762290     1.0829750
  H        1.4421210     3.7916170     0.3400310
  H       -3.1269050     2.0013970    -1.0972120
  H       -4.8034740     0.4484120    -0.0854480
units angstrom
no_reorient  #important for SAPT in psi4, default
symmetry c1  #important for SAPT in psi4, default
}

set PROPERTIES_ORIGIN ["COM"]
properties('MP2/aug-cc-pvtz', properties = ['dipole'])
--------------------------------------------------------------------------

    Molecular point group: c1
  Charge       = 0
  Multiplicity = 1
  Basis Set: AUG-CC-PVTZ
    Blend: AUG-CC-PVTZ
  Basis Set: (AUG-CC-PVTZ AUX)
    Blend: AUG-CC-PVTZ-JKFIT

    Orbital Energies [Eh]
    ---------------------

    Doubly Occupied:

       1A    -15.568643     2A    -15.550554     3A    -11.289980
       4A    -11.281449     5A    -11.278998     6A    -11.263273
       7A    -11.248748     8A    -11.242437     9A    -11.241829
      10A    -11.237296    11A    -11.235975    12A    -11.232986
      13A    -11.219902    14A    -11.218218    15A     -1.263256
      16A     -1.228875    17A     -1.132330    18A     -1.088831
      19A     -1.060532    20A     -0.998762    21A     -0.992782
      22A     -0.915621    23A     -0.870840    24A     -0.859979
      25A     -0.805349    26A     -0.796068    27A     -0.720493
      28A     -0.697809    29A     -0.670700    30A     -0.657461
      31A     -0.649845    32A     -0.621458    33A     -0.608886
      34A     -0.602442    35A     -0.589382    36A     -0.576343
      37A     -0.567792    38A     -0.549232    39A     -0.533480
      40A     -0.528190    41A     -0.503427    42A     -0.497777
      43A     -0.489045    44A     -0.423124    45A     -0.416508
      46A     -0.388014    47A     -0.366727    48A     -0.317777
      49A     -0.279502

  @DF-RHF Final Energy:  -570.48904956020760

   => Energetics <=

    Nuclear Repulsion Energy =            818.5529642745693764
    One-Electron Energy =               -2397.3261708199702298
    Two-Electron Energy =                1008.2841569851932491
    Total Energy =                       -570.4890495602076044
  Basis Set: (AUG-CC-PVTZ AUX)
    Blend: AUG-CC-PVTZ-RI
    Molecular point group: c1

    Geometry (in Angstrom), charge = 0, multiplicity = 1:

       Center              X                  Y                   Z               Mass
    ------------   -----------------  -----------------  -----------------  -----------------
         N            1.019443726408     1.791272095436     0.324521055672    14.003074004430
         N           -1.465836273592     0.864706095436    -0.614347944328    14.003074004430
         C            0.440821726408    -0.543140904564    -0.072760944328    12.000000000000
         C            1.415728726408     0.479806095436     0.096418055672    12.000000000000
         C           -1.011780273592    -0.269063904564    -0.027957944328    12.000000000000
         C            0.862165726408    -1.864417904564    -0.278219944328    12.000000000000
         C            2.772810726408     0.108050095436     0.112692055672    12.000000000000
         C            2.211047726408    -2.214173904564    -0.275744944328    12.000000000000
         C            3.164019726408    -1.216861904564    -0.074109944328    12.000000000000
         C           -1.887659273592    -1.171131904564     0.599818055672    12.000000000000
         C           -3.257392273592    -0.924633904564     0.580191055672    12.000000000000
         C            1.995018726408     2.862144095436     0.253307055672    12.000000000000
         C           -2.789715273592     1.096712095436    -0.611872944328    12.000000000000
         C           -3.724010273592     0.231167095436    -0.045620944328    12.000000000000
         H            0.109631726408    -2.628838904564    -0.463009944328     1.007825032230
         H            3.536342726408     0.866374095436     0.254337055672     1.007825032230
         H            0.132949726408     1.996332095436    -0.129340944328     1.007825032230
         H            2.511666726408    -3.244651904564    -0.445526944328     1.007825032230
         H            4.223485726408    -1.464314904564    -0.065794944328     1.007825032230
         H           -1.480702273592    -1.990715604564     1.194304455672     1.007825032230
         H           -3.947714273592    -1.614205904564     1.060326055672     1.007825032230
         H            2.570334726408     2.870302095436    -0.684823944328     1.007825032230
         H            2.700300726408     2.795316095436     1.087060055672     1.007825032230
         H            1.461930726408     3.810704095436     0.344116055672     1.007825032230
         H           -3.107095273592     2.020484095436    -1.093126944328     1.007825032230
         H           -4.783664273592     0.467499095436    -0.081362944328     1.007825032230

  Basis Set: AUG-CC-PVTZ
    Blend: AUG-CC-PVTZ
  Basis Set: (AUG-CC-PVTZ AUX)
    Blend: AUG-CC-PVTZ-JKFIT
	 Reference Energy          =    -570.4890495602076044 [Eh]
	 Singles Energy            =      -0.0000000000000000 [Eh]
	 Same-Spin Energy          =      -0.6395070108417765 [Eh]
	 Opposite-Spin Energy      =      -1.9764862505979506 [Eh]
	 Correlation Energy        =      -2.6159932614397272 [Eh]
	 Total Energy              =    -573.1050428216473165 [Eh]

	 ================> DF-SCS-MP2 Energies <==================
	-----------------------------------------------------------
	 SCS Same-Spin Scale       =       0.3333333333333333 [-]
	 SCS Opposite-Spin Scale   =       1.2000000000000000 [-]
	 SCS Same-Spin Energy      =      -0.2131690036139255 [Eh]
	 SCS Opposite-Spin Energy  =      -2.3717835007175405 [Eh]
	 SCS Correlation Energy    =      -2.5849525043314658 [Eh]
	 SCS Total Energy          =    -573.0740020645390587 [Eh]
	-----------------------------------------------------------

  Dipole Moment: [D]
     X:    -1.7558      Y:     0.1933      Z:     0.4051     Total:     1.8122

*** Psi4 exiting successfully. Buy a developer a beer!
