                               Psi4 1.4a2.dev612

  ==> Input File <==

--------------------------------------------------------------------------
#psi4
#
memory 32 gb

molecule  {
0 1
  N        0.9996340     1.7721850     0.3204360
  N       -1.4856460     0.8456190    -0.6184330
  C        0.4210120    -0.5622280    -0.0768460
  C        1.3959190     0.4607190     0.0923330
  C       -1.0315900    -0.2881510    -0.0320430
  C        0.8423560    -1.8835050    -0.2823050
  C        2.7530010     0.0889630     0.1086070
  C        2.1912380    -2.2332610    -0.2798300
  C        3.1442100    -1.2359490    -0.0781950
  C       -1.9074690    -1.1902190     0.5957330
  C       -3.2772020    -0.9437210     0.5761060
  C        1.9752090     2.8430570     0.2492220
  C       -2.8095250     1.0776250    -0.6159580
  C       -3.7438200     0.2120800    -0.0497060
  H        0.0898220    -2.6479260    -0.4670950
  H        3.5165330     0.8472870     0.2502520
  H        0.1131400     1.9772450    -0.1334260
  H        2.4918570    -3.2637390    -0.4496120
  H        4.2036760    -1.4834020    -0.0698800
  H       -1.5082140    -2.0621420     1.1053590
  H       -3.9675240    -1.6332930     1.0562410
  H        2.5505250     2.8512150    -0.6889090
  H        2.6804910     2.7762290     1.0829750
  H        1.4421210     3.7916170     0.3400310
  H       -3.1311355     1.9773211    -1.1408291
  H       -4.8034740     0.4484120    -0.0854480
units angstrom
no_reorient  #important for SAPT in psi4, default
symmetry c1  #important for SAPT in psi4, default
}

set PROPERTIES_ORIGIN ["COM"]
properties('MP2/aug-cc-pvtz', properties = ['dipole'])
--------------------------------------------------------------------------

    Molecular point group: c1
  Charge       = 0
  Multiplicity = 1
  Basis Set: AUG-CC-PVTZ
    Blend: AUG-CC-PVTZ
  Basis Set: (AUG-CC-PVTZ AUX)
    Blend: AUG-CC-PVTZ-JKFIT

    Orbital Energies [Eh]
    ---------------------

    Doubly Occupied:

       1A    -15.568672     2A    -15.550514     3A    -11.289939
       4A    -11.281480     5A    -11.278956     6A    -11.263242
       7A    -11.248703     8A    -11.242443     9A    -11.241564
      10A    -11.237434    11A    -11.235925    12A    -11.233129
      13A    -11.219976    14A    -11.218379    15A     -1.263249
      16A     -1.228841    17A     -1.132398    18A     -1.088911
      19A     -1.060634    20A     -0.998825    21A     -0.992820
      22A     -0.915608    23A     -0.871032    24A     -0.860154
      25A     -0.805351    26A     -0.796145    27A     -0.720675
      28A     -0.697734    29A     -0.670764    30A     -0.658233
      31A     -0.649931    32A     -0.621782    33A     -0.608687
      34A     -0.602370    35A     -0.589769    36A     -0.576548
      37A     -0.567916    38A     -0.547833    39A     -0.534244
      40A     -0.529057    41A     -0.503920    42A     -0.497048
      43A     -0.489301    44A     -0.423177    45A     -0.416347
      46A     -0.388093    47A     -0.367422    48A     -0.317511
      49A     -0.279441

  @DF-RHF Final Energy:  -570.48957665949774

   => Energetics <=

    Nuclear Repulsion Energy =            818.5724980221220903
    One-Electron Energy =               -2397.3598957670456002
    Two-Electron Energy =                1008.2978210854257668
    Total Energy =                       -570.4895766594977431
  Basis Set: (AUG-CC-PVTZ AUX)
    Blend: AUG-CC-PVTZ-RI
    Molecular point group: c1

    Geometry (in Angstrom), charge = 0, multiplicity = 1:

       Center              X                  Y                   Z               Mass
    ------------   -----------------  -----------------  -----------------  -----------------
         N            1.019509048890     1.791690417713     0.325224384333    14.003074004430
         N           -1.465770951110     0.865124417713    -0.613644615667    14.003074004430
         C            0.440887048890    -0.542722582287    -0.072057615667    12.000000000000
         C            1.415794048890     0.480224417713     0.097121384333    12.000000000000
         C           -1.011714951110    -0.268645582287    -0.027254615667    12.000000000000
         C            0.862231048890    -1.863999582287    -0.277516615667    12.000000000000
         C            2.772876048890     0.108468417713     0.113395384333    12.000000000000
         C            2.211113048890    -2.213755582287    -0.275041615667    12.000000000000
         C            3.164085048890    -1.216443582287    -0.073406615667    12.000000000000
         C           -1.887593951110    -1.170713582287     0.600521384333    12.000000000000
         C           -3.257326951110    -0.924215582287     0.580894384333    12.000000000000
         C            1.995084048890     2.862562417713     0.254010384333    12.000000000000
         C           -2.789649951110     1.097130417713    -0.611169615667    12.000000000000
         C           -3.723944951110     0.231585417713    -0.044917615667    12.000000000000
         H            0.109697048890    -2.628420582287    -0.462306615667     1.007825032230
         H            3.536408048890     0.866792417713     0.255040384333     1.007825032230
         H            0.133015048890     1.996750417713    -0.128637615667     1.007825032230
         H            2.511732048890    -3.244233582287    -0.444823615667     1.007825032230
         H            4.223551048890    -1.463896582287    -0.065091615667     1.007825032230
         H           -1.488338951110    -2.042636582287     1.110147384333     1.007825032230
         H           -3.947648951110    -1.613787582287     1.061029384333     1.007825032230
         H            2.570400048890     2.870720417713    -0.684120615667     1.007825032230
         H            2.700366048890     2.795734417713     1.087763384333     1.007825032230
         H            1.461996048890     3.811122417713     0.344819384333     1.007825032230
         H           -3.111260451110     1.996826517713    -1.136040715667     1.007825032230
         H           -4.783598951110     0.467917417713    -0.080659615667     1.007825032230

  Basis Set: AUG-CC-PVTZ
    Blend: AUG-CC-PVTZ
  Basis Set: (AUG-CC-PVTZ AUX)
    Blend: AUG-CC-PVTZ-JKFIT
	 Reference Energy          =    -570.4895766594977431 [Eh]
	 Singles Energy            =      -0.0000000000000000 [Eh]
	 Same-Spin Energy          =      -0.6394888582263044 [Eh]
	 Opposite-Spin Energy      =      -1.9764638345333982 [Eh]
	 Correlation Energy        =      -2.6159526927597025 [Eh]
	 Total Energy              =    -573.1055293522574630 [Eh]

	 ================> DF-SCS-MP2 Energies <==================
	-----------------------------------------------------------
	 SCS Same-Spin Scale       =       0.3333333333333333 [-]
	 SCS Opposite-Spin Scale   =       1.2000000000000000 [-]
	 SCS Same-Spin Energy      =      -0.2131629527421015 [Eh]
	 SCS Opposite-Spin Energy  =      -2.3717566014400777 [Eh]
	 SCS Correlation Energy    =      -2.5849195541821790 [Eh]
	 SCS Total Energy          =    -573.0744962136799359 [Eh]
	-----------------------------------------------------------

  Dipole Moment: [D]
     X:    -1.7626      Y:     0.1486      Z:     0.3402     Total:     1.8013

*** Psi4 exiting successfully. Buy a developer a beer!
