                               Psi4 1.4a2.dev612

  ==> Input File <==

--------------------------------------------------------------------------
#psi4
#
memory 32 gb

molecule  {
0 1
  N        0.9996340     1.7721850     0.3204360
  N       -1.4856460     0.8456190    -0.6184330
  C        0.4210120    -0.5622280    -0.0768460
  C        1.3959190     0.4607190     0.0923330
  C       -1.0315900    -0.2881510    -0.0320430
  C        0.8423560    -1.8835050    -0.2823050
  C        2.7530010     0.0889630     0.1086070
  C        2.1912380    -2.2332610    -0.2798300
  C        3.1442100    -1.2359490    -0.0781950
  C       -1.9191752    -1.2392883     0.5093897
  C       -3.2772020    -0.9437210     0.5761060
  C        1.9752090     2.8430570     0.2492220
  C       -2.8095250     1.0776250    -0.6159580
  C       -3.7438200     0.2120800    -0.0497060
  H        0.0898220    -2.6479260    -0.4670950
  H        3.5165330     0.8472870     0.2502520
  H        0.1131400     1.9772450    -0.1334260
  H        2.4918570    -3.2637390    -0.4496120
  H        4.2036760    -1.4834020    -0.0698800
  H       -1.5082140    -2.0621420     1.1053590
  H       -3.9675240    -1.6332930     1.0562410
  H        2.5505250     2.8512150    -0.6889090
  H        2.6804910     2.7762290     1.0829750
  H        1.4421210     3.7916170     0.3400310
  H       -3.1269050     2.0013970    -1.0972120
  H       -4.8034740     0.4484120    -0.0854480
units angstrom
no_reorient  #important for SAPT in psi4, default
symmetry c1  #important for SAPT in psi4, default
}

set PROPERTIES_ORIGIN ["COM"]
properties('MP2/aug-cc-pvtz', properties = ['dipole'])
--------------------------------------------------------------------------

    Molecular point group: c1
  Charge       = 0
  Multiplicity = 1
  Basis Set: AUG-CC-PVTZ
    Blend: AUG-CC-PVTZ
  Basis Set: (AUG-CC-PVTZ AUX)
    Blend: AUG-CC-PVTZ-JKFIT

    Orbital Energies [Eh]
    ---------------------

    Doubly Occupied:

       1A    -15.568373     2A    -15.550583     3A    -11.291027
       4A    -11.281788     5A    -11.279127     6A    -11.263547
       7A    -11.248791     8A    -11.242064     9A    -11.242009
      10A    -11.237369    11A    -11.236118    12A    -11.233190
      13A    -11.220002    14A    -11.218368    15A     -1.263232
      16A     -1.228944    17A     -1.132494    18A     -1.088929
      19A     -1.060477    20A     -0.998813    21A     -0.992674
      22A     -0.915716    23A     -0.870956    24A     -0.859677
      25A     -0.805403    26A     -0.795992    27A     -0.720531
      28A     -0.697478    29A     -0.670497    30A     -0.657218
      31A     -0.649359    32A     -0.620700    33A     -0.608809
      34A     -0.602096    35A     -0.589581    36A     -0.576288
      37A     -0.567860    38A     -0.549451    39A     -0.532680
      40A     -0.528222    41A     -0.503286    42A     -0.497881
      43A     -0.489429    44A     -0.422954    45A     -0.416111
      46A     -0.388644    47A     -0.368258    48A     -0.316901
      49A     -0.279181

  @DF-RHF Final Energy:  -570.48682804916120

   => Energetics <=

    Nuclear Repulsion Energy =            818.4790439432518951
    One-Electron Energy =               -2397.1735850995601140
    Two-Electron Energy =                1008.2077131071471285
    Total Energy =                       -570.4868280491612040
  Basis Set: (AUG-CC-PVTZ AUX)
    Blend: AUG-CC-PVTZ-RI
    Molecular point group: c1

    Geometry (in Angstrom), charge = 0, multiplicity = 1:

       Center              X                  Y                   Z               Mass
    ------------   -----------------  -----------------  -----------------  -----------------
         N            1.020248922657     1.794757050831     0.330613634382    14.003074004430
         N           -1.465031077343     0.868191050831    -0.608255365618    14.003074004430
         C            0.441626922657    -0.539655949169    -0.066668365618    12.000000000000
         C            1.416533922657     0.483291050831     0.102510634382    12.000000000000
         C           -1.010975077343    -0.265578949169    -0.021865365618    12.000000000000
         C            0.862970922657    -1.860932949169    -0.272127365618    12.000000000000
         C            2.773615922657     0.111535050831     0.118784634382    12.000000000000
         C            2.211852922657    -2.210688949169    -0.269652365618    12.000000000000
         C            3.164824922657    -1.213376949169    -0.068017365618    12.000000000000
         C           -1.898560277343    -1.216716249169     0.519567334382    12.000000000000
         C           -3.256587077343    -0.921148949169     0.586283634382    12.000000000000
         C            1.995823922657     2.865629050831     0.259399634382    12.000000000000
         C           -2.788910077343     1.100197050831    -0.605780365618    12.000000000000
         C           -3.723205077343     0.234652050831    -0.039528365618    12.000000000000
         H            0.110436922657    -2.625353949169    -0.456917365618     1.007825032230
         H            3.537147922657     0.869859050831     0.260429634382     1.007825032230
         H            0.133754922657     1.999817050831    -0.123248365618     1.007825032230
         H            2.512471922657    -3.241166949169    -0.439434365618     1.007825032230
         H            4.224290922657    -1.460829949169    -0.059702365618     1.007825032230
         H           -1.487599077343    -2.039569949169     1.115536634382     1.007825032230
         H           -3.946909077343    -1.610720949169     1.066418634382     1.007825032230
         H            2.571139922657     2.873787050831    -0.678731365618     1.007825032230
         H            2.701105922657     2.798801050831     1.093152634382     1.007825032230
         H            1.462735922657     3.814189050831     0.350208634382     1.007825032230
         H           -3.106290077343     2.023969050831    -1.087034365618     1.007825032230
         H           -4.782859077343     0.470984050831    -0.075270365618     1.007825032230

  Basis Set: AUG-CC-PVTZ
    Blend: AUG-CC-PVTZ
  Basis Set: (AUG-CC-PVTZ AUX)
    Blend: AUG-CC-PVTZ-JKFIT
	 Reference Energy          =    -570.4868280491612040 [Eh]
	 Singles Energy            =      -0.0000000000000000 [Eh]
	 Same-Spin Energy          =      -0.6396146498336789 [Eh]
	 Opposite-Spin Energy      =      -1.9767932864893814 [Eh]
	 Correlation Energy        =      -2.6164079363230601 [Eh]
	 Total Energy              =    -573.1032359854842753 [Eh]

	 ================> DF-SCS-MP2 Energies <==================
	-----------------------------------------------------------
	 SCS Same-Spin Scale       =       0.3333333333333333 [-]
	 SCS Opposite-Spin Scale   =       1.2000000000000000 [-]
	 SCS Same-Spin Energy      =      -0.2132048832778929 [Eh]
	 SCS Opposite-Spin Energy  =      -2.3721519437872574 [Eh]
	 SCS Correlation Energy    =      -2.5853568270651501 [Eh]
	 SCS Total Energy          =    -573.0721848762264017 [Eh]
	-----------------------------------------------------------

  Dipole Moment: [D]
     X:    -1.7557      Y:     0.1924      Z:     0.3733     Total:     1.8052

*** Psi4 exiting successfully. Buy a developer a beer!
