                               Psi4 1.4a2.dev612

  ==> Input File <==

--------------------------------------------------------------------------
#psi4
#
memory 32 gb

molecule  {
0 1
  N        0.9996340     1.7721850     0.3204360
  N       -1.4856460     0.8456190    -0.6184330
  C        0.4210120    -0.5622280    -0.0768460
  C        1.3959190     0.4607190     0.0923330
  C       -1.0315900    -0.2881510    -0.0320430
  C        0.8423560    -1.8835050    -0.2823050
  C        2.7530010     0.0889630     0.1086070
  C        2.1912380    -2.2332610    -0.2798300
  C        3.1442100    -1.2359490    -0.0781950
  C       -1.9308814    -1.2883576     0.4230464
  C       -3.2772020    -0.9437210     0.5761060
  C        1.9752090     2.8430570     0.2492220
  C       -2.8095250     1.0776250    -0.6159580
  C       -3.7438200     0.2120800    -0.0497060
  H        0.0898220    -2.6479260    -0.4670950
  H        3.5165330     0.8472870     0.2502520
  H        0.1131400     1.9772450    -0.1334260
  H        2.4918570    -3.2637390    -0.4496120
  H        4.2036760    -1.4834020    -0.0698800
  H       -1.5082140    -2.0621420     1.1053590
  H       -3.9675240    -1.6332930     1.0562410
  H        2.5505250     2.8512150    -0.6889090
  H        2.6804910     2.7762290     1.0829750
  H        1.4421210     3.7916170     0.3400310
  H       -3.1269050     2.0013970    -1.0972120
  H       -4.8034740     0.4484120    -0.0854480
units angstrom
no_reorient  #important for SAPT in psi4, default
symmetry c1  #important for SAPT in psi4, default
}

set PROPERTIES_ORIGIN ["COM"]
properties('MP2/aug-cc-pvtz', properties = ['dipole'])
--------------------------------------------------------------------------

    Molecular point group: c1
  Charge       = 0
  Multiplicity = 1
  Basis Set: AUG-CC-PVTZ
    Blend: AUG-CC-PVTZ
  Basis Set: (AUG-CC-PVTZ AUX)
    Blend: AUG-CC-PVTZ-JKFIT

    Orbital Energies [Eh]
    ---------------------

    Doubly Occupied:

       1A    -15.567890     2A    -15.550822     3A    -11.293729
       4A    -11.283139     5A    -11.279518     6A    -11.265367
       7A    -11.248978     8A    -11.243898     9A    -11.241384
      10A    -11.237404    11A    -11.236500    12A    -11.233315
      13A    -11.220117    14A    -11.218407    15A     -1.263185
      16A     -1.229175    17A     -1.132679    18A     -1.088050
      19A     -1.059949    20A     -0.998877    21A     -0.992222
      22A     -0.915867    23A     -0.870554    24A     -0.858479
      25A     -0.805089    26A     -0.795882    27A     -0.720159
      28A     -0.696951    29A     -0.669259    30A     -0.655401
      31A     -0.648380    32A     -0.618888    33A     -0.608835
      34A     -0.601584    35A     -0.588850    36A     -0.575795
      37A     -0.567853    38A     -0.549945    39A     -0.531747
      40A     -0.525803    41A     -0.502712    42A     -0.498227
      43A     -0.489609    44A     -0.422707    45A     -0.415879
      46A     -0.388397    47A     -0.368861    48A     -0.316331
      49A     -0.279064

  @DF-RHF Final Energy:  -570.47778600901484

   => Energetics <=

    Nuclear Repulsion Energy =            818.1404823682306642
    One-Electron Energy =               -2396.4930986734480030
    Two-Electron Energy =                1007.8748302962026173
    Total Energy =                       -570.4777860090148351
  Basis Set: (AUG-CC-PVTZ AUX)
    Blend: AUG-CC-PVTZ-RI
    Molecular point group: c1

    Geometry (in Angstrom), charge = 0, multiplicity = 1:

       Center              X                  Y                   Z               Mass
    ------------   -----------------  -----------------  -----------------  -----------------
         N            1.021011955590     1.797955483450     0.336241658975    14.003074004430
         N           -1.464268044410     0.871389483450    -0.602627341025    14.003074004430
         C            0.442389955590    -0.536457516550    -0.061040341025    12.000000000000
         C            1.417296955590     0.486489483450     0.108138658975    12.000000000000
         C           -1.010212044410    -0.262380516550    -0.016237341025    12.000000000000
         C            0.863733955590    -1.857734516550    -0.266499341025    12.000000000000
         C            2.774378955590     0.114733483450     0.124412658975    12.000000000000
         C            2.212615955590    -2.207490516550    -0.264024341025    12.000000000000
         C            3.165587955590    -1.210178516550    -0.062389341025    12.000000000000
         C           -1.909503444410    -1.262587116550     0.438852058975    12.000000000000
         C           -3.255824044410    -0.917950516550     0.591911658975    12.000000000000
         C            1.996586955590     2.868827483450     0.265027658975    12.000000000000
         C           -2.788147044410     1.103395483450    -0.600152341025    12.000000000000
         C           -3.722442044410     0.237850483450    -0.033900341025    12.000000000000
         H            0.111199955590    -2.622155516550    -0.451289341025     1.007825032230
         H            3.537910955590     0.873057483450     0.266057658975     1.007825032230
         H            0.134517955590     2.003015483450    -0.117620341025     1.007825032230
         H            2.513234955590    -3.237968516550    -0.433806341025     1.007825032230
         H            4.225053955590    -1.457631516550    -0.054074341025     1.007825032230
         H           -1.486836044410    -2.036371516550     1.121164658975     1.007825032230
         H           -3.946146044410    -1.607522516550     1.072046658975     1.007825032230
         H            2.571902955590     2.876985483450    -0.673103341025     1.007825032230
         H            2.701868955590     2.801999483450     1.098780658975     1.007825032230
         H            1.463498955590     3.817387483450     0.355836658975     1.007825032230
         H           -3.105527044410     2.027167483450    -1.081406341025     1.007825032230
         H           -4.782096044410     0.474182483450    -0.069642341025     1.007825032230

  Basis Set: AUG-CC-PVTZ
    Blend: AUG-CC-PVTZ
  Basis Set: (AUG-CC-PVTZ AUX)
    Blend: AUG-CC-PVTZ-JKFIT
	 Reference Energy          =    -570.4777860090148351 [Eh]
	 Singles Energy            =      -0.0000000000000000 [Eh]
	 Same-Spin Energy          =      -0.6399354097547069 [Eh]
	 Opposite-Spin Energy      =      -1.9778674515377439 [Eh]
	 Correlation Energy        =      -2.6178028612924509 [Eh]
	 Total Energy              =    -573.0955888703073242 [Eh]

	 ================> DF-SCS-MP2 Energies <==================
	-----------------------------------------------------------
	 SCS Same-Spin Scale       =       0.3333333333333333 [-]
	 SCS Opposite-Spin Scale   =       1.2000000000000000 [-]
	 SCS Same-Spin Energy      =      -0.2133118032515690 [Eh]
	 SCS Opposite-Spin Energy  =      -2.3734409418452924 [Eh]
	 SCS Correlation Energy    =      -2.5867527450968613 [Eh]
	 SCS Total Energy          =    -573.0645387541117088 [Eh]
	-----------------------------------------------------------

  Dipole Moment: [D]
     X:    -1.7426      Y:     0.2503      Z:     0.3710     Total:     1.7992

*** Psi4 exiting successfully. Buy a developer a beer!
