                               Psi4 1.4a2.dev612

  ==> Input File <==

--------------------------------------------------------------------------
#psi4
#
memory 32 gb

molecule  {
0 1
  N        0.9996340     1.7721850     0.3204360
  N       -1.4856460     0.8456190    -0.6184330
  C        0.4210120    -0.5622280    -0.0768460
  C        1.3959190     0.4607190     0.0923330
  C       -1.0315900    -0.2881510    -0.0320430
  C        0.8417378    -1.9307057     0.0139579
  C        2.7530010     0.0889630     0.1086070
  C        2.1912380    -2.2332610    -0.2798300
  C        3.1442100    -1.2359490    -0.0781950
  C       -1.9074690    -1.1902190     0.5957330
  C       -3.2772020    -0.9437210     0.5761060
  C        1.9752090     2.8430570     0.2492220
  C       -2.8095250     1.0776250    -0.6159580
  C       -3.7438200     0.2120800    -0.0497060
  H        0.0898220    -2.6479260    -0.4670950
  H        3.5165330     0.8472870     0.2502520
  H        0.1131400     1.9772450    -0.1334260
  H        2.4918570    -3.2637390    -0.4496120
  H        4.2036760    -1.4834020    -0.0698800
  H       -1.5082140    -2.0621420     1.1053590
  H       -3.9675240    -1.6332930     1.0562410
  H        2.5505250     2.8512150    -0.6889090
  H        2.6804910     2.7762290     1.0829750
  H        1.4421210     3.7916170     0.3400310
  H       -3.1269050     2.0013970    -1.0972120
  H       -4.8034740     0.4484120    -0.0854480
units angstrom
no_reorient  #important for SAPT in psi4, default
symmetry c1  #important for SAPT in psi4, default
}

set PROPERTIES_ORIGIN ["COM"]
properties('MP2/aug-cc-pvtz', properties = ['dipole'])
--------------------------------------------------------------------------

    Molecular point group: c1
  Charge       = 0
  Multiplicity = 1
  Basis Set: AUG-CC-PVTZ
    Blend: AUG-CC-PVTZ
  Basis Set: (AUG-CC-PVTZ AUX)
    Blend: AUG-CC-PVTZ-JKFIT

    Orbital Energies [Eh]
    ---------------------

    Doubly Occupied:

       1A    -15.567879     2A    -15.551207     3A    -11.289352
       4A    -11.280518     5A    -11.279584     6A    -11.261884
       7A    -11.249464     8A    -11.244506     9A    -11.241163
      10A    -11.240334    11A    -11.239780    12A    -11.236631
      13A    -11.226054    14A    -11.225779    15A     -1.262666
      16A     -1.229602    17A     -1.130567    18A     -1.087704
      19A     -1.060550    20A     -0.997484    21A     -0.991388
      22A     -0.915839    23A     -0.870367    24A     -0.859281
      25A     -0.803420    26A     -0.793318    27A     -0.719573
      28A     -0.695740    29A     -0.669598    30A     -0.657749
      31A     -0.648122    32A     -0.620404    33A     -0.607704
      34A     -0.596918    35A     -0.585166    36A     -0.574072
      37A     -0.568522    38A     -0.548109    39A     -0.532707
      40A     -0.528306    41A     -0.504522    42A     -0.494348
      43A     -0.480470    44A     -0.421073    45A     -0.417017
      46A     -0.387977    47A     -0.369754    48A     -0.317239
      49A     -0.276811

  @DF-RHF Final Energy:  -570.46006754968255

   => Energetics <=

    Nuclear Repulsion Energy =            817.7680623985872899
    One-Electron Energy =               -2395.7398199052490781
    Two-Electron Energy =                1007.5116899569792395
    Total Energy =                       -570.4600675496825488
  Basis Set: (AUG-CC-PVTZ AUX)
    Blend: AUG-CC-PVTZ-RI
    Molecular point group: c1

    Geometry (in Angstrom), charge = 0, multiplicity = 1:

       Center              X                  Y                   Z               Mass
    ------------   -----------------  -----------------  -----------------  -----------------
         N            1.019526185204     1.794635251840     0.305674616494    14.003074004430
         N           -1.465753814796     0.868069251840    -0.633194383506    14.003074004430
         C            0.440904185204    -0.539777748160    -0.091607383506    12.000000000000
         C            1.415811185204     0.483169251840     0.077571616494    12.000000000000
         C           -1.011697814796    -0.265700748160    -0.046804383506    12.000000000000
         C            0.861629985204    -1.908255448160    -0.000803483506    12.000000000000
         C            2.772893185204     0.111413251840     0.093845616494    12.000000000000
         C            2.211130185204    -2.210810748160    -0.294591383506    12.000000000000
         C            3.164102185204    -1.213498748160    -0.092956383506    12.000000000000
         C           -1.887576814796    -1.167768748160     0.580971616494    12.000000000000
         C           -3.257309814796    -0.921270748160     0.561344616494    12.000000000000
         C            1.995101185204     2.865507251840     0.234460616494    12.000000000000
         C           -2.789632814796     1.100075251840    -0.630719383506    12.000000000000
         C           -3.723927814796     0.234530251840    -0.064467383506    12.000000000000
         H            0.109714185204    -2.625475748160    -0.481856383506     1.007825032230
         H            3.536425185204     0.869737251840     0.235490616494     1.007825032230
         H            0.133032185204     1.999695251840    -0.148187383506     1.007825032230
         H            2.511749185204    -3.241288748160    -0.464373383506     1.007825032230
         H            4.223568185204    -1.460951748160    -0.084641383506     1.007825032230
         H           -1.488321814796    -2.039691748160     1.090597616494     1.007825032230
         H           -3.947631814796    -1.610842748160     1.041479616494     1.007825032230
         H            2.570417185204     2.873665251840    -0.703670383506     1.007825032230
         H            2.700383185204     2.798679251840     1.068213616494     1.007825032230
         H            1.462013185204     3.814067251840     0.325269616494     1.007825032230
         H           -3.107012814796     2.023847251840    -1.111973383506     1.007825032230
         H           -4.783581814796     0.470862251840    -0.100209383506     1.007825032230

  Basis Set: AUG-CC-PVTZ
    Blend: AUG-CC-PVTZ
  Basis Set: (AUG-CC-PVTZ AUX)
    Blend: AUG-CC-PVTZ-JKFIT
	 Reference Energy          =    -570.4600675496825488 [Eh]
	 Singles Energy            =      -0.0000000000000000 [Eh]
	 Same-Spin Energy          =      -0.6416473864182528 [Eh]
	 Opposite-Spin Energy      =      -1.9815454616270767 [Eh]
	 Correlation Energy        =      -2.6231928480453295 [Eh]
	 Total Energy              =    -573.0832603977278268 [Eh]

	 ================> DF-SCS-MP2 Energies <==================
	-----------------------------------------------------------
	 SCS Same-Spin Scale       =       0.3333333333333333 [-]
	 SCS Opposite-Spin Scale   =       1.2000000000000000 [-]
	 SCS Same-Spin Energy      =      -0.2138824621394176 [Eh]
	 SCS Opposite-Spin Energy  =      -2.3778545539524920 [Eh]
	 SCS Correlation Energy    =      -2.5917370160919098 [Eh]
	 SCS Total Energy          =    -573.0518045657744324 [Eh]
	-----------------------------------------------------------

  Dipole Moment: [D]
     X:    -1.4591      Y:     0.3436      Z:     0.1900     Total:     1.5110

*** Psi4 exiting successfully. Buy a developer a beer!
