                               Psi4 1.4a2.dev612

  ==> Input File <==

--------------------------------------------------------------------------
#psi4
#
memory 32 gb

molecule  {
0 1
  N        0.9996340     1.7721850     0.3204360
  N       -1.4856460     0.8456190    -0.6184330
  C        0.4210120    -0.5622280    -0.0768460
  C        1.3959190     0.4607190     0.0923330
  C       -1.0315900    -0.2881510    -0.0320430
  C        0.8423560    -1.8835050    -0.2823050
  C        2.7530010     0.0889630     0.1086070
  C        2.1912380    -2.2332610    -0.2798300
  C        3.1442100    -1.2359490    -0.0781950
  C       -1.9074690    -1.1902190     0.5957330
  C       -3.2772020    -0.9437210     0.5761060
  C        1.9752090     2.8430570     0.2492220
  C       -2.8095250     1.0776250    -0.6159580
  C       -3.7438200     0.2120800    -0.0497060
  H        0.0898220    -2.6479260    -0.4670950
  H        3.5165330     0.8472870     0.2502520
  H        0.1131400     1.9772450    -0.1334260
  H        2.4918570    -3.2637390    -0.4496120
  H        4.2036760    -1.4834020    -0.0698800
  H       -1.4966610    -1.9836331     1.2326495
  H       -3.9675240    -1.6332930     1.0562410
  H        2.5505250     2.8512150    -0.6889090
  H        2.6804910     2.7762290     1.0829750
  H        1.4421210     3.7916170     0.3400310
  H       -3.1269050     2.0013970    -1.0972120
  H       -4.8034740     0.4484120    -0.0854480
units angstrom
no_reorient  #important for SAPT in psi4, default
symmetry c1  #important for SAPT in psi4, default
}

set PROPERTIES_ORIGIN ["COM"]
properties('MP2/aug-cc-pvtz', properties = ['dipole'])
--------------------------------------------------------------------------

    Molecular point group: c1
  Charge       = 0
  Multiplicity = 1
  Basis Set: AUG-CC-PVTZ
    Blend: AUG-CC-PVTZ
  Basis Set: (AUG-CC-PVTZ AUX)
    Blend: AUG-CC-PVTZ-JKFIT

    Orbital Energies [Eh]
    ---------------------

    Doubly Occupied:

       1A    -15.568669     2A    -15.550592     3A    -11.290068
       4A    -11.281550     5A    -11.279030     6A    -11.263335
       7A    -11.248775     8A    -11.242451     9A    -11.242247
      10A    -11.237231    11A    -11.236005    12A    -11.232920
      13A    -11.219867    14A    -11.218136    15A     -1.263300
      16A     -1.228908    17A     -1.132299    18A     -1.088784
      19A     -1.060454    20A     -0.998730    21A     -0.992739
      22A     -0.915634    23A     -0.870711    24A     -0.859762
      25A     -0.805320    26A     -0.796036    27A     -0.720355
      28A     -0.697716    29A     -0.670657    30A     -0.656832
      31A     -0.649774    32A     -0.621100    33A     -0.608983
      34A     -0.602430    35A     -0.589105    36A     -0.576286
      37A     -0.567763    38A     -0.549661    39A     -0.533160
      40A     -0.527684    41A     -0.503296    42A     -0.497932
      43A     -0.488906    44A     -0.423119    45A     -0.416588
      46A     -0.387953    47A     -0.366387    48A     -0.317889
      49A     -0.279519

  @DF-RHF Final Energy:  -570.48819918490460

   => Energetics <=

    Nuclear Repulsion Energy =            818.5232481126942048
    One-Electron Energy =               -2397.2696017136245246
    Two-Electron Energy =                1008.2581544160258318
    Total Energy =                       -570.4881991849046017
  Basis Set: (AUG-CC-PVTZ AUX)
    Blend: AUG-CC-PVTZ-RI
    Molecular point group: c1

    Geometry (in Angstrom), charge = 0, multiplicity = 1:

       Center              X                  Y                   Z               Mass
    ------------   -----------------  -----------------  -----------------  -----------------
         N            1.019422644750     1.791128834323     0.324288779161    14.003074004430
         N           -1.465857355250     0.864562834323    -0.614580220839    14.003074004430
         C            0.440800644750    -0.543284165677    -0.072993220839    12.000000000000
         C            1.415707644750     0.479662834323     0.096185779161    12.000000000000
         C           -1.011801355250    -0.269207165677    -0.028190220839    12.000000000000
         C            0.862144644750    -1.864561165677    -0.278452220839    12.000000000000
         C            2.772789644750     0.107906834323     0.112459779161    12.000000000000
         C            2.211026644750    -2.214317165677    -0.275977220839    12.000000000000
         C            3.163998644750    -1.217005165677    -0.074342220839    12.000000000000
         C           -1.887680355250    -1.171275165677     0.599585779161    12.000000000000
         C           -3.257413355250    -0.924777165677     0.579958779161    12.000000000000
         C            1.994997644750     2.862000834323     0.253074779161    12.000000000000
         C           -2.789736355250     1.096568834323    -0.612105220839    12.000000000000
         C           -3.724031355250     0.231023834323    -0.045853220839    12.000000000000
         H            0.109610644750    -2.628982165677    -0.463242220839     1.007825032230
         H            3.536321644750     0.866230834323     0.254104779161     1.007825032230
         H            0.132928644750     1.996188834323    -0.129573220839     1.007825032230
         H            2.511645644750    -3.244795165677    -0.445759220839     1.007825032230
         H            4.223464644750    -1.464458165677    -0.066027220839     1.007825032230
         H           -1.476872355250    -1.964689265677     1.236502279161     1.007825032230
         H           -3.947735355250    -1.614349165677     1.060093779161     1.007825032230
         H            2.570313644750     2.870158834323    -0.685056220839     1.007825032230
         H            2.700279644750     2.795172834323     1.086827779161     1.007825032230
         H            1.461909644750     3.810560834323     0.343883779161     1.007825032230
         H           -3.107116355250     2.020340834323    -1.093359220839     1.007825032230
         H           -4.783685355250     0.467355834323    -0.081595220839     1.007825032230

  Basis Set: AUG-CC-PVTZ
    Blend: AUG-CC-PVTZ
  Basis Set: (AUG-CC-PVTZ AUX)
    Blend: AUG-CC-PVTZ-JKFIT
	 Reference Energy          =    -570.4881991849046017 [Eh]
	 Singles Energy            =      -0.0000000000000000 [Eh]
	 Same-Spin Energy          =      -0.6395429168911496 [Eh]
	 Opposite-Spin Energy      =      -1.9765611693879128 [Eh]
	 Correlation Energy        =      -2.6161040862790625 [Eh]
	 Total Energy              =    -573.1043032711836531 [Eh]

	 ================> DF-SCS-MP2 Energies <==================
	-----------------------------------------------------------
	 SCS Same-Spin Scale       =       0.3333333333333333 [-]
	 SCS Opposite-Spin Scale   =       1.2000000000000000 [-]
	 SCS Same-Spin Energy      =      -0.2131809722970499 [Eh]
	 SCS Opposite-Spin Energy  =      -2.3718734032654951 [Eh]
	 SCS Correlation Energy    =      -2.5850543755625450 [Eh]
	 SCS Total Energy          =    -573.0732535604671511 [Eh]
	-----------------------------------------------------------

  Dipole Moment: [D]
     X:    -1.7535      Y:     0.2124      Z:     0.4244     Total:     1.8166

*** Psi4 exiting successfully. Buy a developer a beer!
