                               Psi4 1.4a2.dev612

  ==> Input File <==

--------------------------------------------------------------------------
#psi4
#
memory 32 gb

molecule  {
0 1
  N        0.9996340     1.7721850     0.3204360
  N       -1.4856460     0.8456190    -0.6184330
  C        0.4210120    -0.5622280    -0.0768460
  C        1.3959190     0.4607190     0.0923330
  C       -1.0315900    -0.2881510    -0.0320430
  C        0.8423560    -1.8835050    -0.2823050
  C        2.7530010     0.0889630     0.1086070
  C        2.1912380    -2.2332610    -0.2798300
  C        3.1442100    -1.2359490    -0.0781950
  C       -1.9074690    -1.1902190     0.5957330
  C       -3.2772020    -0.9437210     0.5761060
  C        1.9752090     2.8430570     0.2492220
  C       -2.8095250     1.0776250    -0.6159580
  C       -3.7438200     0.2120800    -0.0497060
  H        0.0898220    -2.6479260    -0.4670950
  H        3.5165330     0.8472870     0.2502520
  H        0.1131400     1.9772450    -0.1334260
  H        2.4918570    -3.2637390    -0.4496120
  H        4.2036760    -1.4834020    -0.0698800
  H       -1.5082140    -2.0621420     1.1053590
  H       -3.9675240    -1.6332930     1.0562410
  H        2.5505250     2.8512150    -0.6889090
  H        2.6804910     2.7762290     1.0829750
  H        1.4421210     3.7916170     0.3400310
  H       -3.1395966     1.9291694    -1.2280634
  H       -4.8034740     0.4484120    -0.0854480
units angstrom
no_reorient  #important for SAPT in psi4, default
symmetry c1  #important for SAPT in psi4, default
}

set PROPERTIES_ORIGIN ["COM"]
properties('MP2/aug-cc-pvtz', properties = ['dipole'])
--------------------------------------------------------------------------

    Molecular point group: c1
  Charge       = 0
  Multiplicity = 1
  Basis Set: AUG-CC-PVTZ
    Blend: AUG-CC-PVTZ
  Basis Set: (AUG-CC-PVTZ AUX)
    Blend: AUG-CC-PVTZ-JKFIT

    Orbital Energies [Eh]
    ---------------------

    Doubly Occupied:

       1A    -15.568828     2A    -15.550580     3A    -11.290048
       4A    -11.282315     5A    -11.279001     6A    -11.263292
       7A    -11.248706     8A    -11.242541     9A    -11.241727
      10A    -11.237481    11A    -11.235958    12A    -11.233200
      13A    -11.220017    14A    -11.218432    15A     -1.263328
      16A     -1.228886    17A     -1.132437    18A     -1.089006
      19A     -1.060565    20A     -0.998850    21A     -0.992770
      22A     -0.915620    23A     -0.871051    24A     -0.859702
      25A     -0.805160    26A     -0.796192    27A     -0.720315
      28A     -0.697505    29A     -0.670815    30A     -0.658054
      31A     -0.649871    32A     -0.621196    33A     -0.608766
      34A     -0.602317    35A     -0.589612    36A     -0.576686
      37A     -0.568053    38A     -0.546617    39A     -0.534632
      40A     -0.529298    41A     -0.504399    42A     -0.496327
      43A     -0.489135    44A     -0.423247    45A     -0.416334
      46A     -0.388129    47A     -0.367512    48A     -0.317478
      49A     -0.279387

  @DF-RHF Final Energy:  -570.48821680649792

   => Energetics <=

    Nuclear Repulsion Energy =            818.5218049432451153
    One-Electron Energy =               -2397.2572948613224071
    Two-Electron Energy =                1008.2472731115793749
    Total Energy =                       -570.4882168064979169
  Basis Set: (AUG-CC-PVTZ AUX)
    Blend: AUG-CC-PVTZ-RI
    Molecular point group: c1

    Geometry (in Angstrom), charge = 0, multiplicity = 1:

       Center              X                  Y                   Z               Mass
    ------------   -----------------  -----------------  -----------------  -----------------
         N            1.019555367772     1.791954016170     0.325701933970    14.003074004430
         N           -1.465724632228     0.865388016170    -0.613167066030    14.003074004430
         C            0.440933367772    -0.542458983830    -0.071580066030    12.000000000000
         C            1.415840367772     0.480488016170     0.097598933970    12.000000000000
         C           -1.011668632228    -0.268381983830    -0.026777066030    12.000000000000
         C            0.862277367772    -1.863735983830    -0.277039066030    12.000000000000
         C            2.772922367772     0.108732016170     0.113872933970    12.000000000000
         C            2.211159367772    -2.213491983830    -0.274564066030    12.000000000000
         C            3.164131367772    -1.216179983830    -0.072929066030    12.000000000000
         C           -1.887547632228    -1.170449983830     0.600998933970    12.000000000000
         C           -3.257280632228    -0.923951983830     0.581371933970    12.000000000000
         C            1.995130367772     2.862826016170     0.254487933970    12.000000000000
         C           -2.789603632228     1.097394016170    -0.610692066030    12.000000000000
         C           -3.723898632228     0.231849016170    -0.044440066030    12.000000000000
         H            0.109743367772    -2.628156983830    -0.461829066030     1.007825032230
         H            3.536454367772     0.867056016170     0.255517933970     1.007825032230
         H            0.133061367772     1.997014016170    -0.128160066030     1.007825032230
         H            2.511778367772    -3.243969983830    -0.444346066030     1.007825032230
         H            4.223597367772    -1.463632983830    -0.064614066030     1.007825032230
         H           -1.488292632228    -2.042372983830     1.110624933970     1.007825032230
         H           -3.947602632228    -1.613523983830     1.061506933970     1.007825032230
         H            2.570446367772     2.870984016170    -0.683643066030     1.007825032230
         H            2.700412367772     2.795998016170     1.088240933970     1.007825032230
         H            1.462042367772     3.811386016170     0.345296933970     1.007825032230
         H           -3.119675232228     1.948938416170    -1.222797466030     1.007825032230
         H           -4.783552632228     0.468181016170    -0.080182066030     1.007825032230

  Basis Set: AUG-CC-PVTZ
    Blend: AUG-CC-PVTZ
  Basis Set: (AUG-CC-PVTZ AUX)
    Blend: AUG-CC-PVTZ-JKFIT
	 Reference Energy          =    -570.4882168064979169 [Eh]
	 Singles Energy            =      -0.0000000000000000 [Eh]
	 Same-Spin Energy          =      -0.6395693698481891 [Eh]
	 Opposite-Spin Energy      =      -1.9766447983849009 [Eh]
	 Correlation Energy        =      -2.6162141682330899 [Eh]
	 Total Energy              =    -573.1044309747310308 [Eh]

	 ================> DF-SCS-MP2 Energies <==================
	-----------------------------------------------------------
	 SCS Same-Spin Scale       =       0.3333333333333333 [-]
	 SCS Opposite-Spin Scale   =       1.2000000000000000 [-]
	 SCS Same-Spin Energy      =      -0.2131897899493964 [Eh]
	 SCS Opposite-Spin Energy  =      -2.3719737580618809 [Eh]
	 SCS Correlation Energy    =      -2.5851635480112773 [Eh]
	 SCS Total Energy          =    -573.0733803545091405 [Eh]
	-----------------------------------------------------------

  Dipole Moment: [D]
     X:    -1.7560      Y:     0.1116      Z:     0.3022     Total:     1.7853

*** Psi4 exiting successfully. Buy a developer a beer!
