                               Psi4 1.4a2.dev612

  ==> Input File <==

--------------------------------------------------------------------------
#psi4
#
memory 32 gb

molecule  {
0 1
  N        0.9996340     1.7721850     0.3204360
  N       -1.4856460     0.8456190    -0.6184330
  C        0.4210120    -0.5622280    -0.0768460
  C        1.3959190     0.4607190     0.0923330
  C       -1.0315900    -0.2881510    -0.0320430
  C        0.8423560    -1.8835050    -0.2823050
  C        2.7530010     0.0889630     0.1086070
  C        2.1912380    -2.2332610    -0.2798300
  C        3.1442100    -1.2359490    -0.0781950
  C       -1.9133221    -1.2147537     0.5525613
  C       -3.2772020    -0.9437210     0.5761060
  C        1.9752090     2.8430570     0.2492220
  C       -2.8095250     1.0776250    -0.6159580
  C       -3.7438200     0.2120800    -0.0497060
  H        0.0898220    -2.6479260    -0.4670950
  H        3.5165330     0.8472870     0.2502520
  H        0.1131400     1.9772450    -0.1334260
  H        2.4918570    -3.2637390    -0.4496120
  H        4.2036760    -1.4834020    -0.0698800
  H       -1.5082140    -2.0621420     1.1053590
  H       -3.9675240    -1.6332930     1.0562410
  H        2.5505250     2.8512150    -0.6889090
  H        2.6804910     2.7762290     1.0829750
  H        1.4421210     3.7916170     0.3400310
  H       -3.1269050     2.0013970    -1.0972120
  H       -4.8034740     0.4484120    -0.0854480
units angstrom
no_reorient  #important for SAPT in psi4, default
symmetry c1  #important for SAPT in psi4, default
}

set PROPERTIES_ORIGIN ["COM"]
properties('MP2/aug-cc-pvtz', properties = ['dipole'])
--------------------------------------------------------------------------

    Molecular point group: c1
  Charge       = 0
  Multiplicity = 1
  Basis Set: AUG-CC-PVTZ
    Blend: AUG-CC-PVTZ
  Basis Set: (AUG-CC-PVTZ AUX)
    Blend: AUG-CC-PVTZ-JKFIT

    Orbital Energies [Eh]
    ---------------------

    Doubly Occupied:

       1A    -15.568539     2A    -15.550521     3A    -11.290268
       4A    -11.281470     5A    -11.279011     6A    -11.263204
       7A    -11.248737     8A    -11.242290     9A    -11.241599
      10A    -11.237385    11A    -11.235997    12A    -11.233144
      13A    -11.219975    14A    -11.218362    15A     -1.263241
      16A     -1.228874    17A     -1.132432    18A     -1.089034
      19A     -1.060605    20A     -0.998809    21A     -0.992786
      22A     -0.915657    23A     -0.871037    24A     -0.860035
      25A     -0.805439    26A     -0.796059    27A     -0.720658
      28A     -0.697675    29A     -0.670767    30A     -0.657870
      31A     -0.649666    32A     -0.621405    33A     -0.608733
      34A     -0.602256    35A     -0.589749    36A     -0.576418
      37A     -0.567854    38A     -0.549022    39A     -0.533354
      40A     -0.528696    41A     -0.503483    42A     -0.497659
      43A     -0.489362    44A     -0.423062    45A     -0.416238
      46A     -0.388473    47A     -0.367826    48A     -0.317210
      49A     -0.279310

  @DF-RHF Final Energy:  -570.48903736776219

   => Energetics <=

    Nuclear Repulsion Energy =            818.5612964982902895
    One-Electron Energy =               -2397.3381535351213643
    Two-Electron Energy =                1008.2878196690689947
    Total Energy =                       -570.4890373677621938
  Basis Set: (AUG-CC-PVTZ AUX)
    Blend: AUG-CC-PVTZ-RI
    Molecular point group: c1

    Geometry (in Angstrom), charge = 0, multiplicity = 1:

       Center              X                  Y                   Z               Mass
    ------------   -----------------  -----------------  -----------------  -----------------
         N            1.019867406190     1.793157837780     0.327799625344    14.003074004430
         N           -1.465412593810     0.866591837780    -0.611069374656    14.003074004430
         C            0.441245406190    -0.541255162220    -0.069482374656    12.000000000000
         C            1.416152406190     0.481691837780     0.099696625344    12.000000000000
         C           -1.011356593810    -0.267178162220    -0.024679374656    12.000000000000
         C            0.862589406190    -1.862532162220    -0.274941374656    12.000000000000
         C            2.773234406190     0.109935837780     0.115970625344    12.000000000000
         C            2.211471406190    -2.212288162220    -0.272466374656    12.000000000000
         C            3.164443406190    -1.214976162220    -0.070831374656    12.000000000000
         C           -1.893088693810    -1.193780862220     0.559924925344    12.000000000000
         C           -3.256968593810    -0.922748162220     0.583469625344    12.000000000000
         C            1.995442406190     2.864029837780     0.256585625344    12.000000000000
         C           -2.789291593810     1.098597837780    -0.608594374656    12.000000000000
         C           -3.723586593810     0.233052837780    -0.042342374656    12.000000000000
         H            0.110055406190    -2.626953162220    -0.459731374656     1.007825032230
         H            3.536766406190     0.868259837780     0.257615625344     1.007825032230
         H            0.133373406190     1.998217837780    -0.126062374656     1.007825032230
         H            2.512090406190    -3.242766162220    -0.442248374656     1.007825032230
         H            4.223909406190    -1.462429162220    -0.062516374656     1.007825032230
         H           -1.487980593810    -2.041169162220     1.112722625344     1.007825032230
         H           -3.947290593810    -1.612320162220     1.063604625344     1.007825032230
         H            2.570758406190     2.872187837780    -0.681545374656     1.007825032230
         H            2.700724406190     2.797201837780     1.090338625344     1.007825032230
         H            1.462354406190     3.812589837780     0.347394625344     1.007825032230
         H           -3.106671593810     2.022369837780    -1.089848374656     1.007825032230
         H           -4.783240593810     0.469384837780    -0.078084374656     1.007825032230

  Basis Set: AUG-CC-PVTZ
    Blend: AUG-CC-PVTZ
  Basis Set: (AUG-CC-PVTZ AUX)
    Blend: AUG-CC-PVTZ-JKFIT
	 Reference Energy          =    -570.4890373677621938 [Eh]
	 Singles Energy            =      -0.0000000000000000 [Eh]
	 Same-Spin Energy          =      -0.6395236048464438 [Eh]
	 Opposite-Spin Energy      =      -1.9765401263181379 [Eh]
	 Correlation Energy        =      -2.6160637311645818 [Eh]
	 Total Energy              =    -573.1051010989267525 [Eh]

	 ================> DF-SCS-MP2 Energies <==================
	-----------------------------------------------------------
	 SCS Same-Spin Scale       =       0.3333333333333333 [-]
	 SCS Opposite-Spin Scale   =       1.2000000000000000 [-]
	 SCS Same-Spin Energy      =      -0.2131745349488146 [Eh]
	 SCS Opposite-Spin Energy  =      -2.3718481515817653 [Eh]
	 SCS Correlation Energy    =      -2.5850226865305799 [Eh]
	 SCS Total Energy          =    -573.0740600542927723 [Eh]
	-----------------------------------------------------------

  Dipole Moment: [D]
     X:    -1.7598      Y:     0.1738      Z:     0.3695     Total:     1.8066

*** Psi4 exiting successfully. Buy a developer a beer!
