                               Psi4 1.4a2.dev612

  ==> Input File <==

--------------------------------------------------------------------------
#psi4
#
memory 32 gb

molecule  {
0 1
  N        0.9996340     1.7721850     0.3204360
  N       -1.4856460     0.8456190    -0.6184330
  C        0.4210120    -0.5622280    -0.0768460
  C        1.3959190     0.4607190     0.0923330
  C       -1.0315900    -0.2881510    -0.0320430
  C        0.8423560    -1.8835050    -0.2823050
  C        2.7530010     0.0889630     0.1086070
  C        2.1912380    -2.2332610    -0.2798300
  C        3.1442100    -1.2359490    -0.0781950
  C       -1.9074690    -1.1902190     0.5957330
  C       -3.2772020    -0.9437210     0.5761060
  C        1.9752090     2.8430570     0.2492220
  C       -2.8095250     1.0776250    -0.6159580
  C       -3.7438200     0.2120800    -0.0497060
  H        0.0924704    -2.6391498    -0.5162475
  H        3.5165330     0.8472870     0.2502520
  H        0.1131400     1.9772450    -0.1334260
  H        2.4918570    -3.2637390    -0.4496120
  H        4.2036760    -1.4834020    -0.0698800
  H       -1.5082140    -2.0621420     1.1053590
  H       -3.9675240    -1.6332930     1.0562410
  H        2.5505250     2.8512150    -0.6889090
  H        2.6804910     2.7762290     1.0829750
  H        1.4421210     3.7916170     0.3400310
  H       -3.1269050     2.0013970    -1.0972120
  H       -4.8034740     0.4484120    -0.0854480
units angstrom
no_reorient  #important for SAPT in psi4, default
symmetry c1  #important for SAPT in psi4, default
}

set PROPERTIES_ORIGIN ["COM"]
properties('MP2/aug-cc-pvtz', properties = ['dipole'])
--------------------------------------------------------------------------

    Molecular point group: c1
  Charge       = 0
  Multiplicity = 1
  Basis Set: AUG-CC-PVTZ
    Blend: AUG-CC-PVTZ
  Basis Set: (AUG-CC-PVTZ AUX)
    Blend: AUG-CC-PVTZ-JKFIT

    Orbital Energies [Eh]
    ---------------------

    Doubly Occupied:

       1A    -15.568637     2A    -15.550490     3A    -11.289811
       4A    -11.281356     5A    -11.278936     6A    -11.263186
       7A    -11.248709     8A    -11.242466     9A    -11.241468
      10A    -11.237480    11A    -11.235917    12A    -11.233094
      13A    -11.220019    14A    -11.218402    15A     -1.263210
      16A     -1.228826    17A     -1.132366    18A     -1.088865
      19A     -1.060598    20A     -0.998779    21A     -0.992817
      22A     -0.915601    23A     -0.870955    24A     -0.860152
      25A     -0.805329    26A     -0.796058    27A     -0.720616
      28A     -0.697780    29A     -0.670807    30A     -0.658111
      31A     -0.649720    32A     -0.621916    33A     -0.608764
      34A     -0.602271    35A     -0.589554    36A     -0.576474
      37A     -0.567844    38A     -0.548314    39A     -0.534027
      40A     -0.528873    41A     -0.504146    42A     -0.496859
      43A     -0.489176    44A     -0.422949    45A     -0.416508
      46A     -0.388103    47A     -0.367098    48A     -0.317625
      49A     -0.279461

  @DF-RHF Final Energy:  -570.48950650065990

   => Energetics <=

    Nuclear Repulsion Energy =            818.5690920974200253
    One-Electron Energy =               -2397.3561597215571055
    Two-Electron Energy =                1008.2975611234771804
    Total Energy =                       -570.4895065006598998
  Basis Set: (AUG-CC-PVTZ AUX)
    Blend: AUG-CC-PVTZ-RI
    Molecular point group: c1

    Geometry (in Angstrom), charge = 0, multiplicity = 1:

       Center              X                  Y                   Z               Mass
    ------------   -----------------  -----------------  -----------------  -----------------
         N            1.019471391499     1.791510574367     0.325254686958    14.003074004430
         N           -1.465808608501     0.864944574367    -0.613614313042    14.003074004430
         C            0.440849391499    -0.542902425633    -0.072027313042    12.000000000000
         C            1.415756391499     0.480044574367     0.097151686958    12.000000000000
         C           -1.011752608501    -0.268825425633    -0.027224313042    12.000000000000
         C            0.862193391499    -1.864179425633    -0.277486313042    12.000000000000
         C            2.772838391499     0.108288574367     0.113425686958    12.000000000000
         C            2.211075391499    -2.213935425633    -0.275011313042    12.000000000000
         C            3.164047391499    -1.216623425633    -0.073376313042    12.000000000000
         C           -1.887631608501    -1.170893425633     0.600551686958    12.000000000000
         C           -3.257364608501    -0.924395425633     0.580924686958    12.000000000000
         C            1.995046391499     2.862382574367     0.254040686958    12.000000000000
         C           -2.789687608501     1.096950574367    -0.611139313042    12.000000000000
         C           -3.723982608501     0.231405574367    -0.044887313042    12.000000000000
         H            0.112307791499    -2.619824225633    -0.511428813042     1.007825032230
         H            3.536370391499     0.866612574367     0.255070686958     1.007825032230
         H            0.132977391499     1.996570574367    -0.128607313042     1.007825032230
         H            2.511694391499    -3.244413425633    -0.444793313042     1.007825032230
         H            4.223513391499    -1.464076425633    -0.065061313042     1.007825032230
         H           -1.488376608501    -2.042816425633     1.110177686958     1.007825032230
         H           -3.947686608501    -1.613967425633     1.061059686958     1.007825032230
         H            2.570362391499     2.870540574367    -0.684090313042     1.007825032230
         H            2.700328391499     2.795554574367     1.087793686958     1.007825032230
         H            1.461958391499     3.810942574367     0.344849686958     1.007825032230
         H           -3.107067608501     2.020722574367    -1.092393313042     1.007825032230
         H           -4.783636608501     0.467737574367    -0.080629313042     1.007825032230

  Basis Set: AUG-CC-PVTZ
    Blend: AUG-CC-PVTZ
  Basis Set: (AUG-CC-PVTZ AUX)
    Blend: AUG-CC-PVTZ-JKFIT
	 Reference Energy          =    -570.4895065006598998 [Eh]
	 Singles Energy            =      -0.0000000000000000 [Eh]
	 Same-Spin Energy          =      -0.6395039839195688 [Eh]
	 Opposite-Spin Energy      =      -1.9764761568471623 [Eh]
	 Correlation Energy        =      -2.6159801407667311 [Eh]
	 Total Energy              =    -573.1054866414266371 [Eh]

	 ================> DF-SCS-MP2 Energies <==================
	-----------------------------------------------------------
	 SCS Same-Spin Scale       =       0.3333333333333333 [-]
	 SCS Opposite-Spin Scale   =       1.2000000000000000 [-]
	 SCS Same-Spin Energy      =      -0.2131679946398563 [Eh]
	 SCS Opposite-Spin Energy  =      -2.3717713882165947 [Eh]
	 SCS Correlation Energy    =      -2.5849393828564509 [Eh]
	 SCS Total Energy          =    -573.0744458835163186 [Eh]
	-----------------------------------------------------------

  Dipole Moment: [D]
     X:    -1.7587      Y:     0.1678      Z:     0.3345     Total:     1.7981

*** Psi4 exiting successfully. Buy a developer a beer!
