                               Psi4 1.4a2.dev612

  ==> Input File <==

--------------------------------------------------------------------------
#psi4
#
memory 32 gb

molecule  {
0 1
  N        0.9996340     1.7721850     0.3204360
  N       -1.4856460     0.8456190    -0.6184330
  C        0.4210120    -0.5622280    -0.0768460
  C        1.3959190     0.4607190     0.0923330
  C       -1.0315900    -0.2881510    -0.0320430
  C        0.8420469    -1.9071054    -0.1341735
  C        2.7530010     0.0889630     0.1086070
  C        2.1912380    -2.2332610    -0.2798300
  C        3.1442100    -1.2359490    -0.0781950
  C       -1.9074690    -1.1902190     0.5957330
  C       -3.2772020    -0.9437210     0.5761060
  C        1.9752090     2.8430570     0.2492220
  C       -2.8095250     1.0776250    -0.6159580
  C       -3.7438200     0.2120800    -0.0497060
  H        0.0898220    -2.6479260    -0.4670950
  H        3.5165330     0.8472870     0.2502520
  H        0.1131400     1.9772450    -0.1334260
  H        2.4918570    -3.2637390    -0.4496120
  H        4.2036760    -1.4834020    -0.0698800
  H       -1.5082140    -2.0621420     1.1053590
  H       -3.9675240    -1.6332930     1.0562410
  H        2.5505250     2.8512150    -0.6889090
  H        2.6804910     2.7762290     1.0829750
  H        1.4421210     3.7916170     0.3400310
  H       -3.1269050     2.0013970    -1.0972120
  H       -4.8034740     0.4484120    -0.0854480
units angstrom
no_reorient  #important for SAPT in psi4, default
symmetry c1  #important for SAPT in psi4, default
}

set PROPERTIES_ORIGIN ["COM"]
properties('MP2/aug-cc-pvtz', properties = ['dipole'])
--------------------------------------------------------------------------

    Molecular point group: c1
  Charge       = 0
  Multiplicity = 1
  Basis Set: AUG-CC-PVTZ
    Blend: AUG-CC-PVTZ
  Basis Set: (AUG-CC-PVTZ AUX)
    Blend: AUG-CC-PVTZ-JKFIT

    Orbital Energies [Eh]
    ---------------------

    Doubly Occupied:

       1A    -15.568105     2A    -15.550864     3A    -11.289680
       4A    -11.280948     5A    -11.279353     6A    -11.262604
       7A    -11.248972     8A    -11.241677     9A    -11.240634
      10A    -11.239306    11A    -11.236439    12A    -11.235076
      13A    -11.221806    14A    -11.220355    15A     -1.262886
      16A     -1.229158    17A     -1.132364    18A     -1.088274
      19A     -1.060644    20A     -0.998797    21A     -0.992476
      22A     -0.915850    23A     -0.870814    24A     -0.859783
      25A     -0.804861    26A     -0.795215    27A     -0.720307
      28A     -0.697252    29A     -0.670356    30A     -0.657989
      31A     -0.649069    32A     -0.621674    33A     -0.608316
      34A     -0.600153    35A     -0.588395    36A     -0.575763
      37A     -0.568546    38A     -0.548339    39A     -0.533651
      40A     -0.528803    41A     -0.504735    42A     -0.495688
      43A     -0.487494    44A     -0.422275    45A     -0.416912
      46A     -0.388066    47A     -0.368795    48A     -0.317107
      49A     -0.278625

  @DF-RHF Final Energy:  -570.48249470538826

   => Energetics <=

    Nuclear Repulsion Energy =            818.4351769677890616
    One-Electron Energy =               -2397.0848397819781894
    Two-Electron Energy =                1008.1671681088007517
    Total Energy =                       -570.4824947053882624
  Basis Set: (AUG-CC-PVTZ AUX)
    Blend: AUG-CC-PVTZ-RI
    Molecular point group: c1

    Geometry (in Angstrom), charge = 0, multiplicity = 1:

       Center              X                  Y                   Z               Mass
    ------------   -----------------  -----------------  -----------------  -----------------
         N            1.019506037464     1.793096938285     0.315330109882    14.003074004430
         N           -1.465773962536     0.866530938285    -0.623538890118    14.003074004430
         C            0.440884037464    -0.541316061715    -0.081951890118    12.000000000000
         C            1.415791037464     0.481630938285     0.087227109882    12.000000000000
         C           -1.011717962536    -0.267239061715    -0.037148890118    12.000000000000
         C            0.861918937464    -1.886193461715    -0.139279390118    12.000000000000
         C            2.772873037464     0.109874938285     0.103501109882    12.000000000000
         C            2.211110037464    -2.212349061715    -0.284935890118    12.000000000000
         C            3.164082037464    -1.215037061715    -0.083300890118    12.000000000000
         C           -1.887596962536    -1.169307061715     0.590627109882    12.000000000000
         C           -3.257329962536    -0.922809061715     0.571000109882    12.000000000000
         C            1.995081037464     2.863968938285     0.244116109882    12.000000000000
         C           -2.789652962536     1.098536938285    -0.621063890118    12.000000000000
         C           -3.723947962536     0.232991938285    -0.054811890118    12.000000000000
         H            0.109694037464    -2.627014061715    -0.472200890118     1.007825032230
         H            3.536405037464     0.868198938285     0.245146109882     1.007825032230
         H            0.133012037464     1.998156938285    -0.138531890118     1.007825032230
         H            2.511729037464    -3.242827061715    -0.454717890118     1.007825032230
         H            4.223548037464    -1.462490061715    -0.074985890118     1.007825032230
         H           -1.488341962536    -2.041230061715     1.100253109882     1.007825032230
         H           -3.947651962536    -1.612381061715     1.051135109882     1.007825032230
         H            2.570397037464     2.872126938285    -0.694014890118     1.007825032230
         H            2.700363037464     2.797140938285     1.077869109882     1.007825032230
         H            1.461993037464     3.812528938285     0.334925109882     1.007825032230
         H           -3.107032962536     2.022308938285    -1.102317890118     1.007825032230
         H           -4.783601962536     0.469323938285    -0.090553890118     1.007825032230

  Basis Set: AUG-CC-PVTZ
    Blend: AUG-CC-PVTZ
  Basis Set: (AUG-CC-PVTZ AUX)
    Blend: AUG-CC-PVTZ-JKFIT
	 Reference Energy          =    -570.4824947053882624 [Eh]
	 Singles Energy            =      -0.0000000000000000 [Eh]
	 Same-Spin Energy          =      -0.6401053104885163 [Eh]
	 Opposite-Spin Energy      =      -1.9777448742626398 [Eh]
	 Correlation Energy        =      -2.6178501847511559 [Eh]
	 Total Energy              =    -573.1003448901394677 [Eh]

	 ================> DF-SCS-MP2 Energies <==================
	-----------------------------------------------------------
	 SCS Same-Spin Scale       =       0.3333333333333333 [-]
	 SCS Opposite-Spin Scale   =       1.2000000000000000 [-]
	 SCS Same-Spin Energy      =      -0.2133684368295054 [Eh]
	 SCS Opposite-Spin Energy  =      -2.3732938491151678 [Eh]
	 SCS Correlation Energy    =      -2.5866622859446733 [Eh]
	 SCS Total Energy          =    -573.0691569913329886 [Eh]
	-----------------------------------------------------------

  Dipole Moment: [D]
     X:    -1.6371      Y:     0.2136      Z:     0.2741     Total:     1.6736

*** Psi4 exiting successfully. Buy a developer a beer!
