                               Psi4 1.4a2.dev612

  ==> Input File <==

--------------------------------------------------------------------------
#psi4
#
memory 32 gb

molecule  {
0 1
  N        0.9996340     1.7721850     0.3204360
  N       -1.4856460     0.8456190    -0.6184330
  C        0.4210120    -0.5622280    -0.0768460
  C        1.3959190     0.4607190     0.0923330
  C       -1.0315900    -0.2881510    -0.0320430
  C        0.8423560    -1.8835050    -0.2823050
  C        2.7530010     0.0889630     0.1086070
  C        2.1912380    -2.2332610    -0.2798300
  C        3.1442100    -1.2359490    -0.0781950
  C       -1.9074690    -1.1902190     0.5957330
  C       -3.2772020    -0.9437210     0.5761060
  C        1.9752090     2.8430570     0.2492220
  C       -2.8095250     1.0776250    -0.6159580
  C       -3.7438200     0.2120800    -0.0497060
  H        0.1004155    -2.6128210    -0.6637048
  H        3.5165330     0.8472870     0.2502520
  H        0.1131400     1.9772450    -0.1334260
  H        2.4918570    -3.2637390    -0.4496120
  H        4.2036760    -1.4834020    -0.0698800
  H       -1.5082140    -2.0621420     1.1053590
  H       -3.9675240    -1.6332930     1.0562410
  H        2.5505250     2.8512150    -0.6889090
  H        2.6804910     2.7762290     1.0829750
  H        1.4421210     3.7916170     0.3400310
  H       -3.1269050     2.0013970    -1.0972120
  H       -4.8034740     0.4484120    -0.0854480
units angstrom
no_reorient  #important for SAPT in psi4, default
symmetry c1  #important for SAPT in psi4, default
}

set PROPERTIES_ORIGIN ["COM"]
properties('MP2/aug-cc-pvtz', properties = ['dipole'])
--------------------------------------------------------------------------

    Molecular point group: c1
  Charge       = 0
  Multiplicity = 1
  Basis Set: AUG-CC-PVTZ
    Blend: AUG-CC-PVTZ
  Basis Set: (AUG-CC-PVTZ AUX)
    Blend: AUG-CC-PVTZ-JKFIT

    Orbital Energies [Eh]
    ---------------------

    Doubly Occupied:

       1A    -15.568638     2A    -15.550522     3A    -11.289460
       4A    -11.281234     5A    -11.278990     6A    -11.262961
       7A    -11.248778     8A    -11.242499     9A    -11.241240
      10A    -11.238818    11A    -11.235994    12A    -11.233296
      13A    -11.220443    14A    -11.218768    15A     -1.263138
      16A     -1.228878    17A     -1.132307    18A     -1.088721
      19A     -1.060487    20A     -0.998397    21A     -0.992822
      22A     -0.915659    23A     -0.870627    24A     -0.859932
      25A     -0.804890    26A     -0.795240    27A     -0.720221
      28A     -0.697626    29A     -0.670689    30A     -0.657521
      31A     -0.649112    32A     -0.621915    33A     -0.609080
      34A     -0.601022    35A     -0.588524    36A     -0.576239
      37A     -0.567885    38A     -0.547876    39A     -0.534017
      40A     -0.528868    41A     -0.505806    42A     -0.495770
      43A     -0.487319    44A     -0.422233    45A     -0.416814
      46A     -0.388066    47A     -0.366438    48A     -0.317794
      49A     -0.279470

  @DF-RHF Final Energy:  -570.48670511896341

   => Energetics <=

    Nuclear Repulsion Energy =            818.4667770737686396
    One-Electron Energy =               -2397.1608729348240558
    Two-Electron Energy =                1008.2073907420918886
    Total Energy =                       -570.4867051189634140
  Basis Set: (AUG-CC-PVTZ AUX)
    Blend: AUG-CC-PVTZ-RI
    Molecular point group: c1

    Geometry (in Angstrom), charge = 0, multiplicity = 1:

       Center              X                  Y                   Z               Mass
    ------------   -----------------  -----------------  -----------------  -----------------
         N            1.019427897373     1.791366441739     0.326061917371    14.003074004430
         N           -1.465852102627     0.864800441739    -0.612807082629    14.003074004430
         C            0.440805897373    -0.543046558261    -0.071220082629    12.000000000000
         C            1.415712897373     0.479900441739     0.097958917371    12.000000000000
         C           -1.011796102627    -0.268969558261    -0.026417082629    12.000000000000
         C            0.862149897373    -1.864323558261    -0.276679082629    12.000000000000
         C            2.772794897373     0.108144441739     0.114232917371    12.000000000000
         C            2.211031897373    -2.214079558261    -0.274204082629    12.000000000000
         C            3.164003897373    -1.216767558261    -0.072569082629    12.000000000000
         C           -1.887675102627    -1.171037558261     0.601358917371    12.000000000000
         C           -3.257408102627    -0.924539558261     0.581731917371    12.000000000000
         C            1.995002897373     2.862238441739     0.254847917371    12.000000000000
         C           -2.789731102627     1.096806441739    -0.610332082629    12.000000000000
         C           -3.724026102627     0.231261441739    -0.044080082629    12.000000000000
         H            0.120209397373    -2.593639558261    -0.658078882629     1.007825032230
         H            3.536326897373     0.866468441739     0.255877917371     1.007825032230
         H            0.132933897373     1.996426441739    -0.127800082629     1.007825032230
         H            2.511650897373    -3.244557558261    -0.443986082629     1.007825032230
         H            4.223469897373    -1.464220558261    -0.064254082629     1.007825032230
         H           -1.488420102627    -2.042960558261     1.110984917371     1.007825032230
         H           -3.947730102627    -1.614111558261     1.061866917371     1.007825032230
         H            2.570318897373     2.870396441739    -0.683283082629     1.007825032230
         H            2.700284897373     2.795410441739     1.088600917371     1.007825032230
         H            1.461914897373     3.810798441739     0.345656917371     1.007825032230
         H           -3.107111102627     2.020578441739    -1.091586082629     1.007825032230
         H           -4.783680102627     0.467593441739    -0.079822082629     1.007825032230

  Basis Set: AUG-CC-PVTZ
    Blend: AUG-CC-PVTZ
  Basis Set: (AUG-CC-PVTZ AUX)
    Blend: AUG-CC-PVTZ-JKFIT
	 Reference Energy          =    -570.4867051189634140 [Eh]
	 Singles Energy            =      -0.0000000000000000 [Eh]
	 Same-Spin Energy          =      -0.6397220015272094 [Eh]
	 Opposite-Spin Energy      =      -1.9768817482494438 [Eh]
	 Correlation Energy        =      -2.6166037497766532 [Eh]
	 Total Energy              =    -573.1033088687401005 [Eh]

	 ================> DF-SCS-MP2 Energies <==================
	-----------------------------------------------------------
	 SCS Same-Spin Scale       =       0.3333333333333333 [-]
	 SCS Opposite-Spin Scale   =       1.2000000000000000 [-]
	 SCS Same-Spin Energy      =      -0.2132406671757364 [Eh]
	 SCS Opposite-Spin Energy  =      -2.3722580978993326 [Eh]
	 SCS Correlation Energy    =      -2.5854987650750689 [Eh]
	 SCS Total Energy          =    -573.0722038840384585 [Eh]
	-----------------------------------------------------------

  Dipole Moment: [D]
     X:    -1.7309      Y:     0.2015      Z:     0.2573     Total:     1.7615

*** Psi4 exiting successfully. Buy a developer a beer!
