                               Psi4 1.4a2.dev612

  ==> Input File <==

--------------------------------------------------------------------------
#psi4
#
memory 32 gb

molecule  {
0 1
  N        0.9996340     1.7721850     0.3204360
  N       -1.4856460     0.8456190    -0.6184330
  C        0.4210120    -0.5622280    -0.0768460
  C        1.3959190     0.4607190     0.0923330
  C       -1.0315900    -0.2881510    -0.0320430
  C        0.8423560    -1.8835050    -0.2823050
  C        2.7530010     0.0889630     0.1086070
  C        2.1912380    -2.2332610    -0.2798300
  C        3.1442100    -1.2359490    -0.0781950
  C       -1.9074690    -1.1902190     0.5957330
  C       -3.2772020    -0.9437210     0.5761060
  C        1.9752090     2.8430570     0.2492220
  C       -2.8095250     1.0776250    -0.6159580
  C       -3.7438200     0.2120800    -0.0497060
  H        0.0898220    -2.6479260    -0.4670950
  H        3.5165330     0.8472870     0.2502520
  H        0.1131400     1.9772450    -0.1334260
  H        2.4918570    -3.2637390    -0.4496120
  H        4.2036760    -1.4834020    -0.0698800
  H       -1.4928100    -1.9574635     1.2750797
  H       -3.9675240    -1.6332930     1.0562410
  H        2.5505250     2.8512150    -0.6889090
  H        2.6804910     2.7762290     1.0829750
  H        1.4421210     3.7916170     0.3400310
  H       -3.1269050     2.0013970    -1.0972120
  H       -4.8034740     0.4484120    -0.0854480
units angstrom
no_reorient  #important for SAPT in psi4, default
symmetry c1  #important for SAPT in psi4, default
}

set PROPERTIES_ORIGIN ["COM"]
properties('MP2/aug-cc-pvtz', properties = ['dipole'])
--------------------------------------------------------------------------

    Molecular point group: c1
  Charge       = 0
  Multiplicity = 1
  Basis Set: AUG-CC-PVTZ
    Blend: AUG-CC-PVTZ
  Basis Set: (AUG-CC-PVTZ AUX)
    Blend: AUG-CC-PVTZ-JKFIT

    Orbital Energies [Eh]
    ---------------------

    Doubly Occupied:

       1A    -15.568711     2A    -15.550635     3A    -11.290196
       4A    -11.281697     5A    -11.279066     6A    -11.263430
       7A    -11.248805     8A    -11.242849     9A    -11.242471
      10A    -11.237166    11A    -11.236037    12A    -11.232853
      13A    -11.219830    14A    -11.218052    15A     -1.263366
      16A     -1.228949    17A     -1.132267    18A     -1.088733
      19A     -1.060364    20A     -0.998696    21A     -0.992684
      22A     -0.915651    23A     -0.870568    24A     -0.859484
      25A     -0.805285    26A     -0.796006    27A     -0.720207
      28A     -0.697567    29A     -0.670613    30A     -0.656098
      31A     -0.649642    32A     -0.620664    33A     -0.609051
      34A     -0.602387    35A     -0.588777    36A     -0.576235
      37A     -0.567733    38A     -0.550104    39A     -0.532840
      40A     -0.527039    41A     -0.503150    42A     -0.498065
      43A     -0.488762    44A     -0.423125    45A     -0.416678
      46A     -0.387885    47A     -0.366009    48A     -0.317996
      49A     -0.279540

  @DF-RHF Final Energy:  -570.48697215786888

   => Energetics <=

    Nuclear Repulsion Energy =            818.4846199204080222
    One-Electron Energy =               -2397.1951456901479105
    Two-Electron Energy =                1008.2235536118710115
    Total Energy =                       -570.4869721578688768
  Basis Set: (AUG-CC-PVTZ AUX)
    Blend: AUG-CC-PVTZ-RI
    Molecular point group: c1

    Geometry (in Angstrom), charge = 0, multiplicity = 1:

       Center              X                  Y                   Z               Mass
    ------------   -----------------  -----------------  -----------------  -----------------
         N            1.019401563092     1.790985573209     0.324056502102    14.003074004430
         N           -1.465878436908     0.864419573209    -0.614812497898    14.003074004430
         C            0.440779563092    -0.543427426791    -0.073225497898    12.000000000000
         C            1.415686563092     0.479519573209     0.095953502102    12.000000000000
         C           -1.011822436908    -0.269350426791    -0.028422497898    12.000000000000
         C            0.862123563092    -1.864704426791    -0.278684497898    12.000000000000
         C            2.772768563092     0.107763573209     0.112227502102    12.000000000000
         C            2.211005563092    -2.214460426791    -0.276209497898    12.000000000000
         C            3.163977563092    -1.217148426791    -0.074574497898    12.000000000000
         C           -1.887701436908    -1.171418426791     0.599353502102    12.000000000000
         C           -3.257434436908    -0.924920426791     0.579726502102    12.000000000000
         C            1.994976563092     2.861857573209     0.252842502102    12.000000000000
         C           -2.789757436908     1.096425573209    -0.612337497898    12.000000000000
         C           -3.724052436908     0.230880573209    -0.046085497898    12.000000000000
         H            0.109589563092    -2.629125426791    -0.463474497898     1.007825032230
         H            3.536300563092     0.866087573209     0.253872502102     1.007825032230
         H            0.132907563092     1.996045573209    -0.129805497898     1.007825032230
         H            2.511624563092    -3.244938426791    -0.445991497898     1.007825032230
         H            4.223443563092    -1.464601426791    -0.066259497898     1.007825032230
         H           -1.473042436908    -1.938662926791     1.278700202102     1.007825032230
         H           -3.947756436908    -1.614492426791     1.059861502102     1.007825032230
         H            2.570292563092     2.870015573209    -0.685288497898     1.007825032230
         H            2.700258563092     2.795029573209     1.086595502102     1.007825032230
         H            1.461888563092     3.810417573209     0.343651502102     1.007825032230
         H           -3.107137436908     2.020197573209    -1.093591497898     1.007825032230
         H           -4.783706436908     0.467212573209    -0.081827497898     1.007825032230

  Basis Set: AUG-CC-PVTZ
    Blend: AUG-CC-PVTZ
  Basis Set: (AUG-CC-PVTZ AUX)
    Blend: AUG-CC-PVTZ-JKFIT
	 Reference Energy          =    -570.4869721578688768 [Eh]
	 Singles Energy            =      -0.0000000000000000 [Eh]
	 Same-Spin Energy          =      -0.6395934744039811 [Eh]
	 Opposite-Spin Energy      =      -1.9766764348237200 [Eh]
	 Correlation Energy        =      -2.6162699092277011 [Eh]
	 Total Energy              =    -573.1032420670966303 [Eh]

	 ================> DF-SCS-MP2 Energies <==================
	-----------------------------------------------------------
	 SCS Same-Spin Scale       =       0.3333333333333333 [-]
	 SCS Opposite-Spin Scale   =       1.2000000000000000 [-]
	 SCS Same-Spin Energy      =      -0.2131978248013270 [Eh]
	 SCS Opposite-Spin Energy  =      -2.3720117217884638 [Eh]
	 SCS Correlation Energy    =      -2.5852095465897906 [Eh]
	 SCS Total Energy          =    -573.0721817044586714 [Eh]
	-----------------------------------------------------------

  Dipole Moment: [D]
     X:    -1.7519      Y:     0.2338      Z:     0.4421     Total:     1.8219

*** Psi4 exiting successfully. Buy a developer a beer!
