                               Psi4 1.4a2.dev612

  ==> Input File <==

--------------------------------------------------------------------------
#psi4
#
memory 32 gb

molecule  {
0 1
  N        0.9996340     1.7721850     0.3204360
  N       -1.4856460     0.8456190    -0.6184330
  C        0.4210120    -0.5622280    -0.0768460
  C        1.3959190     0.4607190     0.0923330
  C       -1.0315900    -0.2881510    -0.0320430
  C        0.8423560    -1.8835050    -0.2823050
  C        2.7530010     0.0889630     0.1086070
  C        2.1912380    -2.2332610    -0.2798300
  C        3.1442100    -1.2359490    -0.0781950
  C       -1.9250283    -1.2638230     0.4662180
  C       -3.2772020    -0.9437210     0.5761060
  C        1.9752090     2.8430570     0.2492220
  C       -2.8095250     1.0776250    -0.6159580
  C       -3.7438200     0.2120800    -0.0497060
  H        0.0898220    -2.6479260    -0.4670950
  H        3.5165330     0.8472870     0.2502520
  H        0.1131400     1.9772450    -0.1334260
  H        2.4918570    -3.2637390    -0.4496120
  H        4.2036760    -1.4834020    -0.0698800
  H       -1.5082140    -2.0621420     1.1053590
  H       -3.9675240    -1.6332930     1.0562410
  H        2.5505250     2.8512150    -0.6889090
  H        2.6804910     2.7762290     1.0829750
  H        1.4421210     3.7916170     0.3400310
  H       -3.1269050     2.0013970    -1.0972120
  H       -4.8034740     0.4484120    -0.0854480
units angstrom
no_reorient  #important for SAPT in psi4, default
symmetry c1  #important for SAPT in psi4, default
}

set PROPERTIES_ORIGIN ["COM"]
properties('MP2/aug-cc-pvtz', properties = ['dipole'])
--------------------------------------------------------------------------

    Molecular point group: c1
  Charge       = 0
  Multiplicity = 1
  Basis Set: AUG-CC-PVTZ
    Blend: AUG-CC-PVTZ
  Basis Set: (AUG-CC-PVTZ AUX)
    Blend: AUG-CC-PVTZ-JKFIT

    Orbital Energies [Eh]
    ---------------------

    Doubly Occupied:

       1A    -15.568153     2A    -15.550683     3A    -11.292187
       4A    -11.282342     5A    -11.279296     6A    -11.264271
       7A    -11.248871     8A    -11.242794     9A    -11.241746
      10A    -11.237377    11A    -11.236286    12A    -11.233248
      13A    -11.220050    14A    -11.218384    15A     -1.263211
      16A     -1.229044    17A     -1.132577    18A     -1.088596
      19A     -1.060259    20A     -0.998835    21A     -0.992489
      22A     -0.915786    23A     -0.870792    24A     -0.859155
      25A     -0.805283    26A     -0.795934    27A     -0.720355
      28A     -0.697227    29A     -0.669980    30A     -0.656373
      31A     -0.648937    32A     -0.619849    33A     -0.608844
      34A     -0.601878    35A     -0.589285    36A     -0.576084
      37A     -0.567864    38A     -0.549754    39A     -0.532111
      40A     -0.527292    41A     -0.503040    42A     -0.498071
      43A     -0.489512    44A     -0.422837    45A     -0.415992
      46A     -0.388617    47A     -0.368599    48A     -0.316608
      49A     -0.279098

  @DF-RHF Final Energy:  -570.48308711407583

   => Energetics <=

    Nuclear Repulsion Energy =            818.3383662129840559
    One-Electron Energy =               -2396.8911965380461879
    Two-Electron Energy =                1008.0697432109863030
    Total Energy =                       -570.4830871140758290
  Basis Set: (AUG-CC-PVTZ AUX)
    Blend: AUG-CC-PVTZ-RI
    Molecular point group: c1

    Geometry (in Angstrom), charge = 0, multiplicity = 1:

       Center              X                  Y                   Z               Mass
    ------------   -----------------  -----------------  -----------------  -----------------
         N            1.020630439123     1.796356270399     0.333427649937    14.003074004430
         N           -1.464649560877     0.869790270399    -0.605441350063    14.003074004430
         C            0.442008439123    -0.538056729601    -0.063854350063    12.000000000000
         C            1.416915439123     0.484890270399     0.105324649937    12.000000000000
         C           -1.010593560877    -0.263979729601    -0.019051350063    12.000000000000
         C            0.863352439123    -1.859333729601    -0.269313350063    12.000000000000
         C            2.773997439123     0.113134270399     0.121598649937    12.000000000000
         C            2.212234439123    -2.209089729601    -0.266838350063    12.000000000000
         C            3.165206439123    -1.211777729601    -0.065203350063    12.000000000000
         C           -1.904031860877    -1.239651729601     0.479209649937    12.000000000000
         C           -3.256205560877    -0.919549729601     0.589097649937    12.000000000000
         C            1.996205439123     2.867228270399     0.262213649937    12.000000000000
         C           -2.788528560877     1.101796270399    -0.602966350063    12.000000000000
         C           -3.722823560877     0.236251270399    -0.036714350063    12.000000000000
         H            0.110818439123    -2.623754729601    -0.454103350063     1.007825032230
         H            3.537529439123     0.871458270399     0.263243649937     1.007825032230
         H            0.134136439123     2.001416270399    -0.120434350063     1.007825032230
         H            2.512853439123    -3.239567729601    -0.436620350063     1.007825032230
         H            4.224672439123    -1.459230729601    -0.056888350063     1.007825032230
         H           -1.487217560877    -2.037970729601     1.118350649937     1.007825032230
         H           -3.946527560877    -1.609121729601     1.069232649937     1.007825032230
         H            2.571521439123     2.875386270399    -0.675917350063     1.007825032230
         H            2.701487439123     2.800400270399     1.095966649937     1.007825032230
         H            1.463117439123     3.815788270399     0.353022649937     1.007825032230
         H           -3.105908560877     2.025568270399    -1.084220350063     1.007825032230
         H           -4.782477560877     0.472583270399    -0.072456350063     1.007825032230

  Basis Set: AUG-CC-PVTZ
    Blend: AUG-CC-PVTZ
  Basis Set: (AUG-CC-PVTZ AUX)
    Blend: AUG-CC-PVTZ-JKFIT
	 Reference Energy          =    -570.4830871140758290 [Eh]
	 Singles Energy            =      -0.0000000000000000 [Eh]
	 Same-Spin Energy          =      -0.6397529783277132 [Eh]
	 Opposite-Spin Energy      =      -1.9772322800233160 [Eh]
	 Correlation Energy        =      -2.6169852583510291 [Eh]
	 Total Energy              =    -573.1000723724268937 [Eh]

	 ================> DF-SCS-MP2 Energies <==================
	-----------------------------------------------------------
	 SCS Same-Spin Scale       =       0.3333333333333333 [-]
	 SCS Opposite-Spin Scale   =       1.2000000000000000 [-]
	 SCS Same-Spin Energy      =      -0.2132509927759044 [Eh]
	 SCS Opposite-Spin Energy  =      -2.3726787360279791 [Eh]
	 SCS Correlation Energy    =      -2.5859297288038836 [Eh]
	 SCS Total Energy          =    -573.0690168428797051 [Eh]
	-----------------------------------------------------------

  Dipole Moment: [D]
     X:    -1.7500      Y:     0.2179      Z:     0.3737     Total:     1.8026

*** Psi4 exiting successfully. Buy a developer a beer!
