                               Psi4 1.4a2.dev612

  ==> Input File <==

--------------------------------------------------------------------------
#psi4
#
memory 32 gb

molecule  {
0 1
  N        0.9996340     1.7721850     0.3204360
  N       -1.4856460     0.8456190    -0.6184330
  C        0.4210120    -0.5622280    -0.0768460
  C        1.3959190     0.4607190     0.0923330
  C       -1.0315900    -0.2881510    -0.0320430
  C        0.8423560    -1.8835050    -0.2823050
  C        2.7530010     0.0889630     0.1086070
  C        2.1912380    -2.2332610    -0.2798300
  C        3.1442100    -1.2359490    -0.0781950
  C       -1.9074690    -1.1902190     0.5957330
  C       -3.2772020    -0.9437210     0.5761060
  C        1.9752090     2.8430570     0.2492220
  C       -2.8095250     1.0776250    -0.6159580
  C       -3.7438200     0.2120800    -0.0497060
  H        0.1030639    -2.6040448    -0.7128573
  H        3.5165330     0.8472870     0.2502520
  H        0.1131400     1.9772450    -0.1334260
  H        2.4918570    -3.2637390    -0.4496120
  H        4.2036760    -1.4834020    -0.0698800
  H       -1.5082140    -2.0621420     1.1053590
  H       -3.9675240    -1.6332930     1.0562410
  H        2.5505250     2.8512150    -0.6889090
  H        2.6804910     2.7762290     1.0829750
  H        1.4421210     3.7916170     0.3400310
  H       -3.1269050     2.0013970    -1.0972120
  H       -4.8034740     0.4484120    -0.0854480
units angstrom
no_reorient  #important for SAPT in psi4, default
symmetry c1  #important for SAPT in psi4, default
}

set PROPERTIES_ORIGIN ["COM"]
properties('MP2/aug-cc-pvtz', properties = ['dipole'])
--------------------------------------------------------------------------

    Molecular point group: c1
  Charge       = 0
  Multiplicity = 1
  Basis Set: AUG-CC-PVTZ
    Blend: AUG-CC-PVTZ
  Basis Set: (AUG-CC-PVTZ AUX)
    Blend: AUG-CC-PVTZ-JKFIT

    Orbital Energies [Eh]
    ---------------------

    Doubly Occupied:

       1A    -15.568644     2A    -15.550550     3A    -11.289340
       4A    -11.281183     5A    -11.279041     6A    -11.262871
       7A    -11.248823     8A    -11.242508     9A    -11.241160
      10A    -11.239642    11A    -11.236052    12A    -11.233448
      13A    -11.220674    14A    -11.218977    15A     -1.263116
      16A     -1.228918    17A     -1.132298    18A     -1.088665
      19A     -1.060461    20A     -0.998205    21A     -0.992837
      22A     -0.915704    23A     -0.870494    24A     -0.859855
      25A     -0.804702    26A     -0.794777    27A     -0.720066
      28A     -0.697546    29A     -0.670579    30A     -0.657316
      31A     -0.648865    32A     -0.621942    33A     -0.609143
      34A     -0.600364    35A     -0.588041    36A     -0.576075
      37A     -0.567924    38A     -0.547730    39A     -0.533951
      40A     -0.528874    41A     -0.506370    42A     -0.495622
      43A     -0.486226    44A     -0.421971    45A     -0.416887
      46A     -0.388043    47A     -0.366197    48A     -0.317821
      49A     -0.279499

  @DF-RHF Final Energy:  -570.48497095452035

   => Energetics <=

    Nuclear Repulsion Energy =            818.4150214306390581
    One-Electron Energy =               -2397.0599855794084760
    Two-Electron Energy =                1008.1599931942489548
    Total Energy =                       -570.4849709545203496
  Basis Set: (AUG-CC-PVTZ AUX)
    Blend: AUG-CC-PVTZ-RI
    Molecular point group: c1

    Geometry (in Angstrom), charge = 0, multiplicity = 1:

       Center              X                  Y                   Z               Mass
    ------------   -----------------  -----------------  -----------------  -----------------
         N            1.019413399148     1.791318397895     0.326330994540    14.003074004430
         N           -1.465866600852     0.864752397895    -0.612538005460    14.003074004430
         C            0.440791399148    -0.543094602105    -0.070951005460    12.000000000000
         C            1.415698399148     0.479852397895     0.098227994540    12.000000000000
         C           -1.011810600852    -0.269017602105    -0.026148005460    12.000000000000
         C            0.862135399148    -1.864371602105    -0.276410005460    12.000000000000
         C            2.772780399148     0.108096397895     0.114501994540    12.000000000000
         C            2.211017399148    -2.214127602105    -0.273935005460    12.000000000000
         C            3.163989399148    -1.216815602105    -0.072300005460    12.000000000000
         C           -1.887689600852    -1.171085602105     0.601627994540    12.000000000000
         C           -3.257422600852    -0.924587602105     0.582000994540    12.000000000000
         C            1.994988399148     2.862190397895     0.255116994540    12.000000000000
         C           -2.789745600852     1.096758397895    -0.610063005460    12.000000000000
         C           -3.724040600852     0.231213397895    -0.043811005460    12.000000000000
         H            0.122843299148    -2.584911402105    -0.706962305460     1.007825032230
         H            3.536312399148     0.866420397895     0.256146994540     1.007825032230
         H            0.132919399148     1.996378397895    -0.127531005460     1.007825032230
         H            2.511636399148    -3.244605602105    -0.443717005460     1.007825032230
         H            4.223455399148    -1.464268602105    -0.063985005460     1.007825032230
         H           -1.488434600852    -2.043008602105     1.111253994540     1.007825032230
         H           -3.947744600852    -1.614159602105     1.062135994540     1.007825032230
         H            2.570304399148     2.870348397895    -0.683014005460     1.007825032230
         H            2.700270399148     2.795362397895     1.088869994540     1.007825032230
         H            1.461900399148     3.810750397895     0.345925994540     1.007825032230
         H           -3.107125600852     2.020530397895    -1.091317005460     1.007825032230
         H           -4.783694600852     0.467545397895    -0.079553005460     1.007825032230

  Basis Set: AUG-CC-PVTZ
    Blend: AUG-CC-PVTZ
  Basis Set: (AUG-CC-PVTZ AUX)
    Blend: AUG-CC-PVTZ-JKFIT
	 Reference Energy          =    -570.4849709545203496 [Eh]
	 Singles Energy            =      -0.0000000000000000 [Eh]
	 Same-Spin Energy          =      -0.6398410718431574 [Eh]
	 Opposite-Spin Energy      =      -1.9771284472757764 [Eh]
	 Correlation Energy        =      -2.6169695191189337 [Eh]
	 Total Energy              =    -573.1019404736392744 [Eh]

	 ================> DF-SCS-MP2 Energies <==================
	-----------------------------------------------------------
	 SCS Same-Spin Scale       =       0.3333333333333333 [-]
	 SCS Opposite-Spin Scale   =       1.2000000000000000 [-]
	 SCS Same-Spin Energy      =      -0.2132803572810525 [Eh]
	 SCS Opposite-Spin Energy  =      -2.3725541367309315 [Eh]
	 SCS Correlation Energy    =      -2.5858344940119840 [Eh]
	 SCS Total Energy          =    -573.0708054485323828 [Eh]
	-----------------------------------------------------------

  Dipole Moment: [D]
     X:    -1.7161      Y:     0.2182      Z:     0.2337     Total:     1.7456

*** Psi4 exiting successfully. Buy a developer a beer!
