                               Psi4 1.4a2.dev612

  ==> Input File <==

--------------------------------------------------------------------------
#psi4
#
memory 32 gb

molecule  {
0 1
  N        0.9996340     1.7721850     0.3204360
  N       -1.4856460     0.8456190    -0.6184330
  C        0.4210120    -0.5622280    -0.0768460
  C        1.3959190     0.4607190     0.0923330
  C       -1.0315900    -0.2881510    -0.0320430
  C        0.8423560    -1.8835050    -0.2823050
  C        2.7530010     0.0889630     0.1086070
  C        2.1912380    -2.2332610    -0.2798300
  C        3.1442100    -1.2359490    -0.0781950
  C       -1.9074690    -1.1902190     0.5957330
  C       -3.2772020    -0.9437210     0.5761060
  C        1.9752090     2.8430570     0.2492220
  C       -2.8095250     1.0776250    -0.6159580
  C       -3.7438200     0.2120800    -0.0497060
  H        0.0898220    -2.6479260    -0.4670950
  H        3.5165330     0.8472870     0.2502520
  H        0.1131400     1.9772450    -0.1334260
  H        2.4918570    -3.2637390    -0.4496120
  H        4.2036760    -1.4834020    -0.0698800
  H       -1.5043630    -2.0359724     1.1477892
  H       -3.9675240    -1.6332930     1.0562410
  H        2.5505250     2.8512150    -0.6889090
  H        2.6804910     2.7762290     1.0829750
  H        1.4421210     3.7916170     0.3400310
  H       -3.1269050     2.0013970    -1.0972120
  H       -4.8034740     0.4484120    -0.0854480
units angstrom
no_reorient  #important for SAPT in psi4, default
symmetry c1  #important for SAPT in psi4, default
}

set PROPERTIES_ORIGIN ["COM"]
properties('MP2/aug-cc-pvtz', properties = ['dipole'])
--------------------------------------------------------------------------

    Molecular point group: c1
  Charge       = 0
  Multiplicity = 1
  Basis Set: AUG-CC-PVTZ
    Blend: AUG-CC-PVTZ
  Basis Set: (AUG-CC-PVTZ AUX)
    Blend: AUG-CC-PVTZ-JKFIT

    Orbital Energies [Eh]
    ---------------------

    Doubly Occupied:

       1A    -15.568635     2A    -15.550522     3A    -11.289932
       4A    -11.281394     5A    -11.278971     6A    -11.263243
       7A    -11.248726     8A    -11.242439     9A    -11.241592
      10A    -11.237362    11A    -11.235948    12A    -11.233050
      13A    -11.219936    14A    -11.218295    15A     -1.263235
      16A     -1.228850    17A     -1.132361    18A     -1.088872
      19A     -1.060595    20A     -0.998792    21A     -0.992812
      22A     -0.915611    23A     -0.870949    24A     -0.860132
      25A     -0.805371    26A     -0.796102    27A     -0.720614
      28A     -0.697836    29A     -0.670737    30A     -0.657951
      31A     -0.649875    32A     -0.621738    33A     -0.608765
      34A     -0.602422    35A     -0.589612    36A     -0.576409
      37A     -0.567823    38A     -0.548826    39A     -0.533763
      40A     -0.528581    41A     -0.503545    42A     -0.497602
      43A     -0.489179    44A     -0.423137    45A     -0.416437
      46A     -0.388065    47A     -0.367030    48A     -0.317659
      49A     -0.279490

  @DF-RHF Final Energy:  -570.48955533870549

   => Energetics <=

    Nuclear Repulsion Energy =            818.5734337276979886
    One-Electron Energy =               -2397.3643393635347820
    Two-Electron Energy =                1008.3013502971311937
    Total Energy =                       -570.4895553387054861
  Basis Set: (AUG-CC-PVTZ AUX)
    Blend: AUG-CC-PVTZ-RI
    Molecular point group: c1

    Geometry (in Angstrom), charge = 0, multiplicity = 1:

       Center              X                  Y                   Z               Mass
    ------------   -----------------  -----------------  -----------------  -----------------
         N            1.019464808065     1.791415357098     0.324753332730    14.003074004430
         N           -1.465815191935     0.864849357098    -0.614115667270    14.003074004430
         C            0.440842808065    -0.542997642902    -0.072528667270    12.000000000000
         C            1.415749808065     0.479949357098     0.096650332730    12.000000000000
         C           -1.011759191935    -0.268920642902    -0.027725667270    12.000000000000
         C            0.862186808065    -1.864274642902    -0.277987667270    12.000000000000
         C            2.772831808065     0.108193357098     0.112924332730    12.000000000000
         C            2.211068808065    -2.214030642902    -0.275512667270    12.000000000000
         C            3.164040808065    -1.216718642902    -0.073877667270    12.000000000000
         C           -1.887638191935    -1.170988642902     0.600050332730    12.000000000000
         C           -3.257371191935    -0.924490642902     0.580423332730    12.000000000000
         C            1.995039808065     2.862287357098     0.253539332730    12.000000000000
         C           -2.789694191935     1.096855357098    -0.611640667270    12.000000000000
         C           -3.723989191935     0.231310357098    -0.045388667270    12.000000000000
         H            0.109652808065    -2.628695642902    -0.462777667270     1.007825032230
         H            3.536363808065     0.866517357098     0.254569332730     1.007825032230
         H            0.132970808065     1.996475357098    -0.129108667270     1.007825032230
         H            2.511687808065    -3.244508642902    -0.445294667270     1.007825032230
         H            4.223506808065    -1.464171642902    -0.065562667270     1.007825032230
         H           -1.484532191935    -2.016742042902     1.152106532730     1.007825032230
         H           -3.947693191935    -1.614062642902     1.060558332730     1.007825032230
         H            2.570355808065     2.870445357098    -0.684591667270     1.007825032230
         H            2.700321808065     2.795459357098     1.087292332730     1.007825032230
         H            1.461951808065     3.810847357098     0.344348332730     1.007825032230
         H           -3.107074191935     2.020627357098    -1.092894667270     1.007825032230
         H           -4.783643191935     0.467642357098    -0.081130667270     1.007825032230

  Basis Set: AUG-CC-PVTZ
    Blend: AUG-CC-PVTZ
  Basis Set: (AUG-CC-PVTZ AUX)
    Blend: AUG-CC-PVTZ-JKFIT
	 Reference Energy          =    -570.4895553387054861 [Eh]
	 Singles Energy            =      -0.0000000000000000 [Eh]
	 Same-Spin Energy          =      -0.6394862637175471 [Eh]
	 Opposite-Spin Energy      =      -1.9764483587785862 [Eh]
	 Correlation Energy        =      -2.6159346224961331 [Eh]
	 Total Energy              =    -573.1054899612016698 [Eh]

	 ================> DF-SCS-MP2 Energies <==================
	-----------------------------------------------------------
	 SCS Same-Spin Scale       =       0.3333333333333333 [-]
	 SCS Opposite-Spin Scale   =       1.2000000000000000 [-]
	 SCS Same-Spin Energy      =      -0.2131620879058490 [Eh]
	 SCS Opposite-Spin Energy  =      -2.3717380305343032 [Eh]
	 SCS Correlation Energy    =      -2.5849001184401521 [Eh]
	 SCS Total Energy          =    -573.0744554571456320 [Eh]
	-----------------------------------------------------------

  Dipole Moment: [D]
     X:    -1.7587      Y:     0.1766      Z:     0.3842     Total:     1.8088

*** Psi4 exiting successfully. Buy a developer a beer!
