                               Psi4 1.4a2.dev612

  ==> Input File <==

--------------------------------------------------------------------------
#psi4
#
memory 32 gb

molecule  {
0 1
  N        0.9996340     1.7721850     0.3204360
  N       -1.4856460     0.8456190    -0.6184330
  C        0.4210120    -0.5622280    -0.0768460
  C        1.3959190     0.4607190     0.0923330
  C       -1.0315900    -0.2881510    -0.0320430
  C        0.8423560    -1.8835050    -0.2823050
  C        2.7530010     0.0889630     0.1086070
  C        2.1912380    -2.2332610    -0.2798300
  C        3.1442100    -1.2359490    -0.0781950
  C       -1.9074690    -1.1902190     0.5957330
  C       -3.2772020    -0.9437210     0.5761060
  C        1.9752090     2.8430570     0.2492220
  C       -2.8095250     1.0776250    -0.6159580
  C       -3.7438200     0.2120800    -0.0497060
  H        0.1057122    -2.5952686    -0.7620097
  H        3.5165330     0.8472870     0.2502520
  H        0.1131400     1.9772450    -0.1334260
  H        2.4918570    -3.2637390    -0.4496120
  H        4.2036760    -1.4834020    -0.0698800
  H       -1.5082140    -2.0621420     1.1053590
  H       -3.9675240    -1.6332930     1.0562410
  H        2.5505250     2.8512150    -0.6889090
  H        2.6804910     2.7762290     1.0829750
  H        1.4421210     3.7916170     0.3400310
  H       -3.1269050     2.0013970    -1.0972120
  H       -4.8034740     0.4484120    -0.0854480
units angstrom
no_reorient  #important for SAPT in psi4, default
symmetry c1  #important for SAPT in psi4, default
}

set PROPERTIES_ORIGIN ["COM"]
properties('MP2/aug-cc-pvtz', properties = ['dipole'])
--------------------------------------------------------------------------

    Molecular point group: c1
  Charge       = 0
  Multiplicity = 1
  Basis Set: AUG-CC-PVTZ
    Blend: AUG-CC-PVTZ
  Basis Set: (AUG-CC-PVTZ AUX)
    Blend: AUG-CC-PVTZ-JKFIT

    Orbital Energies [Eh]
    ---------------------

    Doubly Occupied:

       1A    -15.568653     2A    -15.550588     3A    -11.289222
       4A    -11.281128     5A    -11.279109     6A    -11.262775
       7A    -11.248879     8A    -11.242515     9A    -11.241080
      10A    -11.240644    11A    -11.236127    12A    -11.233640
      13A    -11.220948    14A    -11.219229    15A     -1.263096
      16A     -1.228971    17A     -1.132298    18A     -1.088605
      19A     -1.060443    20A     -0.997994    21A     -0.992857
      22A     -0.915761    23A     -0.870356    24A     -0.859776
      25A     -0.804519    26A     -0.794228    27A     -0.719906
      28A     -0.697458    29A     -0.670444    30A     -0.657117
      31A     -0.648602    32A     -0.621985    33A     -0.609193
      34A     -0.599634    35A     -0.587468    36A     -0.575849
      37A     -0.567976    38A     -0.547587    39A     -0.533851
      40A     -0.528881    41A     -0.506925    42A     -0.495558
      43A     -0.484927    44A     -0.421701    45A     -0.416942
      46A     -0.388016    47A     -0.365947    48A     -0.317836
      49A     -0.279541

  @DF-RHF Final Energy:  -570.48277330914891

   => Energetics <=

    Nuclear Repulsion Energy =            818.3552306773574401
    One-Electron Energy =               -2396.9424362299314453
    Two-Electron Energy =                1008.1044322434250944
    Total Energy =                       -570.4827733091489108
  Basis Set: (AUG-CC-PVTZ AUX)
    Blend: AUG-CC-PVTZ-RI
    Molecular point group: c1

    Geometry (in Angstrom), charge = 0, multiplicity = 1:

       Center              X                  Y                   Z               Mass
    ------------   -----------------  -----------------  -----------------  -----------------
         N            1.019398901472     1.791270354051     0.326600071162    14.003074004430
         N           -1.465881098528     0.864704354051    -0.612268928838    14.003074004430
         C            0.440776901472    -0.543142645949    -0.070681928838    12.000000000000
         C            1.415683901472     0.479804354051     0.098497071162    12.000000000000
         C           -1.011825098528    -0.269065645949    -0.025878928838    12.000000000000
         C            0.862120901472    -1.864419645949    -0.276140928838    12.000000000000
         C            2.772765901472     0.108048354051     0.114771071162    12.000000000000
         C            2.211002901472    -2.214175645949    -0.273665928838    12.000000000000
         C            3.163974901472    -1.216863645949    -0.072030928838    12.000000000000
         C           -1.887704098528    -1.171133645949     0.601897071162    12.000000000000
         C           -3.257437098528    -0.924635645949     0.582270071162    12.000000000000
         C            1.994973901472     2.862142354051     0.255386071162    12.000000000000
         C           -2.789760098528     1.096710354051    -0.609793928838    12.000000000000
         C           -3.724055098528     0.231165354051    -0.043541928838    12.000000000000
         H            0.125477101472    -2.576183245949    -0.755845628838     1.007825032230
         H            3.536297901472     0.866372354051     0.256416071162     1.007825032230
         H            0.132904901472     1.996330354051    -0.127261928838     1.007825032230
         H            2.511621901472    -3.244653645949    -0.443447928838     1.007825032230
         H            4.223440901472    -1.464316645949    -0.063715928838     1.007825032230
         H           -1.488449098528    -2.043056645949     1.111523071162     1.007825032230
         H           -3.947759098528    -1.614207645949     1.062405071162     1.007825032230
         H            2.570289901472     2.870300354051    -0.682744928838     1.007825032230
         H            2.700255901472     2.795314354051     1.089139071162     1.007825032230
         H            1.461885901472     3.810702354051     0.346195071162     1.007825032230
         H           -3.107140098528     2.020482354051    -1.091047928838     1.007825032230
         H           -4.783709098528     0.467497354051    -0.079283928838     1.007825032230

  Basis Set: AUG-CC-PVTZ
    Blend: AUG-CC-PVTZ
  Basis Set: (AUG-CC-PVTZ AUX)
    Blend: AUG-CC-PVTZ-JKFIT
	 Reference Energy          =    -570.4827733091489108 [Eh]
	 Singles Energy            =      -0.0000000000000000 [Eh]
	 Same-Spin Energy          =      -0.6399809411188806 [Eh]
	 Opposite-Spin Energy      =      -1.9774319995306162 [Eh]
	 Correlation Energy        =      -2.6174129406494968 [Eh]
	 Total Energy              =    -573.1001862497984121 [Eh]

	 ================> DF-SCS-MP2 Energies <==================
	-----------------------------------------------------------
	 SCS Same-Spin Scale       =       0.3333333333333333 [-]
	 SCS Opposite-Spin Scale   =       1.2000000000000000 [-]
	 SCS Same-Spin Energy      =      -0.2133269803729602 [Eh]
	 SCS Opposite-Spin Energy  =      -2.3729183994367395 [Eh]
	 SCS Correlation Energy    =      -2.5862453798096996 [Eh]
	 SCS Total Energy          =    -573.0690186889586357 [Eh]
	-----------------------------------------------------------

  Dipole Moment: [D]
     X:    -1.6987      Y:     0.2375      Z:     0.2113     Total:     1.7282

*** Psi4 exiting successfully. Buy a developer a beer!
