                               Psi4 1.4a2.dev612

  ==> Input File <==

--------------------------------------------------------------------------
#psi4
#
memory 32 gb

molecule  {
0 1
  N        0.9996340     1.7721850     0.3204360
  N       -1.4856460     0.8456190    -0.6184330
  C        0.4210120    -0.5622280    -0.0768460
  C        1.3959190     0.4607190     0.0923330
  C       -1.0315900    -0.2881510    -0.0320430
  C        0.8423560    -1.8835050    -0.2823050
  C        2.7530010     0.0889630     0.1086070
  C        2.1912380    -2.2332610    -0.2798300
  C        3.1442100    -1.2359490    -0.0781950
  C       -1.9367344    -1.3128923     0.3798747
  C       -3.2772020    -0.9437210     0.5761060
  C        1.9752090     2.8430570     0.2492220
  C       -2.8095250     1.0776250    -0.6159580
  C       -3.7438200     0.2120800    -0.0497060
  H        0.0898220    -2.6479260    -0.4670950
  H        3.5165330     0.8472870     0.2502520
  H        0.1131400     1.9772450    -0.1334260
  H        2.4918570    -3.2637390    -0.4496120
  H        4.2036760    -1.4834020    -0.0698800
  H       -1.5082140    -2.0621420     1.1053590
  H       -3.9675240    -1.6332930     1.0562410
  H        2.5505250     2.8512150    -0.6889090
  H        2.6804910     2.7762290     1.0829750
  H        1.4421210     3.7916170     0.3400310
  H       -3.1269050     2.0013970    -1.0972120
  H       -4.8034740     0.4484120    -0.0854480
units angstrom
no_reorient  #important for SAPT in psi4, default
symmetry c1  #important for SAPT in psi4, default
}

set PROPERTIES_ORIGIN ["COM"]
properties('MP2/aug-cc-pvtz', properties = ['dipole'])
--------------------------------------------------------------------------

    Molecular point group: c1
  Charge       = 0
  Multiplicity = 1
  Basis Set: AUG-CC-PVTZ
    Blend: AUG-CC-PVTZ
  Basis Set: (AUG-CC-PVTZ AUX)
    Blend: AUG-CC-PVTZ-JKFIT

    Orbital Energies [Eh]
    ---------------------

    Doubly Occupied:

       1A    -15.567599     2A    -15.551003     3A    -11.295627
       4A    -11.284183     5A    -11.279792     6A    -11.266818
       7A    -11.249114     8A    -11.245306     9A    -11.240980
      10A    -11.237447    11A    -11.236761    12A    -11.233389
      13A    -11.220203    14A    -11.218437    15A     -1.263163
      16A     -1.229339    17A     -1.132799    18A     -1.087312
      19A     -1.059541    20A     -0.998940    21A     -0.991866
      22A     -0.915962    23A     -0.870253    24A     -0.857667
      25A     -0.804832    26A     -0.795835    27A     -0.719975
      28A     -0.696680    29A     -0.668393    30A     -0.654381
      31A     -0.647667    32A     -0.617870    33A     -0.608786
      34A     -0.601200    35A     -0.588264    36A     -0.575407
      37A     -0.567804    38A     -0.550041    39A     -0.531558
      40A     -0.523796    41A     -0.502253    42A     -0.498337
      43A     -0.489719    44A     -0.422565    45A     -0.415761
      46A     -0.387999    47A     -0.369059    48A     -0.316074
      49A     -0.279081

  @DF-RHF Final Energy:  -570.47089566093678

   => Energetics <=

    Nuclear Repulsion Energy =            817.8870925346313925
    One-Electron Energy =               -2395.9823013464742871
    Two-Electron Energy =                1007.6243131509061186
    Total Energy =                       -570.4708956609367760
  Basis Set: (AUG-CC-PVTZ AUX)
    Blend: AUG-CC-PVTZ-RI
    Molecular point group: c1

    Geometry (in Angstrom), charge = 0, multiplicity = 1:

       Center              X                  Y                   Z               Mass
    ------------   -----------------  -----------------  -----------------  -----------------
         N            1.021393465539     1.799554703019     0.339055674531    14.003074004430
         N           -1.463886534461     0.872988703019    -0.599813325469    14.003074004430
         C            0.442771465539    -0.534858296981    -0.058226325469    12.000000000000
         C            1.417678465539     0.488088703019     0.110952674531    12.000000000000
         C           -1.009830534461    -0.260781296981    -0.013423325469    12.000000000000
         C            0.864115465539    -1.856135296981    -0.263685325469    12.000000000000
         C            2.774760465539     0.116332703019     0.127226674531    12.000000000000
         C            2.212997465539    -2.205891296981    -0.261210325469    12.000000000000
         C            3.165969465539    -1.208579296981    -0.059575325469    12.000000000000
         C           -1.914974934461    -1.285522596981     0.398494374531    12.000000000000
         C           -3.255442534461    -0.916351296981     0.594725674531    12.000000000000
         C            1.996968465539     2.870426703019     0.267841674531    12.000000000000
         C           -2.787765534461     1.104994703019    -0.597338325469    12.000000000000
         C           -3.722060534461     0.239449703019    -0.031086325469    12.000000000000
         H            0.111581465539    -2.620556296981    -0.448475325469     1.007825032230
         H            3.538292465539     0.874656703019     0.268871674531     1.007825032230
         H            0.134899465539     2.004614703019    -0.114806325469     1.007825032230
         H            2.513616465539    -3.236369296981    -0.430992325469     1.007825032230
         H            4.225435465539    -1.456032296981    -0.051260325469     1.007825032230
         H           -1.486454534461    -2.034772296981     1.123978674531     1.007825032230
         H           -3.945764534461    -1.605923296981     1.074860674531     1.007825032230
         H            2.572284465539     2.878584703019    -0.670289325469     1.007825032230
         H            2.702250465539     2.803598703019     1.101594674531     1.007825032230
         H            1.463880465539     3.818986703019     0.358650674531     1.007825032230
         H           -3.105145534461     2.028766703019    -1.078592325469     1.007825032230
         H           -4.781714534461     0.475781703019    -0.066828325469     1.007825032230

  Basis Set: AUG-CC-PVTZ
    Blend: AUG-CC-PVTZ
  Basis Set: (AUG-CC-PVTZ AUX)
    Blend: AUG-CC-PVTZ-JKFIT
	 Reference Energy          =    -570.4708956609367760 [Eh]
	 Singles Energy            =      -0.0000000000000000 [Eh]
	 Same-Spin Energy          =      -0.6401571024091322 [Eh]
	 Opposite-Spin Energy      =      -1.9786890219289079 [Eh]
	 Correlation Energy        =      -2.6188461243380399 [Eh]
	 Total Energy              =    -573.0897417852747822 [Eh]

	 ================> DF-SCS-MP2 Energies <==================
	-----------------------------------------------------------
	 SCS Same-Spin Scale       =       0.3333333333333333 [-]
	 SCS Opposite-Spin Scale   =       1.2000000000000000 [-]
	 SCS Same-Spin Energy      =      -0.2133857008030440 [Eh]
	 SCS Opposite-Spin Energy  =      -2.3744268263146893 [Eh]
	 SCS Correlation Energy    =      -2.5878125271177335 [Eh]
	 SCS Total Energy          =    -573.0587081880545384 [Eh]
	-----------------------------------------------------------

  Dipole Moment: [D]
     X:    -1.7335      Y:     0.2896      Z:     0.3655     Total:     1.7952

*** Psi4 exiting successfully. Buy a developer a beer!
