                               Psi4 1.4a2.dev612

  ==> Input File <==

--------------------------------------------------------------------------
#psi4
#
memory 32 gb

molecule  {
0 1
  N        0.9996340     1.7721850     0.3204360
  N       -1.4856460     0.8456190    -0.6184330
  C        0.4210120    -0.5622280    -0.0768460
  C        1.3959190     0.4607190     0.0923330
  C       -1.0315900    -0.2881510    -0.0320430
  C        0.8418408    -1.9228390    -0.0354192
  C        2.7530010     0.0889630     0.1086070
  C        2.1912380    -2.2332610    -0.2798300
  C        3.1442100    -1.2359490    -0.0781950
  C       -1.9074690    -1.1902190     0.5957330
  C       -3.2772020    -0.9437210     0.5761060
  C        1.9752090     2.8430570     0.2492220
  C       -2.8095250     1.0776250    -0.6159580
  C       -3.7438200     0.2120800    -0.0497060
  H        0.0898220    -2.6479260    -0.4670950
  H        3.5165330     0.8472870     0.2502520
  H        0.1131400     1.9772450    -0.1334260
  H        2.4918570    -3.2637390    -0.4496120
  H        4.2036760    -1.4834020    -0.0698800
  H       -1.5082140    -2.0621420     1.1053590
  H       -3.9675240    -1.6332930     1.0562410
  H        2.5505250     2.8512150    -0.6889090
  H        2.6804910     2.7762290     1.0829750
  H        1.4421210     3.7916170     0.3400310
  H       -3.1269050     2.0013970    -1.0972120
  H       -4.8034740     0.4484120    -0.0854480
units angstrom
no_reorient  #important for SAPT in psi4, default
symmetry c1  #important for SAPT in psi4, default
}

set PROPERTIES_ORIGIN ["COM"]
properties('MP2/aug-cc-pvtz', properties = ['dipole'])
--------------------------------------------------------------------------

    Molecular point group: c1
  Charge       = 0
  Multiplicity = 1
  Basis Set: AUG-CC-PVTZ
    Blend: AUG-CC-PVTZ
  Basis Set: (AUG-CC-PVTZ AUX)
    Blend: AUG-CC-PVTZ-JKFIT

    Orbital Energies [Eh]
    ---------------------

    Doubly Occupied:

       1A    -15.567917     2A    -15.551089     3A    -11.289473
       4A    -11.280662     5A    -11.279514     6A    -11.262136
       7A    -11.249269     8A    -11.242463     9A    -11.241302
      10A    -11.240062    11A    -11.238255    12A    -11.236587
      13A    -11.224212    14A    -11.223765    15A     -1.262724
      16A     -1.229435    17A     -1.131340    18A     -1.087888
      19A     -1.060589    20A     -0.998013    21A     -0.991881
      22A     -0.915858    23A     -0.870545    24A     -0.859459
      25A     -0.803975    26A     -0.794022    27A     -0.719822
      28A     -0.696324    29A     -0.669849    30A     -0.657812
      31A     -0.648421    32A     -0.620918    33A     -0.607917
      34A     -0.597936    35A     -0.586459    36A     -0.574792
      37A     -0.568604    38A     -0.548198    39A     -0.533077
      40A     -0.528547    41A     -0.504733    42A     -0.494793
      43A     -0.483458    44A     -0.421496    45A     -0.417038
      46A     -0.388015    47A     -0.369483    48A     -0.317119
      49A     -0.277501

  @DF-RHF Final Energy:  -570.46926447198973

   => Energetics <=

    Nuclear Repulsion Energy =            818.0451939762685925
    One-Electron Energy =               -2396.2994210233500780
    Two-Electron Energy =                1007.7849625750917539
    Total Energy =                       -570.4692644719897316
  Basis Set: (AUG-CC-PVTZ AUX)
    Blend: AUG-CC-PVTZ-RI
    Molecular point group: c1

    Geometry (in Angstrom), charge = 0, multiplicity = 1:

       Center              X                  Y                   Z               Mass
    ------------   -----------------  -----------------  -----------------  -----------------
         N            1.019519471463     1.794122485001     0.308893112118    14.003074004430
         N           -1.465760528537     0.867556485001    -0.629975887882    14.003074004430
         C            0.440897471463    -0.540290514999    -0.088388887882    12.000000000000
         C            1.415804471463     0.482656485001     0.080790112118    12.000000000000
         C           -1.011704528537    -0.266213514999    -0.043585887882    12.000000000000
         C            0.861726271463    -1.900901514999    -0.046962087882    12.000000000000
         C            2.772886471463     0.110900485001     0.097064112118    12.000000000000
         C            2.211123471463    -2.211323514999    -0.291372887882    12.000000000000
         C            3.164095471463    -1.214011514999    -0.089737887882    12.000000000000
         C           -1.887583528537    -1.168281514999     0.584190112118    12.000000000000
         C           -3.257316528537    -0.921783514999     0.564563112118    12.000000000000
         C            1.995094471463     2.864994485001     0.237679112118    12.000000000000
         C           -2.789639528537     1.099562485001    -0.627500887882    12.000000000000
         C           -3.723934528537     0.234017485001    -0.061248887882    12.000000000000
         H            0.109707471463    -2.625988514999    -0.478637887882     1.007825032230
         H            3.536418471463     0.869224485001     0.238709112118     1.007825032230
         H            0.133025471463     1.999182485001    -0.144968887882     1.007825032230
         H            2.511742471463    -3.241801514999    -0.461154887882     1.007825032230
         H            4.223561471463    -1.461464514999    -0.081422887882     1.007825032230
         H           -1.488328528537    -2.040204514999     1.093816112118     1.007825032230
         H           -3.947638528537    -1.611355514999     1.044698112118     1.007825032230
         H            2.570410471463     2.873152485001    -0.700451887882     1.007825032230
         H            2.700376471463     2.798166485001     1.071432112118     1.007825032230
         H            1.462006471463     3.813554485001     0.328488112118     1.007825032230
         H           -3.107019528537     2.023334485001    -1.108754887882     1.007825032230
         H           -4.783588528537     0.470349485001    -0.096990887882     1.007825032230

  Basis Set: AUG-CC-PVTZ
    Blend: AUG-CC-PVTZ
  Basis Set: (AUG-CC-PVTZ AUX)
    Blend: AUG-CC-PVTZ-JKFIT
	 Reference Energy          =    -570.4692644719897316 [Eh]
	 Singles Energy            =      -0.0000000000000000 [Eh]
	 Same-Spin Energy          =      -0.6410403530144204 [Eh]
	 Opposite-Spin Energy      =      -1.9800162828630603 [Eh]
	 Correlation Energy        =      -2.6210566358774807 [Eh]
	 Total Energy              =    -573.0903211078672257 [Eh]

	 ================> DF-SCS-MP2 Energies <==================
	-----------------------------------------------------------
	 SCS Same-Spin Scale       =       0.3333333333333333 [-]
	 SCS Opposite-Spin Scale   =       1.2000000000000000 [-]
	 SCS Same-Spin Energy      =      -0.2136801176714735 [Eh]
	 SCS Opposite-Spin Energy  =      -2.3760195394356725 [Eh]
	 SCS Correlation Energy    =      -2.5896996571071460 [Eh]
	 SCS Total Energy          =    -573.0589641290969212 [Eh]
	-----------------------------------------------------------

  Dipole Moment: [D]
     X:    -1.5241      Y:     0.2917      Z:     0.2180     Total:     1.5670

*** Psi4 exiting successfully. Buy a developer a beer!
