                               Psi4 1.4a2.dev612

  ==> Input File <==

--------------------------------------------------------------------------
#psi4
#
memory 32 gb

molecule  {
0 1
  N        0.9996340     1.7721850     0.3204360
  N       -1.4856460     0.8456190    -0.6184330
  C        0.4210120    -0.5622280    -0.0768460
  C        1.3959190     0.4607190     0.0923330
  C       -1.0315900    -0.2881510    -0.0320430
  C        0.8423560    -1.8835050    -0.2823050
  C        2.7530010     0.0889630     0.1086070
  C        2.1912380    -2.2332610    -0.2798300
  C        3.1442100    -1.2359490    -0.0781950
  C       -1.9074690    -1.1902190     0.5957330
  C       -3.2772020    -0.9437210     0.5761060
  C        1.9752090     2.8430570     0.2492220
  C       -2.8095250     1.0776250    -0.6159580
  C       -3.7438200     0.2120800    -0.0497060
  H        0.0898220    -2.6479260    -0.4670950
  H        3.5165330     0.8472870     0.2502520
  H        0.1131400     1.9772450    -0.1334260
  H        2.4918570    -3.2637390    -0.4496120
  H        4.2036760    -1.4834020    -0.0698800
  H       -1.5082140    -2.0621420     1.1053590
  H       -3.9675240    -1.6332930     1.0562410
  H        2.5505250     2.8512150    -0.6889090
  H        2.6804910     2.7762290     1.0829750
  H        1.4421210     3.7916170     0.3400310
  H       -3.1480576     1.8810177    -1.3152977
  H       -4.8034740     0.4484120    -0.0854480
units angstrom
no_reorient  #important for SAPT in psi4, default
symmetry c1  #important for SAPT in psi4, default
}

set PROPERTIES_ORIGIN ["COM"]
properties('MP2/aug-cc-pvtz', properties = ['dipole'])
--------------------------------------------------------------------------

    Molecular point group: c1
  Charge       = 0
  Multiplicity = 1
  Basis Set: AUG-CC-PVTZ
    Blend: AUG-CC-PVTZ
  Basis Set: (AUG-CC-PVTZ AUX)
    Blend: AUG-CC-PVTZ-JKFIT

    Orbital Energies [Eh]
    ---------------------

    Doubly Occupied:

       1A    -15.569113     2A    -15.550681     3A    -11.290259
       4A    -11.283977     5A    -11.279085     6A    -11.263417
       7A    -11.248728     8A    -11.242799     9A    -11.242038
      10A    -11.237575    11A    -11.236027    12A    -11.233318
      13A    -11.220093    14A    -11.218522    15A     -1.263478
      16A     -1.228966    17A     -1.132513    18A     -1.089207
      19A     -1.060446    20A     -0.998899    21A     -0.992687
      22A     -0.915645    23A     -0.871104    24A     -0.858881
      25A     -0.804829    26A     -0.796279    27A     -0.719649
      28A     -0.697156    29A     -0.670931    30A     -0.657806
      31A     -0.649573    32A     -0.620295    33A     -0.608757
      34A     -0.602179    35A     -0.589294    36A     -0.576829
      37A     -0.568209    38A     -0.545579    39A     -0.534661
      40A     -0.529419    41A     -0.504808    42A     -0.495641
      43A     -0.488704    44A     -0.423357    45A     -0.416378
      46A     -0.388243    47A     -0.367391    48A     -0.317466
      49A     -0.279370

  @DF-RHF Final Energy:  -570.48528978939601

   => Energetics <=

    Nuclear Repulsion Energy =            818.4372294731917918
    One-Electron Energy =               -2397.0845180042874745
    Two-Electron Energy =                1008.1619987416996764
    Total Energy =                       -570.4852897893960062
  Basis Set: (AUG-CC-PVTZ AUX)
    Blend: AUG-CC-PVTZ-RI
    Molecular point group: c1

    Geometry (in Angstrom), charge = 0, multiplicity = 1:

       Center              X                  Y                   Z               Mass
    ------------   -----------------  -----------------  -----------------  -----------------
         N            1.019601686106     1.792217614626     0.326179483606    14.003074004430
         N           -1.465678313894     0.865651614626    -0.612689516394    14.003074004430
         C            0.440979686106    -0.542195385374    -0.071102516394    12.000000000000
         C            1.415886686106     0.480751614626     0.098076483606    12.000000000000
         C           -1.011622313894    -0.268118385374    -0.026299516394    12.000000000000
         C            0.862323686106    -1.863472385374    -0.276561516394    12.000000000000
         C            2.772968686106     0.108995614626     0.114350483606    12.000000000000
         C            2.211205686106    -2.213228385374    -0.274086516394    12.000000000000
         C            3.164177686106    -1.215916385374    -0.072451516394    12.000000000000
         C           -1.887501313894    -1.170186385374     0.601476483606    12.000000000000
         C           -3.257234313894    -0.923688385374     0.581849483606    12.000000000000
         C            1.995176686106     2.863089614626     0.254965483606    12.000000000000
         C           -2.789557313894     1.097657614626    -0.610214516394    12.000000000000
         C           -3.723852313894     0.232112614626    -0.043962516394    12.000000000000
         H            0.109789686106    -2.627893385374    -0.461351516394     1.007825032230
         H            3.536500686106     0.867319614626     0.255995483606     1.007825032230
         H            0.133107686106     1.997277614626    -0.127682516394     1.007825032230
         H            2.511824686106    -3.243706385374    -0.443868516394     1.007825032230
         H            4.223643686106    -1.463369385374    -0.064136516394     1.007825032230
         H           -1.488246313894    -2.042109385374     1.111102483606     1.007825032230
         H           -3.947556313894    -1.613260385374     1.061984483606     1.007825032230
         H            2.570492686106     2.871247614626    -0.683165516394     1.007825032230
         H            2.700458686106     2.796261614626     1.088718483606     1.007825032230
         H            1.462088686106     3.811649614626     0.345774483606     1.007825032230
         H           -3.128089913894     1.901050314626    -1.309554216394     1.007825032230
         H           -4.783506313894     0.468444614626    -0.079704516394     1.007825032230

  Basis Set: AUG-CC-PVTZ
    Blend: AUG-CC-PVTZ
  Basis Set: (AUG-CC-PVTZ AUX)
    Blend: AUG-CC-PVTZ-JKFIT
	 Reference Energy          =    -570.4852897893960062 [Eh]
	 Singles Energy            =      -0.0000000000000000 [Eh]
	 Same-Spin Energy          =      -0.6397350045252811 [Eh]
	 Opposite-Spin Energy      =      -1.9770395314557834 [Eh]
	 Correlation Energy        =      -2.6167745359810644 [Eh]
	 Total Energy              =    -573.1020643253771141 [Eh]

	 ================> DF-SCS-MP2 Energies <==================
	-----------------------------------------------------------
	 SCS Same-Spin Scale       =       0.3333333333333333 [-]
	 SCS Opposite-Spin Scale   =       1.2000000000000000 [-]
	 SCS Same-Spin Energy      =      -0.2132450015084270 [Eh]
	 SCS Opposite-Spin Energy  =      -2.3724474377469398 [Eh]
	 SCS Correlation Energy    =      -2.5856924392553666 [Eh]
	 SCS Total Energy          =    -573.0709822286513599 [Eh]
	-----------------------------------------------------------

  Dipole Moment: [D]
     X:    -1.7400      Y:     0.0621      Z:     0.2721     Total:     1.7623

*** Psi4 exiting successfully. Buy a developer a beer!
