                               Psi4 1.4a2.dev612

  ==> Input File <==

--------------------------------------------------------------------------
#psi4
#
memory 32 gb

molecule  {
0 1
  N        0.9996340     1.7721850     0.3204360
  N       -1.4856460     0.8456190    -0.6184330
  C        0.4210120    -0.5622280    -0.0768460
  C        1.3959190     0.4607190     0.0923330
  C       -1.0315900    -0.2881510    -0.0320430
  C        0.8423560    -1.8835050    -0.2823050
  C        2.7445204     0.0490883     0.3552608
  C        2.1912380    -2.2332610    -0.2798300
  C        3.1442100    -1.2359490    -0.0781950
  C       -1.9074690    -1.1902190     0.5957330
  C       -3.2772020    -0.9437210     0.5761060
  C        1.9752090     2.8430570     0.2492220
  C       -2.8095250     1.0776250    -0.6159580
  C       -3.7438200     0.2120800    -0.0497060
  H        0.0898220    -2.6479260    -0.4670950
  H        3.5165330     0.8472870     0.2502520
  H        0.1131400     1.9772450    -0.1334260
  H        2.4918570    -3.2637390    -0.4496120
  H        4.2036760    -1.4834020    -0.0698800
  H       -1.5082140    -2.0621420     1.1053590
  H       -3.9675240    -1.6332930     1.0562410
  H        2.5505250     2.8512150    -0.6889090
  H        2.6804910     2.7762290     1.0829750
  H        1.4421210     3.7916170     0.3400310
  H       -3.1269050     2.0013970    -1.0972120
  H       -4.8034740     0.4484120    -0.0854480
units angstrom
no_reorient  #important for SAPT in psi4, default
symmetry c1  #important for SAPT in psi4, default
}

set PROPERTIES_ORIGIN ["COM"]
properties('MP2/aug-cc-pvtz', properties = ['dipole'])
--------------------------------------------------------------------------

    Molecular point group: c1
  Charge       = 0
  Multiplicity = 1
  Basis Set: AUG-CC-PVTZ
    Blend: AUG-CC-PVTZ
  Basis Set: (AUG-CC-PVTZ AUX)
    Blend: AUG-CC-PVTZ-JKFIT

    Orbital Energies [Eh]
    ---------------------

    Doubly Occupied:

       1A    -15.568531     2A    -15.553717     3A    -11.290354
       4A    -11.285081     5A    -11.281557     6A    -11.263456
       7A    -11.249602     8A    -11.242233     9A    -11.241584
      10A    -11.240563    11A    -11.240538    12A    -11.232992
      13A    -11.224520    14A    -11.217540    15A     -1.263531
      16A     -1.229908    17A     -1.131819    18A     -1.088985
      19A     -1.059734    20A     -0.996407    21A     -0.992770
      22A     -0.915894    23A     -0.870066    24A     -0.860281
      25A     -0.804097    26A     -0.794461    27A     -0.719590
      28A     -0.698092    29A     -0.669807    30A     -0.657810
      31A     -0.650257    32A     -0.620182    33A     -0.606003
      34A     -0.598417    35A     -0.587939    36A     -0.576718
      37A     -0.567173    38A     -0.548416    39A     -0.533211
      40A     -0.528620    41A     -0.506270    42A     -0.494895
      43A     -0.481978    44A     -0.426139    45A     -0.414955
      46A     -0.388202    47A     -0.366948    48A     -0.318338
      49A     -0.278163

  @DF-RHF Final Energy:  -570.47040007956082

   => Energetics <=

    Nuclear Repulsion Energy =            817.7320778843061362
    One-Electron Energy =               -2395.6482673729151429
    Two-Electron Energy =                1007.4457894090481886
    Total Energy =                       -570.4704000795608181
  Basis Set: (AUG-CC-PVTZ AUX)
    Blend: AUG-CC-PVTZ-RI
    Molecular point group: c1

    Geometry (in Angstrom), charge = 0, multiplicity = 1:

       Center              X                  Y                   Z               Mass
    ------------   -----------------  -----------------  -----------------  -----------------
         N            1.020038671761     1.794157728881     0.308908234330    14.003074004430
         N           -1.465241328239     0.867591728881    -0.629960765670    14.003074004430
         C            0.441416671761    -0.540255271119    -0.088373765670    12.000000000000
         C            1.416323671761     0.482691728881     0.080805234330    12.000000000000
         C           -1.011185328239    -0.266178271119    -0.043570765670    12.000000000000
         C            0.862760671761    -1.861532271119    -0.293832765670    12.000000000000
         C            2.764925071761     0.071061028881     0.343733034330    12.000000000000
         C            2.211642671761    -2.211288271119    -0.291357765670    12.000000000000
         C            3.164614671761    -1.213976271119    -0.089722765670    12.000000000000
         C           -1.887064328239    -1.168246271119     0.584205234330    12.000000000000
         C           -3.256797328239    -0.921748271119     0.564578234330    12.000000000000
         C            1.995613671761     2.865029728881     0.237694234330    12.000000000000
         C           -2.789120328239     1.099597728881    -0.627485765670    12.000000000000
         C           -3.723415328239     0.234052728881    -0.061233765670    12.000000000000
         H            0.110226671761    -2.625953271119    -0.478622765670     1.007825032230
         H            3.536937671761     0.869259728881     0.238724234330     1.007825032230
         H            0.133544671761     1.999217728881    -0.144953765670     1.007825032230
         H            2.512261671761    -3.241766271119    -0.461139765670     1.007825032230
         H            4.224080671761    -1.461429271119    -0.081407765670     1.007825032230
         H           -1.487809328239    -2.040169271119     1.093831234330     1.007825032230
         H           -3.947119328239    -1.611320271119     1.044713234330     1.007825032230
         H            2.570929671761     2.873187728881    -0.700436765670     1.007825032230
         H            2.700895671761     2.798201728881     1.071447234330     1.007825032230
         H            1.462525671761     3.813589728881     0.328503234330     1.007825032230
         H           -3.106500328239     2.023369728881    -1.108739765670     1.007825032230
         H           -4.783069328239     0.470384728881    -0.096975765670     1.007825032230

  Basis Set: AUG-CC-PVTZ
    Blend: AUG-CC-PVTZ
  Basis Set: (AUG-CC-PVTZ AUX)
    Blend: AUG-CC-PVTZ-JKFIT
	 Reference Energy          =    -570.4704000795608181 [Eh]
	 Singles Energy            =      -0.0000000000000000 [Eh]
	 Same-Spin Energy          =      -0.6402155611393338 [Eh]
	 Opposite-Spin Energy      =      -1.9789528220005603 [Eh]
	 Correlation Energy        =      -2.6191683831398942 [Eh]
	 Total Energy              =    -573.0895684627007540 [Eh]

	 ================> DF-SCS-MP2 Energies <==================
	-----------------------------------------------------------
	 SCS Same-Spin Scale       =       0.3333333333333333 [-]
	 SCS Opposite-Spin Scale   =       1.2000000000000000 [-]
	 SCS Same-Spin Energy      =      -0.2134051870464446 [Eh]
	 SCS Opposite-Spin Energy  =      -2.3747433864006724 [Eh]
	 SCS Correlation Energy    =      -2.5881485734471168 [Eh]
	 SCS Total Energy          =    -573.0585486530079606 [Eh]
	-----------------------------------------------------------

  Dipole Moment: [D]
     X:    -1.8710      Y:     0.1978      Z:     0.1701     Total:     1.8891

*** Psi4 exiting successfully. Buy a developer a beer!
