                               Psi4 1.4a2.dev612

  ==> Input File <==

--------------------------------------------------------------------------
#psi4
#
memory 32 gb

molecule  {
0 1
  N        0.9996340     1.7721850     0.3204360
  N       -1.4856460     0.8456190    -0.6184330
  C        0.4210120    -0.5622280    -0.0768460
  C        1.3959190     0.4607190     0.0923330
  C       -1.0315900    -0.2881510    -0.0320430
  C        0.8423560    -1.8835050    -0.2823050
  C        2.7462165     0.0570632     0.3059300
  C        2.1912380    -2.2332610    -0.2798300
  C        3.1442100    -1.2359490    -0.0781950
  C       -1.9074690    -1.1902190     0.5957330
  C       -3.2772020    -0.9437210     0.5761060
  C        1.9752090     2.8430570     0.2492220
  C       -2.8095250     1.0776250    -0.6159580
  C       -3.7438200     0.2120800    -0.0497060
  H        0.0898220    -2.6479260    -0.4670950
  H        3.5165330     0.8472870     0.2502520
  H        0.1131400     1.9772450    -0.1334260
  H        2.4918570    -3.2637390    -0.4496120
  H        4.2036760    -1.4834020    -0.0698800
  H       -1.5082140    -2.0621420     1.1053590
  H       -3.9675240    -1.6332930     1.0562410
  H        2.5505250     2.8512150    -0.6889090
  H        2.6804910     2.7762290     1.0829750
  H        1.4421210     3.7916170     0.3400310
  H       -3.1269050     2.0013970    -1.0972120
  H       -4.8034740     0.4484120    -0.0854480
units angstrom
no_reorient  #important for SAPT in psi4, default
symmetry c1  #important for SAPT in psi4, default
}

set PROPERTIES_ORIGIN ["COM"]
properties('MP2/aug-cc-pvtz', properties = ['dipole'])
--------------------------------------------------------------------------

    Molecular point group: c1
  Charge       = 0
  Multiplicity = 1
  Basis Set: AUG-CC-PVTZ
    Blend: AUG-CC-PVTZ
  Basis Set: (AUG-CC-PVTZ AUX)
    Blend: AUG-CC-PVTZ-JKFIT

    Orbital Energies [Eh]
    ---------------------

    Doubly Occupied:

       1A    -15.568501     2A    -15.552748     3A    -11.290196
       4A    -11.283136     5A    -11.281462     6A    -11.263355
       7A    -11.249409     8A    -11.242236     9A    -11.241522
      10A    -11.239406    11A    -11.238943    12A    -11.232974
      13A    -11.223000    14A    -11.217708    15A     -1.263402
      16A     -1.229601    17A     -1.132025    18A     -1.088913
      19A     -1.060037    20A     -0.997247    21A     -0.992830
      22A     -0.915855    23A     -0.870340    24A     -0.860225
      25A     -0.804486    26A     -0.795101    27A     -0.719915
      28A     -0.697924    29A     -0.670101    30A     -0.657922
      31A     -0.650133    32A     -0.620597    33A     -0.606380
      34A     -0.599833    35A     -0.588678    36A     -0.576692
      37A     -0.567658    38A     -0.548424    39A     -0.533522
      40A     -0.528659    41A     -0.505929    42A     -0.495546
      43A     -0.484448    44A     -0.425656    45A     -0.415319
      46A     -0.388136    47A     -0.367021    48A     -0.318065
      49A     -0.278324

  @DF-RHF Final Energy:  -570.47721917262083

   => Energetics <=

    Nuclear Repulsion Energy =            818.0164555061038527
    One-Electron Energy =               -2396.2282626978180815
    Two-Electron Energy =                1007.7345880190935077
    Total Energy =                       -570.4772191726208348
  Basis Set: (AUG-CC-PVTZ AUX)
    Blend: AUG-CC-PVTZ-RI
    Molecular point group: c1

    Geometry (in Angstrom), charge = 0, multiplicity = 1:

       Center              X                  Y                   Z               Mass
    ------------   -----------------  -----------------  -----------------  -----------------
         N            1.019928116657     1.793637909354     0.312123712029    14.003074004430
         N           -1.465351883343     0.867071909354    -0.626745287971    14.003074004430
         C            0.441306116657    -0.540775090646    -0.085158287971    12.000000000000
         C            1.416213116657     0.482171909354     0.084020712029    12.000000000000
         C           -1.011295883343    -0.266698090646    -0.040355287971    12.000000000000
         C            0.862650116657    -1.862052090646    -0.290617287971    12.000000000000
         C            2.766510616657     0.078516109354     0.297617712029    12.000000000000
         C            2.211532116657    -2.211808090646    -0.288142287971    12.000000000000
         C            3.164504116657    -1.214496090646    -0.086507287971    12.000000000000
         C           -1.887174883343    -1.168766090646     0.587420712029    12.000000000000
         C           -3.256907883343    -0.922268090646     0.567793712029    12.000000000000
         C            1.995503116657     2.864509909354     0.240909712029    12.000000000000
         C           -2.789230883343     1.099077909354    -0.624270287971    12.000000000000
         C           -3.723525883343     0.233532909354    -0.058018287971    12.000000000000
         H            0.110116116657    -2.626473090646    -0.475407287971     1.007825032230
         H            3.536827116657     0.868739909354     0.241939712029     1.007825032230
         H            0.133434116657     1.998697909354    -0.141738287971     1.007825032230
         H            2.512151116657    -3.242286090646    -0.457924287971     1.007825032230
         H            4.223970116657    -1.461949090646    -0.078192287971     1.007825032230
         H           -1.487919883343    -2.040689090646     1.097046712029     1.007825032230
         H           -3.947229883343    -1.611840090646     1.047928712029     1.007825032230
         H            2.570819116657     2.872667909354    -0.697221287971     1.007825032230
         H            2.700785116657     2.797681909354     1.074662712029     1.007825032230
         H            1.462415116657     3.813069909354     0.331718712029     1.007825032230
         H           -3.106610883343     2.022849909354    -1.105524287971     1.007825032230
         H           -4.783179883343     0.469864909354    -0.093760287971     1.007825032230

  Basis Set: AUG-CC-PVTZ
    Blend: AUG-CC-PVTZ
  Basis Set: (AUG-CC-PVTZ AUX)
    Blend: AUG-CC-PVTZ-JKFIT
	 Reference Energy          =    -570.4772191726208348 [Eh]
	 Singles Energy            =      -0.0000000000000000 [Eh]
	 Same-Spin Energy          =      -0.6399610151110354 [Eh]
	 Opposite-Spin Energy      =      -1.9780190002020672 [Eh]
	 Correlation Energy        =      -2.6179800153131025 [Eh]
	 Total Energy              =    -573.0951991879339857 [Eh]

	 ================> DF-SCS-MP2 Energies <==================
	-----------------------------------------------------------
	 SCS Same-Spin Scale       =       0.3333333333333333 [-]
	 SCS Opposite-Spin Scale   =       1.2000000000000000 [-]
	 SCS Same-Spin Energy      =      -0.2133203383703451 [Eh]
	 SCS Opposite-Spin Energy  =      -2.3736228002424804 [Eh]
	 SCS Correlation Energy    =      -2.5869431386128254 [Eh]
	 SCS Total Energy          =    -573.0641623112336447 [Eh]
	-----------------------------------------------------------

  Dipole Moment: [D]
     X:    -1.8262      Y:     0.1961      Z:     0.2120     Total:     1.8489

*** Psi4 exiting successfully. Buy a developer a beer!
