                               Psi4 1.4a2.dev612

  ==> Input File <==

--------------------------------------------------------------------------
#psi4
#
memory 32 gb

molecule  {
0 1
  N        0.9996340     1.7721850     0.3204360
  N       -1.4856460     0.8456190    -0.6184330
  C        0.4210120    -0.5622280    -0.0768460
  C        1.3959190     0.4607190     0.0923330
  C       -1.0315900    -0.2881510    -0.0320430
  C        0.8423560    -1.8835050    -0.2823050
  C        2.7530010     0.0889630     0.1086070
  C        2.1912380    -2.2332610    -0.2798300
  C        3.1442100    -1.2359490    -0.0781950
  C       -1.9074690    -1.1902190     0.5957330
  C       -3.2772020    -0.9437210     0.5761060
  C        1.9752090     2.8430570     0.2492220
  C       -2.8095250     1.0776250    -0.6159580
  C       -3.7438200     0.2120800    -0.0497060
  H        0.0898220    -2.6479260    -0.4670950
  H        3.5165330     0.8472870     0.2502520
  H        0.1131400     1.9772450    -0.1334260
  H        2.4918570    -3.2637390    -0.4496120
  H        4.2036760    -1.4834020    -0.0698800
  H       -1.5082140    -2.0621420     1.1053590
  H       -3.9675240    -1.6332930     1.0562410
  H        2.5505250     2.8512150    -0.6889090
  H        2.6804910     2.7762290     1.0829750
  H        1.4421210     3.7916170     0.3400310
  H       -3.1438271     1.9050935    -1.2716806
  H       -4.8034740     0.4484120    -0.0854480
units angstrom
no_reorient  #important for SAPT in psi4, default
symmetry c1  #important for SAPT in psi4, default
}

set PROPERTIES_ORIGIN ["COM"]
properties('MP2/aug-cc-pvtz', properties = ['dipole'])
--------------------------------------------------------------------------

    Molecular point group: c1
  Charge       = 0
  Multiplicity = 1
  Basis Set: AUG-CC-PVTZ
    Blend: AUG-CC-PVTZ
  Basis Set: (AUG-CC-PVTZ AUX)
    Blend: AUG-CC-PVTZ-JKFIT

    Orbital Energies [Eh]
    ---------------------

    Doubly Occupied:

       1A    -15.568954     2A    -15.550626     3A    -11.290141
       4A    -11.283046     5A    -11.279038     6A    -11.263344
       7A    -11.248714     8A    -11.242650     9A    -11.241864
      10A    -11.237522    11A    -11.235988    12A    -11.233253
      13A    -11.220050    14A    -11.218472    15A     -1.263394
      16A     -1.228922    17A     -1.132471    18A     -1.089093
      19A     -1.060511    20A     -0.998871    21A     -0.992731
      22A     -0.915630    23A     -0.871072    24A     -0.859331
      25A     -0.805010    26A     -0.796230    27A     -0.720013
      28A     -0.697343    29A     -0.670865    30A     -0.657934
      31A     -0.649751    32A     -0.620780    33A     -0.608774
      34A     -0.602259    35A     -0.589475    36A     -0.576758
      37A     -0.568129    38A     -0.546065    39A     -0.534702
      40A     -0.529373    41A     -0.504612    42A     -0.495975
      43A     -0.488960    44A     -0.423298    45A     -0.416349
      46A     -0.388176    47A     -0.367476    48A     -0.317469
      49A     -0.279373

  @DF-RHF Final Energy:  -570.48696715593542

   => Energetics <=

    Nuclear Repulsion Energy =            818.4835591960969623
    One-Electron Energy =               -2397.1793737598909502
    Two-Electron Energy =                1008.2088474078586842
    Total Energy =                       -570.4869671559354174
  Basis Set: (AUG-CC-PVTZ AUX)
    Blend: AUG-CC-PVTZ-RI
    Molecular point group: c1

    Geometry (in Angstrom), charge = 0, multiplicity = 1:

       Center              X                  Y                   Z               Mass
    ------------   -----------------  -----------------  -----------------  -----------------
         N            1.019578526939     1.792085815672     0.325940709062    14.003074004430
         N           -1.465701473061     0.865519815672    -0.612928290938    14.003074004430
         C            0.440956526939    -0.542327184328    -0.071341290938    12.000000000000
         C            1.415863526939     0.480619815672     0.097837709062    12.000000000000
         C           -1.011645473061    -0.268250184328    -0.026538290938    12.000000000000
         C            0.862300526939    -1.863604184328    -0.276800290938    12.000000000000
         C            2.772945526939     0.108863815672     0.114111709062    12.000000000000
         C            2.211182526939    -2.213360184328    -0.274325290938    12.000000000000
         C            3.164154526939    -1.216048184328    -0.072690290938    12.000000000000
         C           -1.887524473061    -1.170318184328     0.601237709062    12.000000000000
         C           -3.257257473061    -0.923820184328     0.581610709062    12.000000000000
         C            1.995153526939     2.862957815672     0.254726709062    12.000000000000
         C           -2.789580473061     1.097525815672    -0.610453290938    12.000000000000
         C           -3.723875473061     0.231980815672    -0.044201290938    12.000000000000
         H            0.109766526939    -2.628025184328    -0.461590290938     1.007825032230
         H            3.536477526939     0.867187815672     0.255756709062     1.007825032230
         H            0.133084526939     1.997145815672    -0.127921290938     1.007825032230
         H            2.511801526939    -3.243838184328    -0.444107290938     1.007825032230
         H            4.223620526939    -1.463501184328    -0.064375290938     1.007825032230
         H           -1.488269473061    -2.042241184328     1.110863709062     1.007825032230
         H           -3.947579473061    -1.613392184328     1.061745709062     1.007825032230
         H            2.570469526939     2.871115815672    -0.683404290938     1.007825032230
         H            2.700435526939     2.796129815672     1.088479709062     1.007825032230
         H            1.462065526939     3.811517815672     0.345535709062     1.007825032230
         H           -3.123882573061     1.924994315672    -1.266175890938     1.007825032230
         H           -4.783529473061     0.468312815672    -0.079943290938     1.007825032230

  Basis Set: AUG-CC-PVTZ
    Blend: AUG-CC-PVTZ
  Basis Set: (AUG-CC-PVTZ AUX)
    Blend: AUG-CC-PVTZ-JKFIT
	 Reference Energy          =    -570.4869671559354174 [Eh]
	 Singles Energy            =      -0.0000000000000000 [Eh]
	 Same-Spin Energy          =      -0.6396417757151546 [Eh]
	 Opposite-Spin Energy      =      -1.9768139872647006 [Eh]
	 Correlation Energy        =      -2.6164557629798550 [Eh]
	 Total Energy              =    -573.1034229189152711 [Eh]

	 ================> DF-SCS-MP2 Energies <==================
	-----------------------------------------------------------
	 SCS Same-Spin Scale       =       0.3333333333333333 [-]
	 SCS Opposite-Spin Scale   =       1.2000000000000000 [-]
	 SCS Same-Spin Energy      =      -0.2132139252383848 [Eh]
	 SCS Opposite-Spin Energy  =      -2.3721767847176407 [Eh]
	 SCS Correlation Energy    =      -2.5853907099560254 [Eh]
	 SCS Total Energy          =    -573.0723578658914903 [Eh]
	-----------------------------------------------------------

  Dipole Moment: [D]
     X:    -1.7492      Y:     0.0884      Z:     0.2861     Total:     1.7746

*** Psi4 exiting successfully. Buy a developer a beer!
