                               Psi4 1.4a2.dev612

  ==> Input File <==

--------------------------------------------------------------------------
#psi4
#
memory 32 gb

molecule  {
0 1
  N        0.9996340     1.7721850     0.3204360
  N       -1.4856460     0.8456190    -0.6184330
  C        0.4210120    -0.5622280    -0.0768460
  C        1.3959190     0.4607190     0.0923330
  C       -1.0315900    -0.2881510    -0.0320430
  C        0.8423560    -1.8835050    -0.2823050
  C        2.7530010     0.0889630     0.1086070
  C        2.1912380    -2.2332610    -0.2798300
  C        3.1442100    -1.2359490    -0.0781950
  C       -1.9074690    -1.1902190     0.5957330
  C       -3.2772020    -0.9437210     0.5761060
  C        1.9752090     2.8430570     0.2492220
  C       -2.8095250     1.0776250    -0.6159580
  C       -3.7438200     0.2120800    -0.0497060
  H        0.0898220    -2.6479260    -0.4670950
  H        3.5165330     0.8472870     0.2502520
  H        0.1131400     1.9772450    -0.1334260
  H        2.4918570    -3.2637390    -0.4496120
  H        4.2036760    -1.4834020    -0.0698800
  H       -1.5082140    -2.0621420     1.1053590
  H       -3.9675240    -1.6332930     1.0562410
  H        2.5505250     2.8512150    -0.6889090
  H        2.6804910     2.7762290     1.0829750
  H        1.4421210     3.7916170     0.3400310
  H       -3.1353660     1.9532453    -1.1844463
  H       -4.8034740     0.4484120    -0.0854480
units angstrom
no_reorient  #important for SAPT in psi4, default
symmetry c1  #important for SAPT in psi4, default
}

set PROPERTIES_ORIGIN ["COM"]
properties('MP2/aug-cc-pvtz', properties = ['dipole'])
--------------------------------------------------------------------------

    Molecular point group: c1
  Charge       = 0
  Multiplicity = 1
  Basis Set: AUG-CC-PVTZ
    Blend: AUG-CC-PVTZ
  Basis Set: (AUG-CC-PVTZ AUX)
    Blend: AUG-CC-PVTZ-JKFIT

    Orbital Energies [Eh]
    ---------------------

    Doubly Occupied:

       1A    -15.568734     2A    -15.550543     3A    -11.289981
       4A    -11.281791     5A    -11.278974     6A    -11.263257
       7A    -11.248702     8A    -11.242472     9A    -11.241627
      10A    -11.237452    11A    -11.235937    12A    -11.233159
      13A    -11.219992    14A    -11.218401    15A     -1.263280
      16A     -1.228859    17A     -1.132413    18A     -1.088945
      19A     -1.060607    20A     -0.998835    21A     -0.992800
      22A     -0.915612    23A     -0.871039    24A     -0.859979
      25A     -0.805275    26A     -0.796163    27A     -0.720541
      28A     -0.697636    29A     -0.670782    30A     -0.658155
      31A     -0.649931    32A     -0.621531    33A     -0.608736
      34A     -0.602353    35A     -0.589708    36A     -0.576616
      37A     -0.567982    38A     -0.547214    39A     -0.534472
      40A     -0.529194    41A     -0.504169    42A     -0.496687
      43A     -0.489245    44A     -0.423207    45A     -0.416333
      46A     -0.388101    47A     -0.367494    48A     -0.317492
      49A     -0.279409

  @DF-RHF Final Energy:  -570.48907642621452

   => Energetics <=

    Nuclear Repulsion Energy =            818.5515549509008224
    One-Electron Energy =               -2397.3176317495481271
    Two-Electron Energy =                1008.2770003724326671
    Total Energy =                       -570.4890764262145240
  Basis Set: (AUG-CC-PVTZ AUX)
    Blend: AUG-CC-PVTZ-RI
    Molecular point group: c1

    Geometry (in Angstrom), charge = 0, multiplicity = 1:

       Center              X                  Y                   Z               Mass
    ------------   -----------------  -----------------  -----------------  -----------------
         N            1.019532208057     1.791822216668     0.325463159425    14.003074004430
         N           -1.465747791943     0.865256216668    -0.613405840575    14.003074004430
         C            0.440910208057    -0.542590783332    -0.071818840575    12.000000000000
         C            1.415817208057     0.480356216668     0.097360159425    12.000000000000
         C           -1.011691791943    -0.268513783332    -0.027015840575    12.000000000000
         C            0.862254208057    -1.863867783332    -0.277277840575    12.000000000000
         C            2.772899208057     0.108600216668     0.113634159425    12.000000000000
         C            2.211136208057    -2.213623783332    -0.274802840575    12.000000000000
         C            3.164108208057    -1.216311783332    -0.073167840575    12.000000000000
         C           -1.887570791943    -1.170581783332     0.600760159425    12.000000000000
         C           -3.257303791943    -0.924083783332     0.581133159425    12.000000000000
         C            1.995107208057     2.862694216668     0.254249159425    12.000000000000
         C           -2.789626791943     1.097262216668    -0.610930840575    12.000000000000
         C           -3.723921791943     0.231717216668    -0.044678840575    12.000000000000
         H            0.109720208057    -2.628288783332    -0.462067840575     1.007825032230
         H            3.536431208057     0.866924216668     0.255279159425     1.007825032230
         H            0.133038208057     1.996882216668    -0.128398840575     1.007825032230
         H            2.511755208057    -3.244101783332    -0.444584840575     1.007825032230
         H            4.223574208057    -1.463764783332    -0.064852840575     1.007825032230
         H           -1.488315791943    -2.042504783332     1.110386159425     1.007825032230
         H           -3.947625791943    -1.613655783332     1.061268159425     1.007825032230
         H            2.570423208057     2.870852216668    -0.683881840575     1.007825032230
         H            2.700389208057     2.795866216668     1.088002159425     1.007825032230
         H            1.462019208057     3.811254216668     0.345058159425     1.007825032230
         H           -3.115467791943     1.972882516668    -1.179419140575     1.007825032230
         H           -4.783575791943     0.468049216668    -0.080420840575     1.007825032230

  Basis Set: AUG-CC-PVTZ
    Blend: AUG-CC-PVTZ
  Basis Set: (AUG-CC-PVTZ AUX)
    Blend: AUG-CC-PVTZ-JKFIT
	 Reference Energy          =    -570.4890764262145240 [Eh]
	 Singles Energy            =      -0.0000000000000000 [Eh]
	 Same-Spin Energy          =      -0.6395183151249332 [Eh]
	 Opposite-Spin Energy      =      -1.9765293530323893 [Eh]
	 Correlation Energy        =      -2.6160476681573224 [Eh]
	 Total Energy              =    -573.1051240943718312 [Eh]

	 ================> DF-SCS-MP2 Energies <==================
	-----------------------------------------------------------
	 SCS Same-Spin Scale       =       0.3333333333333333 [-]
	 SCS Opposite-Spin Scale   =       1.2000000000000000 [-]
	 SCS Same-Spin Energy      =      -0.2131727717083111 [Eh]
	 SCS Opposite-Spin Energy  =      -2.3718352236388669 [Eh]
	 SCS Correlation Energy    =      -2.5850079953471781 [Eh]
	 SCS Total Energy          =    -573.0740844215616789 [Eh]
	-----------------------------------------------------------

  Dipole Moment: [D]
     X:    -1.7605      Y:     0.1317      Z:     0.3203     Total:     1.7943

*** Psi4 exiting successfully. Buy a developer a beer!
