                               Psi4 1.4a2.dev612

  ==> Input File <==

--------------------------------------------------------------------------
#psi4
#
memory 32 gb

molecule  {
0 1
  N        0.9996340     1.7721850     0.3204360
  N       -1.4856460     0.8456190    -0.6184330
  C        0.4210120    -0.5622280    -0.0768460
  C        1.3959190     0.4607190     0.0923330
  C       -1.0315900    -0.2881510    -0.0320430
  C        0.8423560    -1.8835050    -0.2823050
  C        2.7530010     0.0889630     0.1086070
  C        2.1912380    -2.2332610    -0.2798300
  C        3.1442100    -1.2359490    -0.0781950
  C       -1.9074690    -1.1902190     0.5957330
  C       -3.2772020    -0.9437210     0.5761060
  C        1.9752090     2.8430570     0.2492220
  C       -2.8095250     1.0776250    -0.6159580
  C       -3.7438200     0.2120800    -0.0497060
  H        0.0898220    -2.6479260    -0.4670950
  H        3.5165330     0.8472870     0.2502520
  H        0.1131400     1.9772450    -0.1334260
  H        2.4918570    -3.2637390    -0.4496120
  H        4.2036760    -1.4834020    -0.0698800
  H       -1.4889590    -1.9312938     1.3175099
  H       -3.9675240    -1.6332930     1.0562410
  H        2.5505250     2.8512150    -0.6889090
  H        2.6804910     2.7762290     1.0829750
  H        1.4421210     3.7916170     0.3400310
  H       -3.1269050     2.0013970    -1.0972120
  H       -4.8034740     0.4484120    -0.0854480
units angstrom
no_reorient  #important for SAPT in psi4, default
symmetry c1  #important for SAPT in psi4, default
}

set PROPERTIES_ORIGIN ["COM"]
properties('MP2/aug-cc-pvtz', properties = ['dipole'])
--------------------------------------------------------------------------

    Molecular point group: c1
  Charge       = 0
  Multiplicity = 1
  Basis Set: AUG-CC-PVTZ
    Blend: AUG-CC-PVTZ
  Basis Set: (AUG-CC-PVTZ AUX)
    Blend: AUG-CC-PVTZ-JKFIT

    Orbital Energies [Eh]
    ---------------------

    Doubly Occupied:

       1A    -15.568770     2A    -15.550684     3A    -11.290363
       4A    -11.281889     5A    -11.279106     6A    -11.263559
       7A    -11.248839     8A    -11.243618     9A    -11.242512
      10A    -11.237102    11A    -11.236069    12A    -11.232783
      13A    -11.219792    14A    -11.217964    15A     -1.263455
      16A     -1.228997    17A     -1.132234    18A     -1.088681
      19A     -1.060265    20A     -0.998662    21A     -0.992621
      22A     -0.915672    23A     -0.870423    24A     -0.859151
      25A     -0.805245    26A     -0.795978    27A     -0.720060
      28A     -0.697372    29A     -0.670574    30A     -0.655313
      31A     -0.649423    32A     -0.620151    33A     -0.609088
      34A     -0.602311    35A     -0.588397    36A     -0.576188
      37A     -0.567701    38A     -0.550551    39A     -0.532545
      40A     -0.526236    41A     -0.502985    42A     -0.498177
      43A     -0.488609    44A     -0.423139    45A     -0.416774
      46A     -0.387813    47A     -0.365598    48A     -0.318099
      49A     -0.279565

  @DF-RHF Final Energy:  -570.48532923554671

   => Energetics <=

    Nuclear Repulsion Energy =            818.4375140150168590
    One-Electron Energy =               -2397.1034796770359208
    Two-Electron Energy =                1008.1806364264723470
    Total Energy =                       -570.4853292355467147
  Basis Set: (AUG-CC-PVTZ AUX)
    Blend: AUG-CC-PVTZ-RI
    Molecular point group: c1

    Geometry (in Angstrom), charge = 0, multiplicity = 1:

       Center              X                  Y                   Z               Mass
    ------------   -----------------  -----------------  -----------------  -----------------
         N            1.019380481435     1.790842311548     0.323824225044    14.003074004430
         N           -1.465899518565     0.864276311548    -0.615044774956    14.003074004430
         C            0.440758481435    -0.543570688452    -0.073457774956    12.000000000000
         C            1.415665481435     0.479376311548     0.095721225044    12.000000000000
         C           -1.011843518565    -0.269493688452    -0.028654774956    12.000000000000
         C            0.862102481435    -1.864847688452    -0.278916774956    12.000000000000
         C            2.772747481435     0.107620311548     0.111995225044    12.000000000000
         C            2.210984481435    -2.214603688452    -0.276441774956    12.000000000000
         C            3.163956481435    -1.217291688452    -0.074806774956    12.000000000000
         C           -1.887722518565    -1.171561688452     0.599121225044    12.000000000000
         C           -3.257455518565    -0.925063688452     0.579494225044    12.000000000000
         C            1.994955481435     2.861714311548     0.252610225044    12.000000000000
         C           -2.789778518565     1.096282311548    -0.612569774956    12.000000000000
         C           -3.724073518565     0.230737311548    -0.046317774956    12.000000000000
         H            0.109568481435    -2.629268688452    -0.463706774956     1.007825032230
         H            3.536279481435     0.865944311548     0.253640225044     1.007825032230
         H            0.132886481435     1.995902311548    -0.130037774956     1.007825032230
         H            2.511603481435    -3.245081688452    -0.446223774956     1.007825032230
         H            4.223422481435    -1.464744688452    -0.066491774956     1.007825032230
         H           -1.469212518565    -1.912636488452     1.320898125044     1.007825032230
         H           -3.947777518565    -1.614635688452     1.059629225044     1.007825032230
         H            2.570271481435     2.869872311548    -0.685520774956     1.007825032230
         H            2.700237481435     2.794886311548     1.086363225044     1.007825032230
         H            1.461867481435     3.810274311548     0.343419225044     1.007825032230
         H           -3.107158518565     2.020054311548    -1.093823774956     1.007825032230
         H           -4.783727518565     0.467069311548    -0.082059774956     1.007825032230

  Basis Set: AUG-CC-PVTZ
    Blend: AUG-CC-PVTZ
  Basis Set: (AUG-CC-PVTZ AUX)
    Blend: AUG-CC-PVTZ-JKFIT
	 Reference Energy          =    -570.4853292355467147 [Eh]
	 Singles Energy            =      -0.0000000000000000 [Eh]
	 Same-Spin Energy          =      -0.6396580116815431 [Eh]
	 Opposite-Spin Energy      =      -1.9768348319833455 [Eh]
	 Correlation Energy        =      -2.6164928436648887 [Eh]
	 Total Energy              =    -573.1018220792116153 [Eh]

	 ================> DF-SCS-MP2 Energies <==================
	-----------------------------------------------------------
	 SCS Same-Spin Scale       =       0.3333333333333333 [-]
	 SCS Opposite-Spin Scale   =       1.2000000000000000 [-]
	 SCS Same-Spin Energy      =      -0.2132193372271810 [Eh]
	 SCS Opposite-Spin Energy  =      -2.3722017983800145 [Eh]
	 SCS Correlation Energy    =      -2.5854211356071954 [Eh]
	 SCS Total Energy          =    -573.0707503711539630 [Eh]
	-----------------------------------------------------------

  Dipole Moment: [D]
     X:    -1.7510      Y:     0.2574      Z:     0.4582     Total:     1.8281

*** Psi4 exiting successfully. Buy a developer a beer!
