                               Psi4 1.3.2 release

  ==> Input File <==

--------------------------------------------------------------------------
#psi4
#
memory 32 gb

molecule  {
0 1
  N       -0.5109270    -0.9518430    -0.0269340
  C        0.4568270    -0.1006020    -0.0211380
  C        1.7238140    -0.5084530    -0.7342290
  C        0.5365850     1.1984977     0.7837524
  C        2.7894260    -0.9991790     0.2510720
  C       -0.1640310     2.3214140    -0.3160410
  C       -1.7763620    -0.6501130     0.6316150
  C       -2.8974570    -0.7179310    -0.4005860
  H        2.1129470     0.3411750    -1.3109330
  H        1.4703830    -1.3072380    -1.4363190
  H       -0.0513810     1.2722970     1.5772600
  H        1.5049820     1.5584610     0.8223980
  H        3.0556910    -0.2252510     0.9773740
  H        2.4162060    -1.8680970     0.7997060
  H        3.7027550    -1.2914870    -0.2753070
  H        0.3474740     2.3390420    -1.2828520
  H       -0.0995980     3.3230440     0.1193210
  H       -1.2176240     2.0946990    -0.4987850
  H       -1.9345560    -1.4260300     1.3901820
  H       -1.8022440     0.3193480     1.1465960
  H       -3.8733410    -0.5778450     0.0742730
  H       -2.7667840     0.0602240    -1.1578580
  H       -2.8841180    -1.6872020    -0.9036440
units angstrom
no_reorient  #important for SAPT in psi4, default
symmetry c1  #important for SAPT in psi4, default
}

set PROPERTIES_ORIGIN ["COM"]
properties('MP2/aug-cc-pvtz', properties = ['dipole'])
--------------------------------------------------------------------------

    Molecular point group: c1
  Charge       = 0
  Multiplicity = 1
  Basis Set: AUG-CC-PVTZ
    Blend: AUG-CC-PVTZ
  Basis Set: (AUG-CC-PVTZ AUX)
    Blend: AUG-CC-PVTZ-JKFIT

    Orbital Energies [Eh]
    ---------------------

    Doubly Occupied:

       1A    -15.535435     2A    -11.275448     3A    -11.240762
       4A    -11.234835     5A    -11.231981     6A    -11.222082
       7A    -11.217622     8A    -11.205748     9A     -1.213794
      10A     -1.062016    11A     -1.011955    12A     -0.991270
      13A     -0.891037    14A     -0.868644    15A     -0.820844
      16A     -0.709655    17A     -0.675816    18A     -0.639361
      19A     -0.603623    20A     -0.591248    21A     -0.585333
      22A     -0.555670    23A     -0.540224    24A     -0.533247
      25A     -0.516768    26A     -0.511468    27A     -0.506828
      28A     -0.484757    29A     -0.474266    30A     -0.468560
      31A     -0.384670    32A     -0.364805

  @DF-RHF Final Energy:  -328.32948056898289

   => Energetics <=

    Nuclear Repulsion Energy =            387.5285142400975928
    One-Electron Energy =               -1211.3764398051077933
    Two-Electron Energy =                 495.5184449960273128
    Total Energy =                       -328.3294805689828877
  Basis Set: (AUG-CC-PVTZ AUX)
    Blend: AUG-CC-PVTZ-RI
    Molecular point group: c1

    Geometry (in Angstrom), charge = 0, multiplicity = 1:

       Center              X                  Y                   Z               Mass
    ------------   -----------------  -----------------  -----------------  -----------------
         N           -0.518456293852    -0.917745767605    -0.044595899896    14.003074004430
         C            0.449297706148    -0.066504767605    -0.038799899896    12.000000000000
         C            1.716284706148    -0.474355767605    -0.751890899896    12.000000000000
         C            0.529055706148     1.232594932395     0.766090500104    12.000000000000
         C            2.781896706148    -0.965081767605     0.233410100104    12.000000000000
         C           -0.171560293852     2.355511232395    -0.333702899896    12.000000000000
         C           -1.783891293852    -0.616015767605     0.613953100104    12.000000000000
         C           -2.904986293852    -0.683833767605    -0.418247899896    12.000000000000
         H            2.105417706148     0.375272232395    -1.328594899896     1.007825032230
         H            1.462853706148    -1.273140767605    -1.453980899896     1.007825032230
         H           -0.058910293852     1.306394232395     1.559598100104     1.007825032230
         H            1.497452706148     1.592558232395     0.804736100104     1.007825032230
         H            3.048161706148    -0.191153767605     0.959712100104     1.007825032230
         H            2.408676706148    -1.833999767605     0.782044100104     1.007825032230
         H            3.695225706148    -1.257389767605    -0.292968899896     1.007825032230
         H            0.339944706148     2.373139232395    -1.300513899896     1.007825032230
         H           -0.107127293852     3.357141232395     0.101659100104     1.007825032230
         H           -1.225153293852     2.128796232395    -0.516446899896     1.007825032230
         H           -1.942085293852    -1.391932767605     1.372520100104     1.007825032230
         H           -1.809773293852     0.353445232395     1.128934100104     1.007825032230
         H           -3.880870293852    -0.543747767605     0.056611100104     1.007825032230
         H           -2.774313293852     0.094321232395    -1.175519899896     1.007825032230
         H           -2.891647293852    -1.653104767605    -0.921305899896     1.007825032230

  Basis Set: AUG-CC-PVTZ
    Blend: AUG-CC-PVTZ
  Basis Set: (AUG-CC-PVTZ AUX)
    Blend: AUG-CC-PVTZ-JKFIT
	 Reference Energy          =    -328.3294805689828877 [Eh]
	 Singles Energy            =      -0.0000000000000000 [Eh]
	 Same-Spin Energy          =      -0.3500475034723649 [Eh]
	 Opposite-Spin Energy      =      -1.2493261511613127 [Eh]
	 Correlation Energy        =      -1.5993736546336776 [Eh]
	 Total Energy              =    -329.9288542236165540 [Eh]

	 ================> DF-SCS-MP2 Energies <==================
	-----------------------------------------------------------
	 SCS Same-Spin Scale       =       0.3333333333333333 [-]
	 SCS Opposite-Spin Scale   =       1.2000000000000000 [-]
	 SCS Same-Spin Energy      =      -0.1166825011574550 [Eh]
	 SCS Opposite-Spin Energy  =      -1.4991913813935753 [Eh]
	 SCS Correlation Energy    =      -1.6158738825510304 [Eh]
	 SCS Total Energy          =    -329.9453544515339445 [Eh]
	-----------------------------------------------------------

  Dipole Moment: [D]
     X:     0.4580      Y:     1.7426      Z:     0.6803     Total:     1.9260

*** Psi4 exiting successfully. Buy a developer a beer!
