                               Psi4 1.3.2 release

  ==> Input File <==

--------------------------------------------------------------------------
#psi4
#
memory 32 gb

molecule  {
0 1
  N       -0.5109270    -0.9518430    -0.0269340
  C        0.4568270    -0.1006020    -0.0211380
  C        1.7238140    -0.5084530    -0.7342290
  C        0.5713450     1.1588346     0.8687147
  C        2.7894260    -0.9991790     0.2510720
  C       -0.1640310     2.3214140    -0.3160410
  C       -1.7763620    -0.6501130     0.6316150
  C       -2.8974570    -0.7179310    -0.4005860
  H        2.1129470     0.3411750    -1.3109330
  H        1.4703830    -1.3072380    -1.4363190
  H       -0.0513810     1.2722970     1.5772600
  H        1.5049820     1.5584610     0.8223980
  H        3.0556910    -0.2252510     0.9773740
  H        2.4162060    -1.8680970     0.7997060
  H        3.7027550    -1.2914870    -0.2753070
  H        0.3474740     2.3390420    -1.2828520
  H       -0.0995980     3.3230440     0.1193210
  H       -1.2176240     2.0946990    -0.4987850
  H       -1.9345560    -1.4260300     1.3901820
  H       -1.8022440     0.3193480     1.1465960
  H       -3.8733410    -0.5778450     0.0742730
  H       -2.7667840     0.0602240    -1.1578580
  H       -2.8841180    -1.6872020    -0.9036440
units angstrom
no_reorient  #important for SAPT in psi4, default
symmetry c1  #important for SAPT in psi4, default
}

set PROPERTIES_ORIGIN ["COM"]
properties('MP2/aug-cc-pvtz', properties = ['dipole'])
--------------------------------------------------------------------------

    Molecular point group: c1
  Charge       = 0
  Multiplicity = 1
  Basis Set: AUG-CC-PVTZ
    Blend: AUG-CC-PVTZ
  Basis Set: (AUG-CC-PVTZ AUX)
    Blend: AUG-CC-PVTZ-JKFIT

    Orbital Energies [Eh]
    ---------------------

    Doubly Occupied:

       1A    -15.533673     2A    -11.278614     3A    -11.240680
       4A    -11.238753     5A    -11.234782     6A    -11.222693
       7A    -11.217743     8A    -11.205305     9A     -1.212755
      10A     -1.060930    11A     -1.007709    12A     -0.990451
      13A     -0.891525    14A     -0.872624    15A     -0.820666
      16A     -0.711861    17A     -0.684657    18A     -0.637186
      19A     -0.607792    20A     -0.591412    21A     -0.583197
      22A     -0.556475    23A     -0.542285    24A     -0.539344
      25A     -0.515948    26A     -0.511606    27A     -0.507755
      28A     -0.485130    29A     -0.471974    30A     -0.451119
      31A     -0.385275    32A     -0.356365

  @DF-RHF Final Energy:  -328.29687879005462

   => Energetics <=

    Nuclear Repulsion Energy =            386.8163407704027463
    One-Electron Energy =               -1209.8898777209010404
    Two-Electron Energy =                 494.7766581604436169
    Total Energy =                       -328.2968787900546204
  Basis Set: (AUG-CC-PVTZ AUX)
    Blend: AUG-CC-PVTZ-RI
    Molecular point group: c1

    Geometry (in Angstrom), charge = 0, multiplicity = 1:

       Center              X                  Y                   Z               Mass
    ------------   -----------------  -----------------  -----------------  -----------------
         N           -0.522143690799    -0.913538241891    -0.053608837915    14.003074004430
         C            0.445610309201    -0.062297241891    -0.047812837915    12.000000000000
         C            1.712597309201    -0.470148241891    -0.760903837915    12.000000000000
         C            0.560128309201     1.197139358109     0.842039862085    12.000000000000
         C            2.778209309201    -0.960874241891     0.224397162085    12.000000000000
         C           -0.175247690799     2.359718758109    -0.342715837915    12.000000000000
         C           -1.787578690799    -0.611808241891     0.604940162085    12.000000000000
         C           -2.908673690799    -0.679626241891    -0.427260837915    12.000000000000
         H            2.101730309201     0.379479758109    -1.337607837915     1.007825032230
         H            1.459166309201    -1.268933241891    -1.462993837915     1.007825032230
         H           -0.062597690799     1.310601758109     1.550585162085     1.007825032230
         H            1.493765309201     1.596765758109     0.795723162085     1.007825032230
         H            3.044474309201    -0.186946241891     0.950699162085     1.007825032230
         H            2.404989309201    -1.829792241891     0.773031162085     1.007825032230
         H            3.691538309201    -1.253182241891    -0.301981837915     1.007825032230
         H            0.336257309201     2.377346758109    -1.309526837915     1.007825032230
         H           -0.110814690799     3.361348758109     0.092646162085     1.007825032230
         H           -1.228840690799     2.133003758109    -0.525459837915     1.007825032230
         H           -1.945772690799    -1.387725241891     1.363507162085     1.007825032230
         H           -1.813460690799     0.357652758109     1.119921162085     1.007825032230
         H           -3.884557690799    -0.539540241891     0.047598162085     1.007825032230
         H           -2.778000690799     0.098528758109    -1.184532837915     1.007825032230
         H           -2.895334690799    -1.648897241891    -0.930318837915     1.007825032230

  Basis Set: AUG-CC-PVTZ
    Blend: AUG-CC-PVTZ
  Basis Set: (AUG-CC-PVTZ AUX)
    Blend: AUG-CC-PVTZ-JKFIT
	 Reference Energy          =    -328.2968787900546204 [Eh]
	 Singles Energy            =      -0.0000000000000000 [Eh]
	 Same-Spin Energy          =      -0.3508943017235546 [Eh]
	 Opposite-Spin Energy      =      -1.2517378480688919 [Eh]
	 Correlation Energy        =      -1.6026321497924465 [Eh]
	 Total Energy              =    -329.8995109398470618 [Eh]

	 ================> DF-SCS-MP2 Energies <==================
	-----------------------------------------------------------
	 SCS Same-Spin Scale       =       0.3333333333333333 [-]
	 SCS Opposite-Spin Scale   =       1.2000000000000000 [-]
	 SCS Same-Spin Energy      =      -0.1169647672411848 [Eh]
	 SCS Opposite-Spin Energy  =      -1.5020854176826701 [Eh]
	 SCS Correlation Energy    =      -1.6190501849238550 [Eh]
	 SCS Total Energy          =    -329.9159289749784989 [Eh]
	-----------------------------------------------------------

  Dipole Moment: [D]
     X:     0.4751      Y:     1.7781      Z:     0.6759     Total:     1.9607

*** Psi4 exiting successfully. Buy a developer a beer!
