                               Psi4 1.3.2 release

  ==> Input File <==

--------------------------------------------------------------------------
#psi4
#
memory 32 gb

molecule  {
0 1
  N       -0.5109270    -0.9518430    -0.0269340
  C        0.4568270    -0.1006020    -0.0211380
  C        1.7238140    -0.5084530    -0.7342290
  C        0.5539650     1.1786662     0.8262336
  C        2.7894260    -0.9991790     0.2510720
  C       -0.1640310     2.3214140    -0.3160410
  C       -1.7763620    -0.6501130     0.6316150
  C       -2.8974570    -0.7179310    -0.4005860
  H        2.1129470     0.3411750    -1.3109330
  H        1.4703830    -1.3072380    -1.4363190
  H       -0.0513810     1.2722970     1.5772600
  H        1.5049820     1.5584610     0.8223980
  H        3.0556910    -0.2252510     0.9773740
  H        2.4162060    -1.8680970     0.7997060
  H        3.7027550    -1.2914870    -0.2753070
  H        0.3474740     2.3390420    -1.2828520
  H       -0.0995980     3.3230440     0.1193210
  H       -1.2176240     2.0946990    -0.4987850
  H       -1.9345560    -1.4260300     1.3901820
  H       -1.8022440     0.3193480     1.1465960
  H       -3.8733410    -0.5778450     0.0742730
  H       -2.7667840     0.0602240    -1.1578580
  H       -2.8841180    -1.6872020    -0.9036440
units angstrom
no_reorient  #important for SAPT in psi4, default
symmetry c1  #important for SAPT in psi4, default
}

set PROPERTIES_ORIGIN ["COM"]
properties('MP2/aug-cc-pvtz', properties = ['dipole'])
--------------------------------------------------------------------------

    Molecular point group: c1
  Charge       = 0
  Multiplicity = 1
  Basis Set: AUG-CC-PVTZ
    Blend: AUG-CC-PVTZ
  Basis Set: (AUG-CC-PVTZ AUX)
    Blend: AUG-CC-PVTZ-JKFIT

    Orbital Energies [Eh]
    ---------------------

    Doubly Occupied:

       1A    -15.534556     2A    -11.276933     3A    -11.240724
       4A    -11.236769     5A    -11.233089     6A    -11.222376
       7A    -11.217694     8A    -11.205523     9A     -1.213280
      10A     -1.061438    11A     -1.009624    12A     -0.990856
      13A     -0.891182    14A     -0.870749    15A     -0.820756
      16A     -0.710771    17A     -0.680253    18A     -0.638324
      19A     -0.605756    20A     -0.591359    21A     -0.584269
      22A     -0.555973    23A     -0.541103    24A     -0.536775
      25A     -0.516340    26A     -0.511534    27A     -0.507471
      28A     -0.484958    29A     -0.472287    30A     -0.460325
      31A     -0.385143    32A     -0.360727

  @DF-RHF Final Energy:  -328.31421406243368

   => Energetics <=

    Nuclear Repulsion Energy =            387.1809662219448569
    One-Electron Energy =               -1210.6525292750404788
    Two-Electron Energy =                 495.1573489906620011
    Total Energy =                       -328.3142140624336776
  Basis Set: (AUG-CC-PVTZ AUX)
    Blend: AUG-CC-PVTZ-RI
    Molecular point group: c1

    Geometry (in Angstrom), charge = 0, multiplicity = 1:

       Center              X                  Y                   Z               Mass
    ------------   -----------------  -----------------  -----------------  -----------------
         N           -0.520299992326    -0.915642010052    -0.049102374210    14.003074004430
         C            0.447454007674    -0.064401010052    -0.043306374210    12.000000000000
         C            1.714441007674    -0.472252010052    -0.756397374210    12.000000000000
         C            0.544592007674     1.214867189948     0.804065225790    12.000000000000
         C            2.780053007674    -0.962978010052     0.228903625790    12.000000000000
         C           -0.173403992326     2.357614989948    -0.338209374210    12.000000000000
         C           -1.785734992326    -0.613912010052     0.609446625790    12.000000000000
         C           -2.906829992326    -0.681730010052    -0.422754374210    12.000000000000
         H            2.103574007674     0.377375989948    -1.333101374210     1.007825032230
         H            1.461010007674    -1.271037010052    -1.458487374210     1.007825032230
         H           -0.060753992326     1.308497989948     1.555091625790     1.007825032230
         H            1.495609007674     1.594661989948     0.800229625790     1.007825032230
         H            3.046318007674    -0.189050010052     0.955205625790     1.007825032230
         H            2.406833007674    -1.831896010052     0.777537625790     1.007825032230
         H            3.693382007674    -1.255286010052    -0.297475374210     1.007825032230
         H            0.338101007674     2.375242989948    -1.305020374210     1.007825032230
         H           -0.108970992326     3.359244989948     0.097152625790     1.007825032230
         H           -1.226996992326     2.130899989948    -0.520953374210     1.007825032230
         H           -1.943928992326    -1.389829010052     1.368013625790     1.007825032230
         H           -1.811616992326     0.355548989948     1.124427625790     1.007825032230
         H           -3.882713992326    -0.541644010052     0.052104625790     1.007825032230
         H           -2.776156992326     0.096424989948    -1.180026374210     1.007825032230
         H           -2.893490992326    -1.651001010052    -0.925812374210     1.007825032230

  Basis Set: AUG-CC-PVTZ
    Blend: AUG-CC-PVTZ
  Basis Set: (AUG-CC-PVTZ AUX)
    Blend: AUG-CC-PVTZ-JKFIT
	 Reference Energy          =    -328.3142140624336776 [Eh]
	 Singles Energy            =      -0.0000000000000000 [Eh]
	 Same-Spin Energy          =      -0.3504146737237417 [Eh]
	 Opposite-Spin Energy      =      -1.2503893676472324 [Eh]
	 Correlation Energy        =      -1.6008040413709741 [Eh]
	 Total Energy              =    -329.9150181038046412 [Eh]

	 ================> DF-SCS-MP2 Energies <==================
	-----------------------------------------------------------
	 SCS Same-Spin Scale       =       0.3333333333333333 [-]
	 SCS Opposite-Spin Scale   =       1.2000000000000000 [-]
	 SCS Same-Spin Energy      =      -0.1168048912412472 [Eh]
	 SCS Opposite-Spin Energy  =      -1.5004672411766788 [Eh]
	 SCS Correlation Energy    =      -1.6172721324179260 [Eh]
	 SCS Total Energy          =    -329.9314861948516295 [Eh]
	-----------------------------------------------------------

  Dipole Moment: [D]
     X:     0.4686      Y:     1.7584      Z:     0.6816     Total:     1.9433

*** Psi4 exiting successfully. Buy a developer a beer!
