                               Psi4 1.3.2 release

  ==> Input File <==

--------------------------------------------------------------------------
#psi4
#
memory 32 gb

molecule  {
0 1
  N       -0.5109270    -0.9518430    -0.0269340
  C        0.4568270    -0.1006020    -0.0211380
  C        1.7238140    -0.5084530    -0.7342290
  C        0.5192050     1.2183293     0.7412713
  C        2.7894260    -0.9991790     0.2510720
  C       -0.1640310     2.3214140    -0.3160410
  C       -1.7763620    -0.6501130     0.6316150
  C       -2.8974570    -0.7179310    -0.4005860
  H        2.1129470     0.3411750    -1.3109330
  H        1.4703830    -1.3072380    -1.4363190
  H       -0.0513810     1.2722970     1.5772600
  H        1.5049820     1.5584610     0.8223980
  H        3.0556910    -0.2252510     0.9773740
  H        2.4162060    -1.8680970     0.7997060
  H        3.7027550    -1.2914870    -0.2753070
  H        0.3474740     2.3390420    -1.2828520
  H       -0.0995980     3.3230440     0.1193210
  H       -1.2176240     2.0946990    -0.4987850
  H       -1.9345560    -1.4260300     1.3901820
  H       -1.8022440     0.3193480     1.1465960
  H       -3.8733410    -0.5778450     0.0742730
  H       -2.7667840     0.0602240    -1.1578580
  H       -2.8841180    -1.6872020    -0.9036440
units angstrom
no_reorient  #important for SAPT in psi4, default
symmetry c1  #important for SAPT in psi4, default
}

set PROPERTIES_ORIGIN ["COM"]
properties('MP2/aug-cc-pvtz', properties = ['dipole'])
--------------------------------------------------------------------------

    Molecular point group: c1
  Charge       = 0
  Multiplicity = 1
  Basis Set: AUG-CC-PVTZ
    Blend: AUG-CC-PVTZ
  Basis Set: (AUG-CC-PVTZ AUX)
    Blend: AUG-CC-PVTZ-JKFIT

    Orbital Energies [Eh]
    ---------------------

    Doubly Occupied:

       1A    -15.536305     2A    -11.274207     3A    -11.240795
       4A    -11.232903     5A    -11.231499     6A    -11.221825
       7A    -11.217539     8A    -11.205978     9A     -1.214301
      10A     -1.062719    11A     -1.014794    12A     -0.991685
      13A     -0.891044    14A     -0.866335    15A     -0.820936
      16A     -0.708473    17A     -0.671682    18A     -0.640311
      19A     -0.601671    20A     -0.591061    21A     -0.586456
      22A     -0.555625    23A     -0.539483    24A     -0.529125
      25A     -0.517289    26A     -0.511441    27A     -0.505535
      28A     -0.485067    29A     -0.481962    30A     -0.470725
      31A     -0.383904    32A     -0.368581

  @DF-RHF Final Energy:  -328.34212241509533

   => Energetics <=

    Nuclear Repulsion Energy =            387.8612269972870195
    One-Electron Energy =               -1212.0641861413221250
    Two-Electron Energy =                 495.8608367289397165
    Total Energy =                       -328.3421224150953321
  Basis Set: (AUG-CC-PVTZ AUX)
    Blend: AUG-CC-PVTZ-RI
    Molecular point group: c1

    Geometry (in Angstrom), charge = 0, multiplicity = 1:

       Center              X                  Y                   Z               Mass
    ------------   -----------------  -----------------  -----------------  -----------------
         N           -0.516612595379    -0.919849535766    -0.040089436190    14.003074004430
         C            0.451141404621    -0.068608535766    -0.034293436190    12.000000000000
         C            1.718128404621    -0.476459535766    -0.747384436190    12.000000000000
         C            0.513519404621     1.250322764234     0.728115863810    12.000000000000
         C            2.783740404621    -0.967185535766     0.237916563810    12.000000000000
         C           -0.169716595379     2.353407464234    -0.329196436190    12.000000000000
         C           -1.782047595379    -0.618119535766     0.618459563810    12.000000000000
         C           -2.903142595379    -0.685937535766    -0.413741436190    12.000000000000
         H            2.107261404621     0.373168464234    -1.324088436190     1.007825032230
         H            1.464697404621    -1.275244535766    -1.449474436190     1.007825032230
         H           -0.057066595379     1.304290464234     1.564104563810     1.007825032230
         H            1.499296404621     1.590454464234     0.809242563810     1.007825032230
         H            3.050005404621    -0.193257535766     0.964218563810     1.007825032230
         H            2.410520404621    -1.836103535766     0.786550563810     1.007825032230
         H            3.697069404621    -1.259493535766    -0.288462436190     1.007825032230
         H            0.341788404621     2.371035464234    -1.296007436190     1.007825032230
         H           -0.105283595379     3.355037464234     0.106165563810     1.007825032230
         H           -1.223309595379     2.126692464234    -0.511940436190     1.007825032230
         H           -1.940241595379    -1.394036535766     1.377026563810     1.007825032230
         H           -1.807929595379     0.351341464234     1.133440563810     1.007825032230
         H           -3.879026595379    -0.545851535766     0.061117563810     1.007825032230
         H           -2.772469595379     0.092217464234    -1.171013436190     1.007825032230
         H           -2.889803595379    -1.655208535766    -0.916799436190     1.007825032230

  Basis Set: AUG-CC-PVTZ
    Blend: AUG-CC-PVTZ
  Basis Set: (AUG-CC-PVTZ AUX)
    Blend: AUG-CC-PVTZ-JKFIT
	 Reference Energy          =    -328.3421224150953321 [Eh]
	 Singles Energy            =      -0.0000000000000000 [Eh]
	 Same-Spin Energy          =      -0.3497999313051658 [Eh]
	 Opposite-Spin Energy      =      -1.2485522192909813 [Eh]
	 Correlation Energy        =      -1.5983521505961471 [Eh]
	 Total Energy              =    -329.9404745656914884 [Eh]

	 ================> DF-SCS-MP2 Energies <==================
	-----------------------------------------------------------
	 SCS Same-Spin Scale       =       0.3333333333333333 [-]
	 SCS Opposite-Spin Scale   =       1.2000000000000000 [-]
	 SCS Same-Spin Energy      =      -0.1165999771017219 [Eh]
	 SCS Opposite-Spin Energy  =      -1.4982626631491776 [Eh]
	 SCS Correlation Energy    =      -1.6148626402508994 [Eh]
	 SCS Total Energy          =    -329.9569850553462516 [Eh]
	-----------------------------------------------------------

  Dipole Moment: [D]
     X:     0.4441      Y:     1.7298      Z:     0.6726     Total:     1.9084

*** Psi4 exiting successfully. Buy a developer a beer!
