                               Psi4 1.3.2 release

  ==> Input File <==

--------------------------------------------------------------------------
#psi4
#
memory 32 gb

molecule  {
0 1
  N       -0.5109270    -0.9518430    -0.0269340
  C        0.4568270    -0.1006020    -0.0211380
  C        1.7238140    -0.5084530    -0.7342290
  C        0.4670650     1.2778240     0.6138280
  C        2.7894260    -0.9991790     0.2510720
  C       -0.1640310     2.3214140    -0.3160410
  C       -1.7763620    -0.6501130     0.6316150
  C       -2.8974570    -0.7179310    -0.4005860
  H        2.1129470     0.3411750    -1.3109330
  H        1.4703830    -1.3072380    -1.4363190
  H       -0.0513810     1.2722970     1.5772600
  H        1.5049820     1.5584610     0.8223980
  H        3.0556910    -0.2252510     0.9773740
  H        2.4162060    -1.8680970     0.7997060
  H        3.7027550    -1.2914870    -0.2753070
  H        0.3474740     2.3390420    -1.2828520
  H       -0.0995980     3.3230440     0.1193210
  H       -1.2176240     2.0946990    -0.4987850
  H       -1.9345560    -1.4260300     1.3901820
  H       -1.8022440     0.3193480     1.1465960
  H       -3.8733410    -0.5778450     0.0742730
  H       -2.7667840     0.0602240    -1.1578580
  H       -2.8841180    -1.6872020    -0.9036440
units angstrom
no_reorient  #important for SAPT in psi4, default
symmetry c1  #important for SAPT in psi4, default
}

set PROPERTIES_ORIGIN ["COM"]
properties('MP2/aug-cc-pvtz', properties = ['dipole'])
--------------------------------------------------------------------------

    Molecular point group: c1
  Charge       = 0
  Multiplicity = 1
  Basis Set: AUG-CC-PVTZ
    Blend: AUG-CC-PVTZ
  Basis Set: (AUG-CC-PVTZ AUX)
    Blend: AUG-CC-PVTZ-JKFIT

    Orbital Energies [Eh]
    ---------------------

    Doubly Occupied:

       1A    -15.538812     2A    -11.272303     3A    -11.240890
       4A    -11.234051     5A    -11.226647     6A    -11.221364
       7A    -11.217269     8A    -11.206694     9A     -1.215826
      10A     -1.066605    11A     -1.026878    12A     -0.992860
      13A     -0.891591    14A     -0.858289    15A     -0.821256
      16A     -0.704653    17A     -0.662547    18A     -0.642944
      19A     -0.599205    20A     -0.591557    21A     -0.589884
      22A     -0.558120    23A     -0.540120    24A     -0.522690
      25A     -0.519806    26A     -0.511968    27A     -0.508564
      28A     -0.488220    29A     -0.482244    30A     -0.470517
      31A     -0.380122    32A     -0.378165

  @DF-RHF Final Energy:  -328.35907686587581

   => Energetics <=

    Nuclear Repulsion Energy =            388.7958847035498025
    One-Electron Energy =               -1213.9446033412532415
    Two-Electron Energy =                 496.7896417718276894
    Total Energy =                       -328.3590768658758066
  Basis Set: (AUG-CC-PVTZ AUX)
    Blend: AUG-CC-PVTZ-RI
    Molecular point group: c1

    Geometry (in Angstrom), charge = 0, multiplicity = 1:

       Center              X                  Y                   Z               Mass
    ------------   -----------------  -----------------  -----------------  -----------------
         N           -0.511081499960    -0.926160829641    -0.026570045072    14.003074004430
         C            0.456672500040    -0.074919829641    -0.020774045072    12.000000000000
         C            1.723659500040    -0.482770829641    -0.733865045072    12.000000000000
         C            0.466910500040     1.303506170359     0.614191954928    12.000000000000
         C            2.789271500040    -0.973496829641     0.251435954928    12.000000000000
         C           -0.164185499960     2.347096170359    -0.315677045072    12.000000000000
         C           -1.776516499960    -0.624430829641     0.631978954928    12.000000000000
         C           -2.897611499960    -0.692248829641    -0.400222045072    12.000000000000
         H            2.112792500040     0.366857170359    -1.310569045072     1.007825032230
         H            1.470228500040    -1.281555829641    -1.435955045072     1.007825032230
         H           -0.051535499960     1.297979170359     1.577623954928     1.007825032230
         H            1.504827500040     1.584143170359     0.822761954928     1.007825032230
         H            3.055536500040    -0.199568829641     0.977737954928     1.007825032230
         H            2.416051500040    -1.842414829641     0.800069954928     1.007825032230
         H            3.702600500040    -1.265804829641    -0.274943045072     1.007825032230
         H            0.347319500040     2.364724170359    -1.282488045072     1.007825032230
         H           -0.099752499960     3.348726170359     0.119684954928     1.007825032230
         H           -1.217778499960     2.120381170359    -0.498421045072     1.007825032230
         H           -1.934710499960    -1.400347829641     1.390545954928     1.007825032230
         H           -1.802398499960     0.345030170359     1.146959954928     1.007825032230
         H           -3.873495499960    -0.552162829641     0.074636954928     1.007825032230
         H           -2.766938499960     0.085906170359    -1.157494045072     1.007825032230
         H           -2.884272499960    -1.661519829641    -0.903280045072     1.007825032230

  Basis Set: AUG-CC-PVTZ
    Blend: AUG-CC-PVTZ
  Basis Set: (AUG-CC-PVTZ AUX)
    Blend: AUG-CC-PVTZ-JKFIT
	 Reference Energy          =    -328.3590768658758066 [Eh]
	 Singles Energy            =      -0.0000000000000000 [Eh]
	 Same-Spin Energy          =      -0.3498517816921713 [Eh]
	 Opposite-Spin Energy      =      -1.2480022335763745 [Eh]
	 Correlation Energy        =      -1.5978540152685459 [Eh]
	 Total Energy              =    -329.9569308811443307 [Eh]

	 ================> DF-SCS-MP2 Energies <==================
	-----------------------------------------------------------
	 SCS Same-Spin Scale       =       0.3333333333333333 [-]
	 SCS Opposite-Spin Scale   =       1.2000000000000000 [-]
	 SCS Same-Spin Energy      =      -0.1166172605640571 [Eh]
	 SCS Opposite-Spin Energy  =      -1.4976026802916493 [Eh]
	 SCS Correlation Energy    =      -1.6142199408557065 [Eh]
	 SCS Total Energy          =    -329.9732968067315255 [Eh]
	-----------------------------------------------------------

  Dipole Moment: [D]
     X:     0.3884      Y:     1.7032      Z:     0.6146     Total:     1.8519

*** Psi4 exiting successfully. Buy a developer a beer!
