                               Psi4 1.3.2 release

  ==> Input File <==

--------------------------------------------------------------------------
#psi4
#
memory 32 gb

molecule  {
0 1
  N       -0.5109270    -0.9518430    -0.0269340
  C        0.4568270    -0.1006020    -0.0211380
  C        1.7238140    -0.5084530    -0.7342290
  C        0.4844450     1.2579924     0.6563091
  C        2.7894260    -0.9991790     0.2510720
  C       -0.1640310     2.3214140    -0.3160410
  C       -1.7763620    -0.6501130     0.6316150
  C       -2.8974570    -0.7179310    -0.4005860
  H        2.1129470     0.3411750    -1.3109330
  H        1.4703830    -1.3072380    -1.4363190
  H       -0.0513810     1.2722970     1.5772600
  H        1.5049820     1.5584610     0.8223980
  H        3.0556910    -0.2252510     0.9773740
  H        2.4162060    -1.8680970     0.7997060
  H        3.7027550    -1.2914870    -0.2753070
  H        0.3474740     2.3390420    -1.2828520
  H       -0.0995980     3.3230440     0.1193210
  H       -1.2176240     2.0946990    -0.4987850
  H       -1.9345560    -1.4260300     1.3901820
  H       -1.8022440     0.3193480     1.1465960
  H       -3.8733410    -0.5778450     0.0742730
  H       -2.7667840     0.0602240    -1.1578580
  H       -2.8841180    -1.6872020    -0.9036440
units angstrom
no_reorient  #important for SAPT in psi4, default
symmetry c1  #important for SAPT in psi4, default
}

set PROPERTIES_ORIGIN ["COM"]
properties('MP2/aug-cc-pvtz', properties = ['dipole'])
--------------------------------------------------------------------------

    Molecular point group: c1
  Charge       = 0
  Multiplicity = 1
  Basis Set: AUG-CC-PVTZ
    Blend: AUG-CC-PVTZ
  Basis Set: (AUG-CC-PVTZ AUX)
    Blend: AUG-CC-PVTZ-JKFIT

    Orbital Energies [Eh]
    ---------------------

    Doubly Occupied:

       1A    -15.537999     2A    -11.272608     3A    -11.240857
       4A    -11.232580     5A    -11.228795     6A    -11.221458
       7A    -11.217359     8A    -11.206452     9A     -1.215314
      10A     -1.064853    11A     -1.022261    12A     -0.992486
      13A     -0.891353    14A     -0.861154    15A     -0.821140
      16A     -0.705932    17A     -0.665001    18A     -0.642064
      19A     -0.599331    20A     -0.590590    21A     -0.589151
      22A     -0.556646    23A     -0.538847    24A     -0.522266
      25A     -0.519404    26A     -0.511654    27A     -0.504588
      28A     -0.494352    29A     -0.483179    30A     -0.470893
      31A     -0.381609    32A     -0.375252

  @DF-RHF Final Energy:  -328.35742464512111

   => Energetics <=

    Nuclear Repulsion Energy =            388.4921846621243162
    One-Electron Energy =               -1213.3443679842957863
    Two-Electron Energy =                 496.4947586770502994
    Total Energy =                       -328.3574246451211138
  Basis Set: (AUG-CC-PVTZ AUX)
    Blend: AUG-CC-PVTZ-RI
    Molecular point group: c1

    Geometry (in Angstrom), charge = 0, multiplicity = 1:

       Center              X                  Y                   Z               Mass
    ------------   -----------------  -----------------  -----------------  -----------------
         N           -0.512925198433    -0.924057061480    -0.031076508778    14.003074004430
         C            0.454828801567    -0.072816061480    -0.025280508778    12.000000000000
         C            1.721815801567    -0.480667061480    -0.738371508778    12.000000000000
         C            0.482446801567     1.285778338520     0.652166591222    12.000000000000
         C            2.787427801567    -0.971393061480     0.246929491222    12.000000000000
         C           -0.166029198433     2.349199938520    -0.320183508778    12.000000000000
         C           -1.778360198433    -0.622327061480     0.627472491222    12.000000000000
         C           -2.899455198433    -0.690145061480    -0.404728508778    12.000000000000
         H            2.110948801567     0.368960938520    -1.315075508778     1.007825032230
         H            1.468384801567    -1.279452061480    -1.440461508778     1.007825032230
         H           -0.053379198433     1.300082938520     1.573117491222     1.007825032230
         H            1.502983801567     1.586246938520     0.818255491222     1.007825032230
         H            3.053692801567    -0.197465061480     0.973231491222     1.007825032230
         H            2.414207801567    -1.840311061480     0.795563491222     1.007825032230
         H            3.700756801567    -1.263701061480    -0.279449508778     1.007825032230
         H            0.345475801567     2.366827938520    -1.286994508778     1.007825032230
         H           -0.101596198433     3.350829938520     0.115178491222     1.007825032230
         H           -1.219622198433     2.122484938520    -0.502927508778     1.007825032230
         H           -1.936554198433    -1.398244061480     1.386039491222     1.007825032230
         H           -1.804242198433     0.347133938520     1.142453491222     1.007825032230
         H           -3.875339198433    -0.550059061480     0.070130491222     1.007825032230
         H           -2.768782198433     0.088009938520    -1.162000508778     1.007825032230
         H           -2.886116198433    -1.659416061480    -0.907786508778     1.007825032230

  Basis Set: AUG-CC-PVTZ
    Blend: AUG-CC-PVTZ
  Basis Set: (AUG-CC-PVTZ AUX)
    Blend: AUG-CC-PVTZ-JKFIT
	 Reference Energy          =    -328.3574246451211138 [Eh]
	 Singles Energy            =      -0.0000000000000000 [Eh]
	 Same-Spin Energy          =      -0.3496940263441465 [Eh]
	 Opposite-Spin Energy      =      -1.2478871597044519 [Eh]
	 Correlation Energy        =      -1.5975811860485982 [Eh]
	 Total Energy              =    -329.9550058311697285 [Eh]

	 ================> DF-SCS-MP2 Energies <==================
	-----------------------------------------------------------
	 SCS Same-Spin Scale       =       0.3333333333333333 [-]
	 SCS Opposite-Spin Scale   =       1.2000000000000000 [-]
	 SCS Same-Spin Energy      =      -0.1165646754480488 [Eh]
	 SCS Opposite-Spin Energy  =      -1.4974645916453422 [Eh]
	 SCS Correlation Energy    =      -1.6140292670933909 [Eh]
	 SCS Total Energy          =    -329.9714539122144856 [Eh]
	-----------------------------------------------------------

  Dipole Moment: [D]
     X:     0.4090      Y:     1.7105      Z:     0.6397     Total:     1.8715

*** Psi4 exiting successfully. Buy a developer a beer!
