                               Psi4 1.3.2 release

  ==> Input File <==

--------------------------------------------------------------------------
#psi4
#
memory 32 gb

molecule  {
0 1
  N       -0.5109270    -0.9518430    -0.0269340
  C        0.4568270    -0.1006020    -0.0211380
  C        1.7238140    -0.5084530    -0.7342290
  C        0.5018250     1.2381609     0.6987902
  C        2.7894260    -0.9991790     0.2510720
  C       -0.1640310     2.3214140    -0.3160410
  C       -1.7763620    -0.6501130     0.6316150
  C       -2.8974570    -0.7179310    -0.4005860
  H        2.1129470     0.3411750    -1.3109330
  H        1.4703830    -1.3072380    -1.4363190
  H       -0.0513810     1.2722970     1.5772600
  H        1.5049820     1.5584610     0.8223980
  H        3.0556910    -0.2252510     0.9773740
  H        2.4162060    -1.8680970     0.7997060
  H        3.7027550    -1.2914870    -0.2753070
  H        0.3474740     2.3390420    -1.2828520
  H       -0.0995980     3.3230440     0.1193210
  H       -1.2176240     2.0946990    -0.4987850
  H       -1.9345560    -1.4260300     1.3901820
  H       -1.8022440     0.3193480     1.1465960
  H       -3.8733410    -0.5778450     0.0742730
  H       -2.7667840     0.0602240    -1.1578580
  H       -2.8841180    -1.6872020    -0.9036440
units angstrom
no_reorient  #important for SAPT in psi4, default
symmetry c1  #important for SAPT in psi4, default
}

set PROPERTIES_ORIGIN ["COM"]
properties('MP2/aug-cc-pvtz', properties = ['dipole'])
--------------------------------------------------------------------------

    Molecular point group: c1
  Charge       = 0
  Multiplicity = 1
  Basis Set: AUG-CC-PVTZ
    Blend: AUG-CC-PVTZ
  Basis Set: (AUG-CC-PVTZ AUX)
    Blend: AUG-CC-PVTZ-JKFIT

    Orbital Energies [Eh]
    ---------------------

    Doubly Occupied:

       1A    -15.537161     2A    -11.273250     3A    -11.240826
       4A    -11.231767     5A    -11.230831     6A    -11.221614
       7A    -11.217449     8A    -11.206213     9A     -1.214807
      10A     -1.063624    11A     -1.018219    12A     -0.992093
      13A     -0.891160    14A     -0.863835    15A     -0.821034
      16A     -0.707223    17A     -0.668049    18A     -0.641201
      19A     -0.600177    20A     -0.590802    21A     -0.587715
      22A     -0.555908    23A     -0.538915    24A     -0.525118
      25A     -0.518058    26A     -0.511489    27A     -0.503472
      28A     -0.492173    29A     -0.483621    30A     -0.470967
      31A     -0.382877    32A     -0.372058

  @DF-RHF Final Energy:  -328.35160728252225

   => Energetics <=

    Nuclear Repulsion Energy =            388.1815680509120057
    One-Electron Energy =               -1212.7189355123418864
    Two-Electron Energy =                 496.1857601789076284
    Total Energy =                       -328.3516072825222523
  Basis Set: (AUG-CC-PVTZ AUX)
    Blend: AUG-CC-PVTZ-RI
    Molecular point group: c1

    Geometry (in Angstrom), charge = 0, multiplicity = 1:

       Center              X                  Y                   Z               Mass
    ------------   -----------------  -----------------  -----------------  -----------------
         N           -0.514768896906    -0.921953303927    -0.035582972484    14.003074004430
         C            0.452985103094    -0.070712303927    -0.029786972484    12.000000000000
         C            1.719972103094    -0.478563303927    -0.742877972484    12.000000000000
         C            0.497983103094     1.268050596073     0.690141227516    12.000000000000
         C            2.785584103094    -0.969289303927     0.242423027516    12.000000000000
         C           -0.167872896906     2.351303696073    -0.324689972484    12.000000000000
         C           -1.780203896906    -0.620223303927     0.622966027516    12.000000000000
         C           -2.901298896906    -0.688041303927    -0.409234972484    12.000000000000
         H            2.109105103094     0.371064696073    -1.319581972484     1.007825032230
         H            1.466541103094    -1.277348303927    -1.444967972484     1.007825032230
         H           -0.055222896906     1.302186696073     1.568611027516     1.007825032230
         H            1.501140103094     1.588350696073     0.813749027516     1.007825032230
         H            3.051849103094    -0.195361303927     0.968725027516     1.007825032230
         H            2.412364103094    -1.838207303927     0.791057027516     1.007825032230
         H            3.698913103094    -1.261597303927    -0.283955972484     1.007825032230
         H            0.343632103094     2.368931696073    -1.291500972484     1.007825032230
         H           -0.103439896906     3.352933696073     0.110672027516     1.007825032230
         H           -1.221465896906     2.124588696073    -0.507433972484     1.007825032230
         H           -1.938397896906    -1.396140303927     1.381533027516     1.007825032230
         H           -1.806085896906     0.349237696073     1.137947027516     1.007825032230
         H           -3.877182896906    -0.547955303927     0.065624027516     1.007825032230
         H           -2.770625896906     0.090113696073    -1.166506972484     1.007825032230
         H           -2.887959896906    -1.657312303927    -0.912292972484     1.007825032230

  Basis Set: AUG-CC-PVTZ
    Blend: AUG-CC-PVTZ
  Basis Set: (AUG-CC-PVTZ AUX)
    Blend: AUG-CC-PVTZ-JKFIT
	 Reference Energy          =    -328.3516072825222523 [Eh]
	 Singles Energy            =      -0.0000000000000000 [Eh]
	 Same-Spin Energy          =      -0.3496794820032447 [Eh]
	 Opposite-Spin Energy      =      -1.2480714760343035 [Eh]
	 Correlation Energy        =      -1.5977509580375482 [Eh]
	 Total Energy              =    -329.9493582405597749 [Eh]

	 ================> DF-SCS-MP2 Energies <==================
	-----------------------------------------------------------
	 SCS Same-Spin Scale       =       0.3333333333333333 [-]
	 SCS Opposite-Spin Scale   =       1.2000000000000000 [-]
	 SCS Same-Spin Energy      =      -0.1165598273344149 [Eh]
	 SCS Opposite-Spin Energy  =      -1.4976857712411642 [Eh]
	 SCS Correlation Energy    =      -1.6142455985755790 [Eh]
	 SCS Total Energy          =    -329.9658528810978169 [Eh]
	-----------------------------------------------------------

  Dipole Moment: [D]
     X:     0.4276      Y:     1.7193      Z:     0.6590     Total:     1.8902

*** Psi4 exiting successfully. Buy a developer a beer!
