                               Psi4 1.3.2 release

  ==> Input File <==

--------------------------------------------------------------------------
#psi4
#
memory 32 gb

molecule  {
0 1
  C        0.8191550    -0.4245250     0.5665810
  C       -0.5818120    -0.1153060     0.1025600
  C        1.8983300     0.0792340    -0.3972690
  C       -0.9498395     1.3674157     0.0646226
  C       -1.4389170    -1.0909370    -0.2348790
  H        0.9804000     0.0283030     1.5544360
  H        0.9238870    -1.5076770     0.6953830
  H        1.8814520     1.1684930    -0.4869170
  H        2.8944040    -0.2098860    -0.0492480
  H        1.7478260    -0.3461330    -1.3936640
  H       -2.0210720     1.4533360    -0.2415290
  H       -0.8043560     1.8316700     0.9936370
  H       -0.3683700     1.8762600    -0.7127200
  H       -1.1582580    -2.1388040    -0.1786760
  H       -2.4475370    -0.8736020    -0.5747320
units angstrom
no_reorient  #important for SAPT in psi4, default
symmetry c1  #important for SAPT in psi4, default
}

set PROPERTIES_ORIGIN ["COM"]
properties('MP2/aug-cc-pvtz', properties = ['dipole'])
--------------------------------------------------------------------------

    Molecular point group: c1
  Charge       = 0
  Multiplicity = 1
  Basis Set: AUG-CC-PVTZ
    Blend: AUG-CC-PVTZ
  Basis Set: (AUG-CC-PVTZ AUX)
    Blend: AUG-CC-PVTZ-JKFIT

    Orbital Energies [Eh]
    ---------------------

    Doubly Occupied:

       1A    -11.238592     2A    -11.223843     3A    -11.219093
       4A    -11.215429     5A    -11.210467     6A     -1.094796
       7A     -0.995863     8A     -0.932456     9A     -0.852201
      10A     -0.714036    11A     -0.625535    12A     -0.622664
      13A     -0.590698    14A     -0.567779    15A     -0.535508
      16A     -0.516266    17A     -0.511620    18A     -0.480140
      19A     -0.459100    20A     -0.345702

  @DF-RHF Final Energy:  -195.21238870958140

   => Energetics <=

    Nuclear Repulsion Energy =            175.5498660991048894
    One-Electron Energy =                -609.6209301606284043
    Two-Electron Energy =                 238.8586753519421393
    Total Energy =                       -195.2123887095814041
  Basis Set: (AUG-CC-PVTZ AUX)
    Blend: AUG-CC-PVTZ-RI
    Molecular point group: c1

    Geometry (in Angstrom), charge = 0, multiplicity = 1:

       Center              X                  Y                   Z               Mass
    ------------   -----------------  -----------------  -----------------  -----------------
         C            0.839073932035    -0.411433517015     0.554847346566    12.000000000000
         C           -0.561893067965    -0.102214517015     0.090826346566    12.000000000000
         C            1.918248932035     0.092325482985    -0.409002653434    12.000000000000
         C           -0.929920567965     1.380507182985     0.052888946566    12.000000000000
         C           -1.418998067965    -1.077845517015    -0.246612653434    12.000000000000
         H            1.000318932035     0.041394482985     1.542702346566     1.007825032230
         H            0.943805932035    -1.494585517015     0.683649346566     1.007825032230
         H            1.901370932035     1.181584482985    -0.498650653434     1.007825032230
         H            2.914322932035    -0.196794517015    -0.060981653434     1.007825032230
         H            1.767744932035    -0.333041517015    -1.405397653434     1.007825032230
         H           -2.001153067965     1.466427482985    -0.253262653434     1.007825032230
         H           -0.784437067965     1.844761482985     0.981903346566     1.007825032230
         H           -0.348451067965     1.889351482985    -0.724453653434     1.007825032230
         H           -1.138339067965    -2.125712517015    -0.190409653434     1.007825032230
         H           -2.427618067965    -0.860510517015    -0.586465653434     1.007825032230

  Basis Set: AUG-CC-PVTZ
    Blend: AUG-CC-PVTZ
  Basis Set: (AUG-CC-PVTZ AUX)
    Blend: AUG-CC-PVTZ-JKFIT
	 Reference Energy          =    -195.2123887095814041 [Eh]
	 Singles Energy            =      -0.0000000000000000 [Eh]
	 Same-Spin Energy          =      -0.2060128886669214 [Eh]
	 Opposite-Spin Energy      =      -0.7621266259003594 [Eh]
	 Correlation Energy        =      -0.9681395145672809 [Eh]
	 Total Energy              =    -196.1805282241486736 [Eh]

	 ================> DF-SCS-MP2 Energies <==================
	-----------------------------------------------------------
	 SCS Same-Spin Scale       =       0.3333333333333333 [-]
	 SCS Opposite-Spin Scale   =       1.2000000000000000 [-]
	 SCS Same-Spin Energy      =      -0.0686709628889738 [Eh]
	 SCS Opposite-Spin Energy  =      -0.9145519510804312 [Eh]
	 SCS Correlation Energy    =      -0.9832229139694050 [Eh]
	 SCS Total Energy          =    -196.1956116235508034 [Eh]
	-----------------------------------------------------------

  Dipole Moment: [D]
     X:     0.3429      Y:     0.3200      Z:     0.1280     Total:     0.4862

*** Psi4 exiting successfully. Buy a developer a beer!
