                               Psi4 1.3.2 release

  ==> Input File <==

--------------------------------------------------------------------------
#psi4
#
memory 32 gb

molecule  {
0 1
  C        0.8191550    -0.4245250     0.5665810
  C       -0.5818120    -0.1153060     0.1025600
  C        1.8983300     0.0792340    -0.3972690
  C       -0.8765896     1.4855823     0.2083971
  C       -1.4389170    -1.0909370    -0.2348790
  H        0.9804000     0.0283030     1.5544360
  H        0.9238870    -1.5076770     0.6953830
  H        1.8814520     1.1684930    -0.4869170
  H        2.8944040    -0.2098860    -0.0492480
  H        1.7478260    -0.3461330    -1.3936640
  H       -2.0210720     1.4533360    -0.2415290
  H       -0.8043560     1.8316700     0.9936370
  H       -0.3683700     1.8762600    -0.7127200
  H       -1.1582580    -2.1388040    -0.1786760
  H       -2.4475370    -0.8736020    -0.5747320
units angstrom
no_reorient  #important for SAPT in psi4, default
symmetry c1  #important for SAPT in psi4, default
}

set PROPERTIES_ORIGIN ["COM"]
properties('MP2/aug-cc-pvtz', properties = ['dipole'])
--------------------------------------------------------------------------

    Molecular point group: c1
  Charge       = 0
  Multiplicity = 1
  Basis Set: AUG-CC-PVTZ
    Blend: AUG-CC-PVTZ
  Basis Set: (AUG-CC-PVTZ AUX)
    Blend: AUG-CC-PVTZ-JKFIT

    Orbital Energies [Eh]
    ---------------------

    Doubly Occupied:

       1A    -11.246432     2A    -11.224619     3A    -11.222101
       4A    -11.214768     5A    -11.214222     6A     -1.088861
       7A     -0.992305     8A     -0.948834     9A     -0.851320
      10A     -0.720281    11A     -0.644380    12A     -0.619191
      13A     -0.611957    14A     -0.570211    15A     -0.528900
      16A     -0.513743    17A     -0.495127    18A     -0.478757
      19A     -0.432480    20A     -0.349459

  @DF-RHF Final Energy:  -195.12989938299478

   => Energetics <=

    Nuclear Repulsion Energy =            174.5342231029171671
    One-Electron Energy =                -607.3923497284666837
    Two-Electron Energy =                 237.7282272425547376
    Total Energy =                       -195.1298993829947790
  Basis Set: (AUG-CC-PVTZ AUX)
    Blend: AUG-CC-PVTZ-RI
    Molecular point group: c1

    Geometry (in Angstrom), charge = 0, multiplicity = 1:

       Center              X                  Y                   Z               Mass
    ------------   -----------------  -----------------  -----------------  -----------------
         C            0.826530827777    -0.431668029057     0.530227810660    12.000000000000
         C           -0.574436172223    -0.122449029057     0.066206810660    12.000000000000
         C            1.905705827777     0.072090970943    -0.433622189340    12.000000000000
         C           -0.869213772223     1.478439270943     0.172043910660    12.000000000000
         C           -1.431541172223    -1.098080029057    -0.271232189340    12.000000000000
         H            0.987775827777     0.021159970943     1.518082810660     1.007825032230
         H            0.931262827777    -1.514820029057     0.659029810660     1.007825032230
         H            1.888827827777     1.161349970943    -0.523270189340     1.007825032230
         H            2.901779827777    -0.217029029057    -0.085601189340     1.007825032230
         H            1.755201827777    -0.353276029057    -1.430017189340     1.007825032230
         H           -2.013696172223     1.446192970943    -0.277882189340     1.007825032230
         H           -0.796980172223     1.824526970943     0.957283810660     1.007825032230
         H           -0.360994172223     1.869116970943    -0.749073189340     1.007825032230
         H           -1.150882172223    -2.145947029057    -0.215029189340     1.007825032230
         H           -2.440161172223    -0.880745029057    -0.611085189340     1.007825032230

  Basis Set: AUG-CC-PVTZ
    Blend: AUG-CC-PVTZ
  Basis Set: (AUG-CC-PVTZ AUX)
    Blend: AUG-CC-PVTZ-JKFIT
	 Reference Energy          =    -195.1298993829947790 [Eh]
	 Singles Energy            =      -0.0000000000000000 [Eh]
	 Same-Spin Energy          =      -0.2065998942653335 [Eh]
	 Opposite-Spin Energy      =      -0.7652178970225765 [Eh]
	 Correlation Energy        =      -0.9718177912879100 [Eh]
	 Total Energy              =    -196.1017171742826974 [Eh]

	 ================> DF-SCS-MP2 Energies <==================
	-----------------------------------------------------------
	 SCS Same-Spin Scale       =       0.3333333333333333 [-]
	 SCS Opposite-Spin Scale   =       1.2000000000000000 [-]
	 SCS Same-Spin Energy      =      -0.0688666314217778 [Eh]
	 SCS Opposite-Spin Energy  =      -0.9182614764270918 [Eh]
	 SCS Correlation Energy    =      -0.9871281078488696 [Eh]
	 SCS Total Energy          =    -196.1170274908436397 [Eh]
	-----------------------------------------------------------

  Dipole Moment: [D]
     X:     0.3593      Y:     0.2064      Z:     0.1429     Total:     0.4383

*** Psi4 exiting successfully. Buy a developer a beer!
