                               Psi4 1.3.2 release

  ==> Input File <==

--------------------------------------------------------------------------
#psi4
#
memory 32 gb

molecule  {
0 1
  C        0.8191550    -0.4245250     0.5665810
  C       -0.5818120    -0.1153060     0.1025600
  C        1.8983300     0.0792340    -0.3972690
  C       -0.9132145     1.4264990     0.1365098
  C       -1.4389170    -1.0909370    -0.2348790
  H        0.9804000     0.0283030     1.5544360
  H        0.9238870    -1.5076770     0.6953830
  H        1.8814520     1.1684930    -0.4869170
  H        2.8944040    -0.2098860    -0.0492480
  H        1.7478260    -0.3461330    -1.3936640
  H       -2.0210720     1.4533360    -0.2415290
  H       -0.8043560     1.8316700     0.9936370
  H       -0.3683700     1.8762600    -0.7127200
  H       -1.1582580    -2.1388040    -0.1786760
  H       -2.4475370    -0.8736020    -0.5747320
units angstrom
no_reorient  #important for SAPT in psi4, default
symmetry c1  #important for SAPT in psi4, default
}

set PROPERTIES_ORIGIN ["COM"]
properties('MP2/aug-cc-pvtz', properties = ['dipole'])
--------------------------------------------------------------------------

    Molecular point group: c1
  Charge       = 0
  Multiplicity = 1
  Basis Set: AUG-CC-PVTZ
    Blend: AUG-CC-PVTZ
  Basis Set: (AUG-CC-PVTZ AUX)
    Blend: AUG-CC-PVTZ-JKFIT

    Orbital Energies [Eh]
    ---------------------

    Doubly Occupied:

       1A    -11.242030     2A    -11.222728     3A    -11.220248
       4A    -11.215005     5A    -11.212114     6A     -1.091300
       7A     -0.993407     8A     -0.938742     9A     -0.851523
      10A     -0.714892    11A     -0.626370    12A     -0.620308
      13A     -0.609484    14A     -0.569802    15A     -0.530013
      16A     -0.515345    17A     -0.507472    18A     -0.479480
      19A     -0.446599    20A     -0.347743

  @DF-RHF Final Energy:  -195.18804748489833

   => Energetics <=

    Nuclear Repulsion Energy =            175.0342197726665177
    One-Electron Energy =                -608.5353235060373436
    Two-Electron Energy =                 238.3130562484724919
    Total Energy =                       -195.1880474848983340
  Basis Set: (AUG-CC-PVTZ AUX)
    Blend: AUG-CC-PVTZ-RI
    Molecular point group: c1

    Geometry (in Angstrom), charge = 0, multiplicity = 1:

       Center              X                  Y                   Z               Mass
    ------------   -----------------  -----------------  -----------------  -----------------
         C            0.832802371344    -0.421550773036     0.542537587175    12.000000000000
         C           -0.568164628656    -0.112331773036     0.078516587175    12.000000000000
         C            1.911977371344     0.082208226964    -0.421312412825    12.000000000000
         C           -0.899567128656     1.429473226964     0.112466387175    12.000000000000
         C           -1.425269628656    -1.087962773036    -0.258922412825    12.000000000000
         H            0.994047371344     0.031277226964     1.530392587175     1.007825032230
         H            0.937534371344    -1.504702773036     0.671339587175     1.007825032230
         H            1.895099371344     1.171467226964    -0.510960412825     1.007825032230
         H            2.908051371344    -0.206911773036    -0.073291412825     1.007825032230
         H            1.761473371344    -0.343158773036    -1.417707412825     1.007825032230
         H           -2.007424628656     1.456310226964    -0.265572412825     1.007825032230
         H           -0.790708628656     1.834644226964     0.969593587175     1.007825032230
         H           -0.354722628656     1.879234226964    -0.736763412825     1.007825032230
         H           -1.144610628656    -2.135829773036    -0.202719412825     1.007825032230
         H           -2.433889628656    -0.870627773036    -0.598775412825     1.007825032230

  Basis Set: AUG-CC-PVTZ
    Blend: AUG-CC-PVTZ
  Basis Set: (AUG-CC-PVTZ AUX)
    Blend: AUG-CC-PVTZ-JKFIT
	 Reference Energy          =    -195.1880474848983340 [Eh]
	 Singles Energy            =      -0.0000000000000000 [Eh]
	 Same-Spin Energy          =      -0.2060894116226403 [Eh]
	 Opposite-Spin Energy      =      -0.7630693139058538 [Eh]
	 Correlation Energy        =      -0.9691587255284940 [Eh]
	 Total Energy              =    -196.1572062104268355 [Eh]

	 ================> DF-SCS-MP2 Energies <==================
	-----------------------------------------------------------
	 SCS Same-Spin Scale       =       0.3333333333333333 [-]
	 SCS Opposite-Spin Scale   =       1.2000000000000000 [-]
	 SCS Same-Spin Energy      =      -0.0686964705408801 [Eh]
	 SCS Opposite-Spin Energy  =      -0.9156831766870245 [Eh]
	 SCS Correlation Energy    =      -0.9843796472279046 [Eh]
	 SCS Total Energy          =    -196.1724271321262449 [Eh]
	-----------------------------------------------------------

  Dipole Moment: [D]
     X:     0.3476      Y:     0.2787      Z:     0.1489     Total:     0.4697

*** Psi4 exiting successfully. Buy a developer a beer!
