                               Psi4 1.3.2 release

  ==> Input File <==

--------------------------------------------------------------------------
#psi4
#
memory 32 gb

molecule  {
0 1
  C        0.8191550    -0.4245250     0.5665810
  C       -0.5818120    -0.1153060     0.1025600
  C        1.8983300     0.0792340    -0.3972690
  C       -0.8582771     1.5151239     0.2443407
  C       -1.4389170    -1.0909370    -0.2348790
  H        0.9804000     0.0283030     1.5544360
  H        0.9238870    -1.5076770     0.6953830
  H        1.8814520     1.1684930    -0.4869170
  H        2.8944040    -0.2098860    -0.0492480
  H        1.7478260    -0.3461330    -1.3936640
  H       -2.0210720     1.4533360    -0.2415290
  H       -0.8043560     1.8316700     0.9936370
  H       -0.3683700     1.8762600    -0.7127200
  H       -1.1582580    -2.1388040    -0.1786760
  H       -2.4475370    -0.8736020    -0.5747320
units angstrom
no_reorient  #important for SAPT in psi4, default
symmetry c1  #important for SAPT in psi4, default
}

set PROPERTIES_ORIGIN ["COM"]
properties('MP2/aug-cc-pvtz', properties = ['dipole'])
--------------------------------------------------------------------------

    Molecular point group: c1
  Charge       = 0
  Multiplicity = 1
  Basis Set: AUG-CC-PVTZ
    Blend: AUG-CC-PVTZ
  Basis Set: (AUG-CC-PVTZ AUX)
    Blend: AUG-CC-PVTZ-JKFIT

    Orbital Energies [Eh]
    ---------------------

    Doubly Occupied:

       1A    -11.248915     2A    -11.228235     3A    -11.221963
       4A    -11.215445     5A    -11.214714     6A     -1.088040
       7A     -0.992531     8A     -0.955585     9A     -0.851413
      10A     -0.724796    11A     -0.653606    12A     -0.618287
      13A     -0.611305    14A     -0.570415    15A     -0.528299
      16A     -0.513390    17A     -0.488350    18A     -0.477775
      19A     -0.425049    20A     -0.350290

  @DF-RHF Final Energy:  -195.08404447210700

   => Energetics <=

    Nuclear Repulsion Energy =            174.2998472047763130
    One-Electron Energy =                -606.8109795160262365
    Two-Electron Energy =                 237.4270878391429278
    Total Energy =                       -195.0840444721069957
  Basis Set: (AUG-CC-PVTZ AUX)
    Blend: AUG-CC-PVTZ-RI
    Molecular point group: c1

    Geometry (in Angstrom), charge = 0, multiplicity = 1:

       Center              X                  Y                   Z               Mass
    ------------   -----------------  -----------------  -----------------  -----------------
         C            0.823395047432    -0.436726648506     0.524072930965    12.000000000000
         C           -0.577571952568    -0.127507648506     0.060051930965    12.000000000000
         C            1.902570047432     0.067032351494    -0.439777069035    12.000000000000
         C           -0.854037052568     1.502922251494     0.201832630965    12.000000000000
         C           -1.434676952568    -1.103138648506    -0.277387069035    12.000000000000
         H            0.984640047432     0.016101351494     1.511927930965     1.007825032230
         H            0.928127047432    -1.519878648506     0.652874930965     1.007825032230
         H            1.885692047432     1.156291351494    -0.529425069035     1.007825032230
         H            2.898644047432    -0.222087648506    -0.091756069035     1.007825032230
         H            1.752066047432    -0.358334648506    -1.436172069035     1.007825032230
         H           -2.016831952568     1.441134351494    -0.284037069035     1.007825032230
         H           -0.800115952568     1.819468351494     0.951128930965     1.007825032230
         H           -0.364129952568     1.864058351494    -0.755228069035     1.007825032230
         H           -1.154017952568    -2.151005648506    -0.221184069035     1.007825032230
         H           -2.443296952568    -0.885803648506    -0.617240069035     1.007825032230

  Basis Set: AUG-CC-PVTZ
    Blend: AUG-CC-PVTZ
  Basis Set: (AUG-CC-PVTZ AUX)
    Blend: AUG-CC-PVTZ-JKFIT
	 Reference Energy          =    -195.0840444721069957 [Eh]
	 Singles Energy            =      -0.0000000000000000 [Eh]
	 Same-Spin Energy          =      -0.2070299466384262 [Eh]
	 Opposite-Spin Energy      =      -0.7667886826466670 [Eh]
	 Correlation Energy        =      -0.9738186292850932 [Eh]
	 Total Energy              =    -196.0578631013920869 [Eh]

	 ================> DF-SCS-MP2 Energies <==================
	-----------------------------------------------------------
	 SCS Same-Spin Scale       =       0.3333333333333333 [-]
	 SCS Opposite-Spin Scale   =       1.2000000000000000 [-]
	 SCS Same-Spin Energy      =      -0.0690099822128087 [Eh]
	 SCS Opposite-Spin Energy  =      -0.9201464191760004 [Eh]
	 SCS Correlation Energy    =      -0.9891564013888091 [Eh]
	 SCS Total Energy          =    -196.0732008734958072 [Eh]
	-----------------------------------------------------------

  Dipole Moment: [D]
     X:     0.3669      Y:     0.1588      Z:     0.1289     Total:     0.4200

*** Psi4 exiting successfully. Buy a developer a beer!
