                               Psi4 1.3.2 release

  ==> Input File <==

--------------------------------------------------------------------------
#psi4
#
memory 32 gb

molecule  {
0 1
  C        0.8191550    -0.4245250     0.5665810
  C       -0.5818120    -0.1153060     0.1025600
  C        1.8983300     0.0792340    -0.3972690
  C       -0.9315270     1.3969573     0.1005662
  C       -1.4389170    -1.0909370    -0.2348790
  H        0.9804000     0.0283030     1.5544360
  H        0.9238870    -1.5076770     0.6953830
  H        1.8814520     1.1684930    -0.4869170
  H        2.8944040    -0.2098860    -0.0492480
  H        1.7478260    -0.3461330    -1.3936640
  H       -2.0210720     1.4533360    -0.2415290
  H       -0.8043560     1.8316700     0.9936370
  H       -0.3683700     1.8762600    -0.7127200
  H       -1.1582580    -2.1388040    -0.1786760
  H       -2.4475370    -0.8736020    -0.5747320
units angstrom
no_reorient  #important for SAPT in psi4, default
symmetry c1  #important for SAPT in psi4, default
}

set PROPERTIES_ORIGIN ["COM"]
properties('MP2/aug-cc-pvtz', properties = ['dipole'])
--------------------------------------------------------------------------

    Molecular point group: c1
  Charge       = 0
  Multiplicity = 1
  Basis Set: AUG-CC-PVTZ
    Blend: AUG-CC-PVTZ
  Basis Set: (AUG-CC-PVTZ AUX)
    Blend: AUG-CC-PVTZ-JKFIT

    Orbital Energies [Eh]
    ---------------------

    Doubly Occupied:

       1A    -11.240176     2A    -11.223224     3A    -11.219287
       4A    -11.215193     5A    -11.211231     6A     -1.092915
       7A     -0.994494     8A     -0.935209     9A     -0.851807
      10A     -0.713971    11A     -0.624794    12A     -0.620931
      13A     -0.600754    14A     -0.569245    15A     -0.531678
      16A     -0.516628    17A     -0.510655    18A     -0.479785
      19A     -0.453092    20A     -0.346787

  @DF-RHF Final Energy:  -195.20377646122782

   => Energetics <=

    Nuclear Repulsion Energy =            175.2919310251530760
    One-Electron Energy =                -609.0877000087316446
    Two-Electron Energy =                 238.5919925223507505
    Total Energy =                       -195.2037764612278181
  Basis Set: (AUG-CC-PVTZ AUX)
    Blend: AUG-CC-PVTZ-RI
    Molecular point group: c1

    Geometry (in Angstrom), charge = 0, multiplicity = 1:

       Center              X                  Y                   Z               Mass
    ------------   -----------------  -----------------  -----------------  -----------------
         C            0.835938151690    -0.416492136464     0.548692466870    12.000000000000
         C           -0.565028848310    -0.107273136464     0.084671466870    12.000000000000
         C            1.915113151690     0.087266863536    -0.415157533130    12.000000000000
         C           -0.914743848310     1.404990163536     0.082677666870    12.000000000000
         C           -1.422133848310    -1.082904136464    -0.252767533130    12.000000000000
         H            0.997183151690     0.036335863536     1.536547466870     1.007825032230
         H            0.940670151690    -1.499644136464     0.677494466870     1.007825032230
         H            1.898235151690     1.176525863536    -0.504805533130     1.007825032230
         H            2.911187151690    -0.201853136464    -0.067136533130     1.007825032230
         H            1.764609151690    -0.338100136464    -1.411552533130     1.007825032230
         H           -2.004288848310     1.461368863536    -0.259417533130     1.007825032230
         H           -0.787572848310     1.839702863536     0.975748466870     1.007825032230
         H           -0.351586848310     1.884292863536    -0.730608533130     1.007825032230
         H           -1.141474848310    -2.130771136464    -0.196564533130     1.007825032230
         H           -2.430753848310    -0.865569136464    -0.592620533130     1.007825032230

  Basis Set: AUG-CC-PVTZ
    Blend: AUG-CC-PVTZ
  Basis Set: (AUG-CC-PVTZ AUX)
    Blend: AUG-CC-PVTZ-JKFIT
	 Reference Energy          =    -195.2037764612278181 [Eh]
	 Singles Energy            =      -0.0000000000000000 [Eh]
	 Same-Spin Energy          =      -0.2059989868329279 [Eh]
	 Opposite-Spin Energy      =      -0.7624562802797994 [Eh]
	 Correlation Energy        =      -0.9684552671127273 [Eh]
	 Total Energy              =    -196.1722317283405346 [Eh]

	 ================> DF-SCS-MP2 Energies <==================
	-----------------------------------------------------------
	 SCS Same-Spin Scale       =       0.3333333333333333 [-]
	 SCS Opposite-Spin Scale   =       1.2000000000000000 [-]
	 SCS Same-Spin Energy      =      -0.0686663289443093 [Eh]
	 SCS Opposite-Spin Energy  =      -0.9149475363357592 [Eh]
	 SCS Correlation Energy    =      -0.9836138652800686 [Eh]
	 SCS Total Energy          =    -196.1873903265078809 [Eh]
	-----------------------------------------------------------

  Dipole Moment: [D]
     X:     0.3442      Y:     0.3033      Z:     0.1416     Total:     0.4801

*** Psi4 exiting successfully. Buy a developer a beer!
