                               Psi4 1.3.2 release

  ==> Input File <==

--------------------------------------------------------------------------
#psi4
#
memory 32 gb

molecule  {
0 1
  C        0.8191550    -0.4245250     0.5665810
  C       -0.5818120    -0.1153060     0.1025600
  C        1.8983300     0.0792340    -0.3972690
  C       -0.8949020     1.4560406     0.1724535
  C       -1.4389170    -1.0909370    -0.2348790
  H        0.9804000     0.0283030     1.5544360
  H        0.9238870    -1.5076770     0.6953830
  H        1.8814520     1.1684930    -0.4869170
  H        2.8944040    -0.2098860    -0.0492480
  H        1.7478260    -0.3461330    -1.3936640
  H       -2.0210720     1.4533360    -0.2415290
  H       -0.8043560     1.8316700     0.9936370
  H       -0.3683700     1.8762600    -0.7127200
  H       -1.1582580    -2.1388040    -0.1786760
  H       -2.4475370    -0.8736020    -0.5747320
units angstrom
no_reorient  #important for SAPT in psi4, default
symmetry c1  #important for SAPT in psi4, default
}

set PROPERTIES_ORIGIN ["COM"]
properties('MP2/aug-cc-pvtz', properties = ['dipole'])
--------------------------------------------------------------------------

    Molecular point group: c1
  Charge       = 0
  Multiplicity = 1
  Basis Set: AUG-CC-PVTZ
    Blend: AUG-CC-PVTZ
  Basis Set: (AUG-CC-PVTZ AUX)
    Blend: AUG-CC-PVTZ-JKFIT

    Orbital Energies [Eh]
    ---------------------

    Doubly Occupied:

       1A    -11.244125     2A    -11.222355     3A    -11.222002
       4A    -11.214865     5A    -11.213112     6A     -1.089949
       7A     -0.992650     8A     -0.943233     9A     -0.851358
      10A     -0.716956    11A     -0.634106    12A     -0.619964
      13A     -0.612181    14A     -0.570042    15A     -0.529388
      16A     -0.514317    17A     -0.501894    18A     -0.479178
      19A     -0.439697    20A     -0.348620

  @DF-RHF Final Energy:  -195.16393629030952

   => Energetics <=

    Nuclear Repulsion Energy =            174.7803716678406545
    One-Electron Energy =                -607.9686348883755045
    Two-Electron Energy =                 238.0243269302253282
    Total Energy =                       -195.1639362903095218
  Basis Set: (AUG-CC-PVTZ AUX)
    Blend: AUG-CC-PVTZ-RI
    Molecular point group: c1

    Geometry (in Angstrom), charge = 0, multiplicity = 1:

       Center              X                  Y                   Z               Mass
    ------------   -----------------  -----------------  -----------------  -----------------
         C            0.829666590999    -0.426609392485     0.536382690356    12.000000000000
         C           -0.571300409001    -0.117390392485     0.072361690356    12.000000000000
         C            1.908841590999     0.077149607515    -0.427467309644    12.000000000000
         C           -0.884390409001     1.453956207515     0.142255190356    12.000000000000
         C           -1.428405409001    -1.093021392485    -0.265077309644    12.000000000000
         H            0.990911590999     0.026218607515     1.524237690356     1.007825032230
         H            0.934398590999    -1.509761392485     0.665184690356     1.007825032230
         H            1.891963590999     1.166408607515    -0.517115309644     1.007825032230
         H            2.904915590999    -0.211970392485    -0.079446309644     1.007825032230
         H            1.758337590999    -0.348217392485    -1.423862309644     1.007825032230
         H           -2.010560409001     1.451251607515    -0.271727309644     1.007825032230
         H           -0.793844409001     1.829585607515     0.963438690356     1.007825032230
         H           -0.357858409001     1.874175607515    -0.742918309644     1.007825032230
         H           -1.147746409001    -2.140888392485    -0.208874309644     1.007825032230
         H           -2.437025409001    -0.875686392485    -0.604930309644     1.007825032230

  Basis Set: AUG-CC-PVTZ
    Blend: AUG-CC-PVTZ
  Basis Set: (AUG-CC-PVTZ AUX)
    Blend: AUG-CC-PVTZ-JKFIT
	 Reference Energy          =    -195.1639362903095218 [Eh]
	 Singles Energy            =      -0.0000000000000000 [Eh]
	 Same-Spin Energy          =      -0.2062882687935830 [Eh]
	 Opposite-Spin Energy      =      -0.7639836921194432 [Eh]
	 Correlation Energy        =      -0.9702719609130261 [Eh]
	 Total Energy              =    -196.1342082512225602 [Eh]

	 ================> DF-SCS-MP2 Energies <==================
	-----------------------------------------------------------
	 SCS Same-Spin Scale       =       0.3333333333333333 [-]
	 SCS Opposite-Spin Scale   =       1.2000000000000000 [-]
	 SCS Same-Spin Energy      =      -0.0687627562645277 [Eh]
	 SCS Opposite-Spin Energy  =      -0.9167804305433318 [Eh]
	 SCS Correlation Energy    =      -0.9855431868078595 [Eh]
	 SCS Total Energy          =    -196.1494794771173815 [Eh]
	-----------------------------------------------------------

  Dipole Moment: [D]
     X:     0.3527      Y:     0.2464      Z:     0.1494     Total:     0.4555

*** Psi4 exiting successfully. Buy a developer a beer!
