                               Psi4 1.4a3.dev225

  ==> Input File <==

--------------------------------------------------------------------------
#psi4
#
memory 32 gb

molecule  {
0 1
  N        0.6335420    -0.4278790    -0.2728430
  C       -1.7313700    -0.5561300    -0.6201830
  C       -0.4411307     0.1977274    -0.4307437
  C        1.8471620     0.3055680     0.0922530
  C       -2.6435280    -0.7283840     0.5986220
  C       -0.6406980     1.6798450     0.0649420
  C        3.0183950    -0.6607510     0.1713530
  H       -1.4212120    -1.5322710    -1.0024030
  H       -2.2765240    -0.0356590    -1.4187580
  H        2.0539910     1.0846830    -0.6562090
  H        1.7201950     0.8226000     1.0546610
  H       -3.5369580    -1.3025810     0.3373160
  H       -2.9717700     0.2361610     0.9972690
  H       -2.1143980    -1.2633090     1.3922570
  H       -0.4113830     1.8596200     1.1216760
  H       -1.6576830     2.0281380    -0.1274070
  H        0.0520880     2.2919400    -0.5220660
  H        3.9433710    -0.1376200     0.4335950
  H        2.8252920    -1.4268740     0.9259980
  H        3.1589730    -1.1612340    -0.7893850
units angstrom
no_reorient  #important for SAPT in psi4, default
symmetry c1  #important for SAPT in psi4, default
}

set PROPERTIES_ORIGIN ["COM"]
properties('MP2/aug-cc-pvtz', properties = ['dipole'])
--------------------------------------------------------------------------

    Molecular point group: c1
  Charge       = 0
  Multiplicity = 1
  Basis Set: AUG-CC-PVTZ
    Blend: AUG-CC-PVTZ
  Basis Set: (AUG-CC-PVTZ AUX)
    Blend: AUG-CC-PVTZ-JKFIT

    Orbital Energies [Eh]
    ---------------------

    Doubly Occupied:

       1A    -15.539795     2A    -11.273834     3A    -11.245676
       4A    -11.229745     5A    -11.222652     6A    -11.221553
       7A    -11.204253     8A     -1.229766     9A     -1.055922
      10A     -1.000523    11A     -0.961820    12A     -0.881431
      13A     -0.822289    14A     -0.704320    15A     -0.648641
      16A     -0.629237    17A     -0.612470    18A     -0.587846
      19A     -0.572824    20A     -0.545971    21A     -0.540162
      22A     -0.515759    23A     -0.513071    24A     -0.495430
      25A     -0.486031    26A     -0.476405    27A     -0.393224
      28A     -0.377037

  @DF-RHF Final Energy:  -289.30391300575855

   => Energetics <=

    Nuclear Repulsion Energy =            307.2769451217610026
    One-Electron Energy =                -999.1863425999491710
    Two-Electron Energy =                 402.6054844724295663
    Total Energy =                       -289.3039130057585453
  Basis Set: (AUG-CC-PVTZ AUX)
    Blend: AUG-CC-PVTZ-RI
    Molecular point group: c1

    Geometry (in Angstrom), charge = 0, multiplicity = 1:

       Center              X                  Y                   Z               Mass
    ------------   -----------------  -----------------  -----------------  -----------------
         N            0.622074298575    -0.411108169108    -0.237067635153    14.003074004430
         C           -1.742837701425    -0.539359169108    -0.584407635153    12.000000000000
         C           -0.452598401425     0.214498230892    -0.394968335153    12.000000000000
         C            1.835694298575     0.322338830892     0.128028364847    12.000000000000
         C           -2.654995701425    -0.711613169108     0.634397364847    12.000000000000
         C           -0.652165701425     1.696615830892     0.100717364847    12.000000000000
         C            3.006927298575    -0.643980169108     0.207128364847    12.000000000000
         H           -1.432679701425    -1.515500169108    -0.966627635153     1.007825032230
         H           -2.287991701425    -0.018888169108    -1.382982635153     1.007825032230
         H            2.042523298575     1.101453830892    -0.620433635153     1.007825032230
         H            1.708727298575     0.839370830892     1.090436364847     1.007825032230
         H           -3.548425701425    -1.285810169108     0.373091364847     1.007825032230
         H           -2.983237701425     0.252931830892     1.033044364847     1.007825032230
         H           -2.125865701425    -1.246538169108     1.428032364847     1.007825032230
         H           -0.422850701425     1.876390830892     1.157451364847     1.007825032230
         H           -1.669150701425     2.044908830892    -0.091631635153     1.007825032230
         H            0.040620298575     2.308710830892    -0.486290635153     1.007825032230
         H            3.931903298575    -0.120849169108     0.469370364847     1.007825032230
         H            2.813824298575    -1.410103169108     0.961773364847     1.007825032230
         H            3.147505298575    -1.144463169108    -0.753609635153     1.007825032230

  Basis Set: AUG-CC-PVTZ
    Blend: AUG-CC-PVTZ
  Basis Set: (AUG-CC-PVTZ AUX)
    Blend: AUG-CC-PVTZ-JKFIT
	 Reference Energy          =    -289.3039130057585453 [Eh]
	 Singles Energy            =      -0.0000000000000000 [Eh]
	 Same-Spin Energy          =      -0.3057581349189304 [Eh]
	 Opposite-Spin Energy      =      -1.0918565492735119 [Eh]
	 Correlation Energy        =      -1.3976146841924424 [Eh]
	 Total Energy              =    -290.7015276899509786 [Eh]

	 ================> DF-SCS-MP2 Energies <==================
	-----------------------------------------------------------
	 SCS Same-Spin Scale       =       0.3333333333333333 [-]
	 SCS Opposite-Spin Scale   =       1.2000000000000000 [-]
	 SCS Same-Spin Energy      =      -0.1019193783063101 [Eh]
	 SCS Opposite-Spin Energy  =      -1.3102278591282144 [Eh]
	 SCS Correlation Energy    =      -1.4121472374345245 [Eh]
	 SCS Total Energy          =    -290.7160602431930556 [Eh]
	-----------------------------------------------------------

  Dipole Moment: [D]
     X:    -0.6872      Y:     1.5865      Z:     0.4025     Total:     1.7752

*** Psi4 exiting successfully. Buy a developer a beer!
