                               Psi4 1.4a3.dev225

  ==> Input File <==

--------------------------------------------------------------------------
#psi4
#
memory 32 gb

molecule  {
0 1
  N        0.6335420    -0.4278790    -0.2728430
  C       -1.7313700    -0.5561300    -0.6201830
  C       -0.4830900     0.2151130    -0.2797610
  C        1.8471620     0.3055680     0.0922530
  C       -2.6435280    -0.7283840     0.5986220
  C       -0.6406980     1.6798450     0.0649420
  C        3.0183950    -0.6607510     0.1713530
  H       -1.4212120    -1.5322710    -1.0024030
  H       -2.2765240    -0.0356590    -1.4187580
  H        2.0539910     1.0846830    -0.6562090
  H        1.7201950     0.8226000     1.0546610
  H       -3.7003341    -1.4075809     0.2895326
  H       -2.9717700     0.2361610     0.9972690
  H       -2.1143980    -1.2633090     1.3922570
  H       -0.4113830     1.8596200     1.1216760
  H       -1.6576830     2.0281380    -0.1274070
  H        0.0520880     2.2919400    -0.5220660
  H        3.9433710    -0.1376200     0.4335950
  H        2.8252920    -1.4268740     0.9259980
  H        3.1589730    -1.1612340    -0.7893850
units angstrom
no_reorient  #important for SAPT in psi4, default
symmetry c1  #important for SAPT in psi4, default
}

set PROPERTIES_ORIGIN ["COM"]
properties('MP2/aug-cc-pvtz', properties = ['dipole'])
--------------------------------------------------------------------------

    Molecular point group: c1
  Charge       = 0
  Multiplicity = 1
  Basis Set: AUG-CC-PVTZ
    Blend: AUG-CC-PVTZ
  Basis Set: (AUG-CC-PVTZ AUX)
    Blend: AUG-CC-PVTZ-JKFIT

    Orbital Energies [Eh]
    ---------------------

    Doubly Occupied:

       1A    -15.540872     2A    -11.277569     3A    -11.243409
       4A    -11.243086     5A    -11.233056     6A    -11.225841
       7A    -11.203338     8A     -1.219207     9A     -1.059144
      10A     -0.995828    11A     -0.972868    12A     -0.870031
      13A     -0.815738    14A     -0.710156    15A     -0.652596
      16A     -0.626626    17A     -0.615462    18A     -0.592304
      19A     -0.576323    20A     -0.542668    21A     -0.527587
      22A     -0.512866    23A     -0.511840    24A     -0.494207
      25A     -0.488200    26A     -0.466477    27A     -0.386597
      28A     -0.382154

  @DF-RHF Final Energy:  -289.29409702022213

   => Energetics <=

    Nuclear Repulsion Energy =            306.8213051357680001
    One-Electron Energy =                -998.2587145771492487
    Two-Electron Energy =                 402.1433124211591803
    Total Energy =                       -289.2940970202221251
  Basis Set: (AUG-CC-PVTZ AUX)
    Blend: AUG-CC-PVTZ-RI
    Molecular point group: c1

    Geometry (in Angstrom), charge = 0, multiplicity = 1:

       Center              X                  Y                   Z               Mass
    ------------   -----------------  -----------------  -----------------  -----------------
         N            0.628816314372    -0.412145512133    -0.254863292917    14.003074004430
         C           -1.736095685628    -0.540396512133    -0.602203292917    12.000000000000
         C           -0.487815685628     0.230846487867    -0.261781292917    12.000000000000
         C            1.842436314372     0.321301487867     0.110232707083    12.000000000000
         C           -2.648253685628    -0.712650512133     0.616601707083    12.000000000000
         C           -0.645423685628     1.695578487867     0.082921707083    12.000000000000
         C            3.013669314372    -0.645017512133     0.189332707083    12.000000000000
         H           -1.425937685628    -1.516537512133    -0.984423292917     1.007825032230
         H           -2.281249685628    -0.019925512133    -1.400778292917     1.007825032230
         H            2.049265314372     1.100416487867    -0.638229292917     1.007825032230
         H            1.715469314372     0.838333487867     1.072640707083     1.007825032230
         H           -3.705059785628    -1.391847412133     0.307512307083     1.007825032230
         H           -2.976495685628     0.251894487867     1.015248707083     1.007825032230
         H           -2.119123685628    -1.247575512133     1.410236707083     1.007825032230
         H           -0.416108685628     1.875353487867     1.139655707083     1.007825032230
         H           -1.662408685628     2.043871487867    -0.109427292917     1.007825032230
         H            0.047362314372     2.307673487867    -0.504086292917     1.007825032230
         H            3.938645314372    -0.121886512133     0.451574707083     1.007825032230
         H            2.820566314372    -1.411140512133     0.943977707083     1.007825032230
         H            3.154247314372    -1.145500512133    -0.771405292917     1.007825032230

  Basis Set: AUG-CC-PVTZ
    Blend: AUG-CC-PVTZ
  Basis Set: (AUG-CC-PVTZ AUX)
    Blend: AUG-CC-PVTZ-JKFIT
	 Reference Energy          =    -289.2940970202221251 [Eh]
	 Singles Energy            =      -0.0000000000000000 [Eh]
	 Same-Spin Energy          =      -0.3062628967112911 [Eh]
	 Opposite-Spin Energy      =      -1.0937953794199284 [Eh]
	 Correlation Energy        =      -1.4000582761312197 [Eh]
	 Total Energy              =    -290.6941552963533582 [Eh]

	 ================> DF-SCS-MP2 Energies <==================
	-----------------------------------------------------------
	 SCS Same-Spin Scale       =       0.3333333333333333 [-]
	 SCS Opposite-Spin Scale   =       1.2000000000000000 [-]
	 SCS Same-Spin Energy      =      -0.1020876322370970 [Eh]
	 SCS Opposite-Spin Energy  =      -1.3125544553039141 [Eh]
	 SCS Correlation Energy    =      -1.4146420875410111 [Eh]
	 SCS Total Energy          =    -290.7087391077631082 [Eh]
	-----------------------------------------------------------

  Dipole Moment: [D]
     X:    -0.6375      Y:     1.8486      Z:     0.3799     Total:     1.9920

*** Psi4 exiting successfully. Buy a developer a beer!
