                               Psi4 1.4a3.dev225

  ==> Input File <==

--------------------------------------------------------------------------
#psi4
#
memory 32 gb

molecule  {
0 1
  N        0.6335420    -0.4278790    -0.2728430
  C       -1.7455784    -0.5343252    -0.6164676
  C       -0.4830900     0.2151130    -0.2797610
  C        1.8471620     0.3055680     0.0922530
  C       -2.6435280    -0.7283840     0.5986220
  C       -0.6406980     1.6798450     0.0649420
  C        3.0183950    -0.6607510     0.1713530
  H       -1.4212120    -1.5322710    -1.0024030
  H       -2.2765240    -0.0356590    -1.4187580
  H        2.0539910     1.0846830    -0.6562090
  H        1.7201950     0.8226000     1.0546610
  H       -3.5369580    -1.3025810     0.3373160
  H       -2.9717700     0.2361610     0.9972690
  H       -2.1143980    -1.2633090     1.3922570
  H       -0.4113830     1.8596200     1.1216760
  H       -1.6576830     2.0281380    -0.1274070
  H        0.0520880     2.2919400    -0.5220660
  H        3.9433710    -0.1376200     0.4335950
  H        2.8252920    -1.4268740     0.9259980
  H        3.1589730    -1.1612340    -0.7893850
units angstrom
no_reorient  #important for SAPT in psi4, default
symmetry c1  #important for SAPT in psi4, default
}

set PROPERTIES_ORIGIN ["COM"]
properties('MP2/aug-cc-pvtz', properties = ['dipole'])
--------------------------------------------------------------------------

    Molecular point group: c1
  Charge       = 0
  Multiplicity = 1
  Basis Set: AUG-CC-PVTZ
    Blend: AUG-CC-PVTZ
  Basis Set: (AUG-CC-PVTZ AUX)
    Blend: AUG-CC-PVTZ-JKFIT

    Orbital Energies [Eh]
    ---------------------

    Doubly Occupied:

       1A    -15.539280     2A    -11.275931     3A    -11.242433
       4A    -11.231019     5A    -11.223884     6A    -11.219679
       7A    -11.202512     8A     -1.217349     9A     -1.060527
      10A     -0.998997    11A     -0.971540    12A     -0.877075
      13A     -0.817406    14A     -0.708475    15A     -0.650528
      16A     -0.628229    17A     -0.617087    18A     -0.590014
      19A     -0.575928    20A     -0.552355    21A     -0.535924
      22A     -0.517882    23A     -0.511432    24A     -0.493612
      25A     -0.481937    26A     -0.475818    27A     -0.385393
      28A     -0.381374

  @DF-RHF Final Energy:  -289.31305289136014

   => Energetics <=

    Nuclear Repulsion Energy =            307.6428164186043546
    One-Electron Energy =                -999.9444971621497871
    Two-Electron Energy =                 402.9886278521852319
    Total Energy =                       -289.3130528913601438
  Basis Set: (AUG-CC-PVTZ AUX)
    Blend: AUG-CC-PVTZ-RI
    Molecular point group: c1

    Geometry (in Angstrom), charge = 0, multiplicity = 1:

       Center              X                  Y                   Z               Mass
    ------------   -----------------  -----------------  -----------------  -----------------
         N            0.628875305226    -0.415853497313    -0.255799091256    14.003074004430
         C           -1.750245094774    -0.522299697313    -0.599423691256    12.000000000000
         C           -0.487756694774     0.227138502687    -0.262717091256    12.000000000000
         C            1.842495305226     0.317593502687     0.109296908744    12.000000000000
         C           -2.648194694774    -0.716358497313     0.615665908744    12.000000000000
         C           -0.645364694774     1.691870502687     0.081985908744    12.000000000000
         C            3.013728305226    -0.648725497313     0.188396908744    12.000000000000
         H           -1.425878694774    -1.520245497313    -0.985359091256     1.007825032230
         H           -2.281190694774    -0.023633497313    -1.401714091256     1.007825032230
         H            2.049324305226     1.096708502687    -0.639165091256     1.007825032230
         H            1.715528305226     0.834625502687     1.071704908744     1.007825032230
         H           -3.541624694774    -1.290555497313     0.354359908744     1.007825032230
         H           -2.976436694774     0.248186502687     1.014312908744     1.007825032230
         H           -2.119064694774    -1.251283497313     1.409300908744     1.007825032230
         H           -0.416049694774     1.871645502687     1.138719908744     1.007825032230
         H           -1.662349694774     2.040163502687    -0.110363091256     1.007825032230
         H            0.047421305226     2.303965502687    -0.505022091256     1.007825032230
         H            3.938704305226    -0.125594497313     0.450638908744     1.007825032230
         H            2.820625305226    -1.414848497313     0.943041908744     1.007825032230
         H            3.154306305226    -1.149208497313    -0.772341091256     1.007825032230

  Basis Set: AUG-CC-PVTZ
    Blend: AUG-CC-PVTZ
  Basis Set: (AUG-CC-PVTZ AUX)
    Blend: AUG-CC-PVTZ-JKFIT
	 Reference Energy          =    -289.3130528913601438 [Eh]
	 Singles Energy            =      -0.0000000000000000 [Eh]
	 Same-Spin Energy          =      -0.3064348943364762 [Eh]
	 Opposite-Spin Energy      =      -1.0924205515957786 [Eh]
	 Correlation Energy        =      -1.3988554459322549 [Eh]
	 Total Energy              =    -290.7119083372924138 [Eh]

	 ================> DF-SCS-MP2 Energies <==================
	-----------------------------------------------------------
	 SCS Same-Spin Scale       =       0.3333333333333333 [-]
	 SCS Opposite-Spin Scale   =       1.2000000000000000 [-]
	 SCS Same-Spin Energy      =      -0.1021449647788254 [Eh]
	 SCS Opposite-Spin Energy  =      -1.3109046619149343 [Eh]
	 SCS Correlation Energy    =      -1.4130496266937598 [Eh]
	 SCS Total Energy          =    -290.7261025180538923 [Eh]
	-----------------------------------------------------------

  Dipole Moment: [D]
     X:    -0.8160      Y:     1.7645      Z:     0.3805     Total:     1.9809

*** Psi4 exiting successfully. Buy a developer a beer!
