                               Psi4 1.4a3.dev225

  ==> Input File <==

--------------------------------------------------------------------------
#psi4
#
memory 32 gb

molecule  {
0 1
  N        0.6335420    -0.4278790    -0.2728430
  C       -1.7141937    -0.5422816    -0.6050777
  C       -0.4830900     0.2151130    -0.2797610
  C        1.8471620     0.3055680     0.0922530
  C       -2.6435280    -0.7283840     0.5986220
  C       -0.6406980     1.6798450     0.0649420
  C        3.0183950    -0.6607510     0.1713530
  H       -1.4212120    -1.5322710    -1.0024030
  H       -2.2765240    -0.0356590    -1.4187580
  H        2.0539910     1.0846830    -0.6562090
  H        1.7201950     0.8226000     1.0546610
  H       -3.5369580    -1.3025810     0.3373160
  H       -2.9717700     0.2361610     0.9972690
  H       -2.1143980    -1.2633090     1.3922570
  H       -0.4113830     1.8596200     1.1216760
  H       -1.6576830     2.0281380    -0.1274070
  H        0.0520880     2.2919400    -0.5220660
  H        3.9433710    -0.1376200     0.4335950
  H        2.8252920    -1.4268740     0.9259980
  H        3.1589730    -1.1612340    -0.7893850
units angstrom
no_reorient  #important for SAPT in psi4, default
symmetry c1  #important for SAPT in psi4, default
}

set PROPERTIES_ORIGIN ["COM"]
properties('MP2/aug-cc-pvtz', properties = ['dipole'])
--------------------------------------------------------------------------

    Molecular point group: c1
  Charge       = 0
  Multiplicity = 1
  Basis Set: AUG-CC-PVTZ
    Blend: AUG-CC-PVTZ
  Basis Set: (AUG-CC-PVTZ AUX)
    Blend: AUG-CC-PVTZ-JKFIT

    Orbital Energies [Eh]
    ---------------------

    Doubly Occupied:

       1A    -15.539028     2A    -11.274811     3A    -11.242140
       4A    -11.231554     5A    -11.224268     6A    -11.220295
       7A    -11.202450     8A     -1.218649     9A     -1.061303
      10A     -0.997911    11A     -0.971973    12A     -0.879431
      13A     -0.816389    14A     -0.709063    15A     -0.652416
      16A     -0.627976    17A     -0.616205    18A     -0.589501
      19A     -0.575833    20A     -0.552499    21A     -0.537218
      22A     -0.513425    23A     -0.511345    24A     -0.492872
      25A     -0.481133    26A     -0.480382    27A     -0.386788
      28A     -0.380108

  @DF-RHF Final Energy:  -289.31295936423737

   => Energetics <=

    Nuclear Repulsion Energy =            307.9723327475432484
    One-Electron Energy =               -1000.5966514155012419
    Two-Electron Energy =                 403.3113593037206783
    Total Energy =                       -289.3129593642373720
  Basis Set: (AUG-CC-PVTZ AUX)
    Blend: AUG-CC-PVTZ-RI
    Molecular point group: c1

    Geometry (in Angstrom), charge = 0, multiplicity = 1:

       Center              X                  Y                   Z               Mass
    ------------   -----------------  -----------------  -----------------  -----------------
         N            0.625075121963    -0.414890105020    -0.257178225271    14.003074004430
         C           -1.722660578037    -0.529292705020    -0.589412925271    12.000000000000
         C           -0.491556878037     0.228101894980    -0.264096225271    12.000000000000
         C            1.838695121963     0.318556894980     0.107917774729    12.000000000000
         C           -2.651994878037    -0.715395105020     0.614286774729    12.000000000000
         C           -0.649164878037     1.692833894980     0.080606774729    12.000000000000
         C            3.009928121963    -0.647762105020     0.187017774729    12.000000000000
         H           -1.429678878037    -1.519282105020    -0.986738225271     1.007825032230
         H           -2.284990878037    -0.022670105020    -1.403093225271     1.007825032230
         H            2.045524121963     1.097671894980    -0.640544225271     1.007825032230
         H            1.711728121963     0.835588894980     1.070325774729     1.007825032230
         H           -3.545424878037    -1.289592105020     0.352980774729     1.007825032230
         H           -2.980236878037     0.249149894980     1.012933774729     1.007825032230
         H           -2.122864878037    -1.250320105020     1.407921774729     1.007825032230
         H           -0.419849878037     1.872608894980     1.137340774729     1.007825032230
         H           -1.666149878037     2.041126894980    -0.111742225271     1.007825032230
         H            0.043621121963     2.304928894980    -0.506401225271     1.007825032230
         H            3.934904121963    -0.124631105020     0.449259774729     1.007825032230
         H            2.816825121963    -1.413885105020     0.941662774729     1.007825032230
         H            3.150506121963    -1.148245105020    -0.773720225271     1.007825032230

  Basis Set: AUG-CC-PVTZ
    Blend: AUG-CC-PVTZ
  Basis Set: (AUG-CC-PVTZ AUX)
    Blend: AUG-CC-PVTZ-JKFIT
	 Reference Energy          =    -289.3129593642373720 [Eh]
	 Singles Energy            =      -0.0000000000000000 [Eh]
	 Same-Spin Energy          =      -0.3065607133633693 [Eh]
	 Opposite-Spin Energy      =      -1.0925319002421372 [Eh]
	 Correlation Energy        =      -1.3990926136055064 [Eh]
	 Total Energy              =    -290.7120519778428616 [Eh]

	 ================> DF-SCS-MP2 Energies <==================
	-----------------------------------------------------------
	 SCS Same-Spin Scale       =       0.3333333333333333 [-]
	 SCS Opposite-Spin Scale   =       1.2000000000000000 [-]
	 SCS Same-Spin Energy      =      -0.1021869044544564 [Eh]
	 SCS Opposite-Spin Energy  =      -1.3110382802905647 [Eh]
	 SCS Correlation Energy    =      -1.4132251847450210 [Eh]
	 SCS Total Energy          =    -290.7261845489824168 [Eh]
	-----------------------------------------------------------

  Dipole Moment: [D]
     X:    -0.8299      Y:     1.7527      Z:     0.3853     Total:     1.9772

*** Psi4 exiting successfully. Buy a developer a beer!
