                               Psi4 1.4a3.dev225

  ==> Input File <==

--------------------------------------------------------------------------
#psi4
#
memory 32 gb

molecule  {
0 1
  N        0.6335420    -0.4278790    -0.2728430
  C       -1.7313700    -0.5561300    -0.6201830
  C       -0.4830900     0.2151130    -0.2797610
  C        1.8471620     0.3055680     0.0922530
  C       -2.6435280    -0.7283840     0.5986220
  C       -0.6406980     1.6798450     0.0649420
  C        3.0140332    -0.6677383     0.1461269
  H       -1.4212120    -1.5322710    -1.0024030
  H       -2.2765240    -0.0356590    -1.4187580
  H        2.0539910     1.0846830    -0.6562090
  H        1.7201950     0.8226000     1.0546610
  H       -3.5369580    -1.3025810     0.3373160
  H       -2.9717700     0.2361610     0.9972690
  H       -2.1143980    -1.2633090     1.3922570
  H       -0.4113830     1.8596200     1.1216760
  H       -1.6576830     2.0281380    -0.1274070
  H        0.0520880     2.2919400    -0.5220660
  H        3.9433710    -0.1376200     0.4335950
  H        2.8252920    -1.4268740     0.9259980
  H        3.1589730    -1.1612340    -0.7893850
units angstrom
no_reorient  #important for SAPT in psi4, default
symmetry c1  #important for SAPT in psi4, default
}

set PROPERTIES_ORIGIN ["COM"]
properties('MP2/aug-cc-pvtz', properties = ['dipole'])
--------------------------------------------------------------------------

    Molecular point group: c1
  Charge       = 0
  Multiplicity = 1
  Basis Set: AUG-CC-PVTZ
    Blend: AUG-CC-PVTZ
  Basis Set: (AUG-CC-PVTZ AUX)
    Blend: AUG-CC-PVTZ-JKFIT

    Orbital Energies [Eh]
    ---------------------

    Doubly Occupied:

       1A    -15.538444     2A    -11.275555     3A    -11.242069
       4A    -11.231699     5A    -11.223523     6A    -11.219862
       7A    -11.202429     8A     -1.217345     9A     -1.059394
      10A     -0.998147    11A     -0.971660    12A     -0.877266
      13A     -0.817243    14A     -0.708729    15A     -0.651614
      16A     -0.627886    17A     -0.615800    18A     -0.590659
      19A     -0.575986    20A     -0.551886    21A     -0.533693
      22A     -0.514851    23A     -0.513125    24A     -0.493322
      25A     -0.485752    26A     -0.476500    27A     -0.385561
      28A     -0.380526

  @DF-RHF Final Energy:  -289.31323170978948

   => Energetics <=

    Nuclear Repulsion Energy =            307.6482654738952078
    One-Electron Energy =                -999.9619409646916210
    Two-Electron Energy =                 403.0004437810069362
    Total Energy =                       -289.3132317097894770
  Basis Set: (AUG-CC-PVTZ AUX)
    Blend: AUG-CC-PVTZ-RI
    Molecular point group: c1

    Geometry (in Angstrom), charge = 0, multiplicity = 1:

       Center              X                  Y                   Z               Mass
    ------------   -----------------  -----------------  -----------------  -----------------
         N            0.627683040061    -0.412367236285    -0.252294740286    14.003074004430
         C           -1.737228959939    -0.540618236285    -0.599634740286    12.000000000000
         C           -0.488948959939     0.230624763715    -0.259212740286    12.000000000000
         C            1.841303040061     0.321079763715     0.112801259714    12.000000000000
         C           -2.649386959939    -0.712872236285     0.619170259714    12.000000000000
         C           -0.646556959939     1.695356763715     0.085490259714    12.000000000000
         C            3.008174240061    -0.652226536285     0.166675159714    12.000000000000
         H           -1.427070959939    -1.516759236285    -0.981854740286     1.007825032230
         H           -2.282382959939    -0.020147236285    -1.398209740286     1.007825032230
         H            2.048132040061     1.100194763715    -0.635660740286     1.007825032230
         H            1.714336040061     0.838111763715     1.075209259714     1.007825032230
         H           -3.542816959939    -1.287069236285     0.357864259714     1.007825032230
         H           -2.977628959939     0.251672763715     1.017817259714     1.007825032230
         H           -2.120256959939    -1.247797236285     1.412805259714     1.007825032230
         H           -0.417241959939     1.875131763715     1.142224259714     1.007825032230
         H           -1.663541959939     2.043649763715    -0.106858740286     1.007825032230
         H            0.046229040061     2.307451763715    -0.501517740286     1.007825032230
         H            3.937512040061    -0.122108236285     0.454143259714     1.007825032230
         H            2.819433040061    -1.411362236285     0.946546259714     1.007825032230
         H            3.153114040061    -1.145722236285    -0.768836740286     1.007825032230

  Basis Set: AUG-CC-PVTZ
    Blend: AUG-CC-PVTZ
  Basis Set: (AUG-CC-PVTZ AUX)
    Blend: AUG-CC-PVTZ-JKFIT
	 Reference Energy          =    -289.3132317097894770 [Eh]
	 Singles Energy            =      -0.0000000000000000 [Eh]
	 Same-Spin Energy          =      -0.3063570864897116 [Eh]
	 Opposite-Spin Energy      =      -1.0923239631719266 [Eh]
	 Correlation Energy        =      -1.3986810496616382 [Eh]
	 Total Energy              =    -290.7119127594511383 [Eh]

	 ================> DF-SCS-MP2 Energies <==================
	-----------------------------------------------------------
	 SCS Same-Spin Scale       =       0.3333333333333333 [-]
	 SCS Opposite-Spin Scale   =       1.2000000000000000 [-]
	 SCS Same-Spin Energy      =      -0.1021190288299039 [Eh]
	 SCS Opposite-Spin Energy  =      -1.3107887558063118 [Eh]
	 SCS Correlation Energy    =      -1.4129077846362157 [Eh]
	 SCS Total Energy          =    -290.7261394944256949 [Eh]
	-----------------------------------------------------------

  Dipole Moment: [D]
     X:    -0.8263      Y:     1.7578      Z:     0.3708     Total:     1.9775

*** Psi4 exiting successfully. Buy a developer a beer!
