                               Psi4 1.4a3.dev225

  ==> Input File <==

--------------------------------------------------------------------------
#psi4
#
memory 32 gb

molecule  {
0 1
  N        0.6335420    -0.4278790    -0.2728430
  C       -1.7313700    -0.5561300    -0.6201830
  C       -0.4830900     0.2151130    -0.2797610
  C        1.8471620     0.3055680     0.0922530
  C       -2.5200683    -0.8016091     0.6701209
  C       -0.6406980     1.6798450     0.0649420
  C        3.0183950    -0.6607510     0.1713530
  H       -1.4212120    -1.5322710    -1.0024030
  H       -2.2765240    -0.0356590    -1.4187580
  H        2.0539910     1.0846830    -0.6562090
  H        1.7201950     0.8226000     1.0546610
  H       -3.5369580    -1.3025810     0.3373160
  H       -2.9717700     0.2361610     0.9972690
  H       -2.1143980    -1.2633090     1.3922570
  H       -0.4113830     1.8596200     1.1216760
  H       -1.6576830     2.0281380    -0.1274070
  H        0.0520880     2.2919400    -0.5220660
  H        3.9433710    -0.1376200     0.4335950
  H        2.8252920    -1.4268740     0.9259980
  H        3.1589730    -1.1612340    -0.7893850
units angstrom
no_reorient  #important for SAPT in psi4, default
symmetry c1  #important for SAPT in psi4, default
}

set PROPERTIES_ORIGIN ["COM"]
properties('MP2/aug-cc-pvtz', properties = ['dipole'])
--------------------------------------------------------------------------

    Molecular point group: c1
  Charge       = 0
  Multiplicity = 1
  Basis Set: AUG-CC-PVTZ
    Blend: AUG-CC-PVTZ
  Basis Set: (AUG-CC-PVTZ AUX)
    Blend: AUG-CC-PVTZ-JKFIT

    Orbital Energies [Eh]
    ---------------------

    Doubly Occupied:

       1A    -15.537761     2A    -11.274906     3A    -11.241645
       4A    -11.231365     5A    -11.225813     6A    -11.224442
       7A    -11.202227     8A     -1.217210     9A     -1.060999
      10A     -0.998781    11A     -0.971726    12A     -0.880710
      13A     -0.819725    14A     -0.709915    15A     -0.651133
      16A     -0.629823    17A     -0.623055    18A     -0.592140
      19A     -0.579925    20A     -0.548369    21A     -0.534760
      22A     -0.526260    23A     -0.510928    24A     -0.494109
      25A     -0.476129    26A     -0.461777    27A     -0.384495
      28A     -0.379390

  @DF-RHF Final Energy:  -289.28175831708506

   => Energetics <=

    Nuclear Repulsion Energy =            308.1476402690184955
    One-Electron Energy =               -1000.8797644857338582
    Two-Electron Energy =                 403.4503658996303557
    Total Energy =                       -289.2817583170850639
  Basis Set: (AUG-CC-PVTZ AUX)
    Blend: AUG-CC-PVTZ-RI
    Molecular point group: c1

    Geometry (in Angstrom), charge = 0, multiplicity = 1:

       Center              X                  Y                   Z               Mass
    ------------   -----------------  -----------------  -----------------  -----------------
         N            0.612205908692    -0.404346902208    -0.264006584785    14.003074004430
         C           -1.752706091308    -0.532597902208    -0.611346584785    12.000000000000
         C           -0.504426091308     0.238645097792    -0.270924584785    12.000000000000
         C            1.825825908692     0.329100097792     0.101089415215    12.000000000000
         C           -2.541404391308    -0.778077002208     0.678957315215    12.000000000000
         C           -0.662034091308     1.703377097792     0.073778415215    12.000000000000
         C            2.997058908692    -0.637218902208     0.180189415215    12.000000000000
         H           -1.442548091308    -1.508738902208    -0.993566584785     1.007825032230
         H           -2.297860091308    -0.012126902208    -1.409921584785     1.007825032230
         H            2.032654908692     1.108215097792    -0.647372584785     1.007825032230
         H            1.698858908692     0.846132097792     1.063497415215     1.007825032230
         H           -3.558294091308    -1.279048902208     0.346152415215     1.007825032230
         H           -2.993106091308     0.259693097792     1.006105415215     1.007825032230
         H           -2.135734091308    -1.239776902208     1.401093415215     1.007825032230
         H           -0.432719091308     1.883152097792     1.130512415215     1.007825032230
         H           -1.679019091308     2.051670097792    -0.118570584785     1.007825032230
         H            0.030751908692     2.315472097792    -0.513229584785     1.007825032230
         H            3.922034908692    -0.114087902208     0.442431415215     1.007825032230
         H            2.803955908692    -1.403341902208     0.934834415215     1.007825032230
         H            3.137636908692    -1.137701902208    -0.780548584785     1.007825032230

  Basis Set: AUG-CC-PVTZ
    Blend: AUG-CC-PVTZ
  Basis Set: (AUG-CC-PVTZ AUX)
    Blend: AUG-CC-PVTZ-JKFIT
	 Reference Energy          =    -289.2817583170850639 [Eh]
	 Singles Energy            =      -0.0000000000000000 [Eh]
	 Same-Spin Energy          =      -0.3068199544335656 [Eh]
	 Opposite-Spin Energy      =      -1.0937377543530389 [Eh]
	 Correlation Energy        =      -1.4005577087866046 [Eh]
	 Total Energy              =    -290.6823160258716712 [Eh]

	 ================> DF-SCS-MP2 Energies <==================
	-----------------------------------------------------------
	 SCS Same-Spin Scale       =       0.3333333333333333 [-]
	 SCS Opposite-Spin Scale   =       1.2000000000000000 [-]
	 SCS Same-Spin Energy      =      -0.1022733181445219 [Eh]
	 SCS Opposite-Spin Energy  =      -1.3124853052236467 [Eh]
	 SCS Correlation Energy    =      -1.4147586233681686 [Eh]
	 SCS Total Energy          =    -290.6965169404532503 [Eh]
	-----------------------------------------------------------

  Dipole Moment: [D]
     X:    -0.7940      Y:     1.7414      Z:     0.3531     Total:     1.9462

*** Psi4 exiting successfully. Buy a developer a beer!
