                               Psi4 1.4a3.dev225

  ==> Input File <==

--------------------------------------------------------------------------
#psi4
#
memory 32 gb

molecule  {
0 1
  N        0.6335420    -0.4278790    -0.2728430
  C       -1.7511250    -0.5433285    -0.6328652
  C       -0.4830900     0.2151130    -0.2797610
  C        1.8471620     0.3055680     0.0922530
  C       -2.6435280    -0.7283840     0.5986220
  C       -0.6406980     1.6798450     0.0649420
  C        3.0183950    -0.6607510     0.1713530
  H       -1.4212120    -1.5322710    -1.0024030
  H       -2.2765240    -0.0356590    -1.4187580
  H        2.0539910     1.0846830    -0.6562090
  H        1.7201950     0.8226000     1.0546610
  H       -3.5369580    -1.3025810     0.3373160
  H       -2.9717700     0.2361610     0.9972690
  H       -2.1143980    -1.2633090     1.3922570
  H       -0.4113830     1.8596200     1.1216760
  H       -1.6576830     2.0281380    -0.1274070
  H        0.0520880     2.2919400    -0.5220660
  H        3.9433710    -0.1376200     0.4335950
  H        2.8252920    -1.4268740     0.9259980
  H        3.1589730    -1.1612340    -0.7893850
units angstrom
no_reorient  #important for SAPT in psi4, default
symmetry c1  #important for SAPT in psi4, default
}

set PROPERTIES_ORIGIN ["COM"]
properties('MP2/aug-cc-pvtz', properties = ['dipole'])
--------------------------------------------------------------------------

    Molecular point group: c1
  Charge       = 0
  Multiplicity = 1
  Basis Set: AUG-CC-PVTZ
    Blend: AUG-CC-PVTZ
  Basis Set: (AUG-CC-PVTZ AUX)
    Blend: AUG-CC-PVTZ-JKFIT

    Orbital Energies [Eh]
    ---------------------

    Doubly Occupied:

       1A    -15.538893     2A    -11.276317     3A    -11.242273
       4A    -11.231181     5A    -11.223243     6A    -11.219841
       7A    -11.202400     8A     -1.216639     9A     -1.058756
      10A     -0.998411    11A     -0.971399    12A     -0.876264
      13A     -0.818076    14A     -0.708403    15A     -0.650325
      16A     -0.627854    17A     -0.617109    18A     -0.590210
      19A     -0.575571    20A     -0.551584    21A     -0.534367
      22A     -0.518066    23A     -0.511341    24A     -0.493799
      25A     -0.485520    26A     -0.475201    27A     -0.384675
      28A     -0.381111

  @DF-RHF Final Energy:  -289.31332207995490

   => Energetics <=

    Nuclear Repulsion Energy =            307.3933849075783087
    One-Electron Energy =                -999.4557560564819596
    Two-Electron Energy =                 402.7490490689486933
    Total Energy =                       -289.3133220799549008
  Basis Set: (AUG-CC-PVTZ AUX)
    Blend: AUG-CC-PVTZ-RI
    Molecular point group: c1

    Geometry (in Angstrom), charge = 0, multiplicity = 1:

       Center              X                  Y                   Z               Mass
    ------------   -----------------  -----------------  -----------------  -----------------
         N            0.629546909431    -0.414763342239    -0.253813605173    14.003074004430
         C           -1.755120090569    -0.530212842239    -0.613835805173    12.000000000000
         C           -0.487085090569     0.228228657761    -0.260731605173    12.000000000000
         C            1.843166909431     0.318683657761     0.111282394827    12.000000000000
         C           -2.647523090569    -0.715268342239     0.617651394827    12.000000000000
         C           -0.644693090569     1.692960657761     0.083971394827    12.000000000000
         C            3.014399909431    -0.647635342239     0.190382394827    12.000000000000
         H           -1.425207090569    -1.519155342239    -0.983373605173     1.007825032230
         H           -2.280519090569    -0.022543342239    -1.399728605173     1.007825032230
         H            2.049995909431     1.097798657761    -0.637179605173     1.007825032230
         H            1.716199909431     0.835715657761     1.073690394827     1.007825032230
         H           -3.540953090569    -1.289465342239     0.356345394827     1.007825032230
         H           -2.975765090569     0.249276657761     1.016298394827     1.007825032230
         H           -2.118393090569    -1.250193342239     1.411286394827     1.007825032230
         H           -0.415378090569     1.872735657761     1.140705394827     1.007825032230
         H           -1.661678090569     2.041253657761    -0.108377605173     1.007825032230
         H            0.048092909431     2.305055657761    -0.503036605173     1.007825032230
         H            3.939375909431    -0.124504342239     0.452624394827     1.007825032230
         H            2.821296909431    -1.413758342239     0.945027394827     1.007825032230
         H            3.154977909431    -1.148118342239    -0.770355605173     1.007825032230

  Basis Set: AUG-CC-PVTZ
    Blend: AUG-CC-PVTZ
  Basis Set: (AUG-CC-PVTZ AUX)
    Blend: AUG-CC-PVTZ-JKFIT
	 Reference Energy          =    -289.3133220799549008 [Eh]
	 Singles Energy            =      -0.0000000000000000 [Eh]
	 Same-Spin Energy          =      -0.3062897058683992 [Eh]
	 Opposite-Spin Energy      =      -1.0922695285560635 [Eh]
	 Correlation Energy        =      -1.3985592344244626 [Eh]
	 Total Energy              =    -290.7118813143793545 [Eh]

	 ================> DF-SCS-MP2 Energies <==================
	-----------------------------------------------------------
	 SCS Same-Spin Scale       =       0.3333333333333333 [-]
	 SCS Opposite-Spin Scale   =       1.2000000000000000 [-]
	 SCS Same-Spin Energy      =      -0.1020965686227997 [Eh]
	 SCS Opposite-Spin Energy  =      -1.3107234342672762 [Eh]
	 SCS Correlation Energy    =      -1.4128200028900759 [Eh]
	 SCS Total Energy          =    -290.7261420828450014 [Eh]
	-----------------------------------------------------------

  Dipole Moment: [D]
     X:    -0.8155      Y:     1.7686      Z:     0.3741     Total:     1.9832

*** Psi4 exiting successfully. Buy a developer a beer!
