                               Psi4 1.4a3.dev225

  ==> Input File <==

--------------------------------------------------------------------------
#psi4
#
memory 32 gb

molecule  {
0 1
  N        0.6335420    -0.4278790    -0.2728430
  C       -1.7313700    -0.5561300    -0.6201830
  C       -0.5186955     0.2220170    -0.1810773
  C        1.8471620     0.3055680     0.0922530
  C       -2.6435280    -0.7283840     0.5986220
  C       -0.6406980     1.6798450     0.0649420
  C        3.0183950    -0.6607510     0.1713530
  H       -1.4212120    -1.5322710    -1.0024030
  H       -2.2765240    -0.0356590    -1.4187580
  H        2.0539910     1.0846830    -0.6562090
  H        1.7201950     0.8226000     1.0546610
  H       -3.5369580    -1.3025810     0.3373160
  H       -2.9717700     0.2361610     0.9972690
  H       -2.1143980    -1.2633090     1.3922570
  H       -0.4113830     1.8596200     1.1216760
  H       -1.6576830     2.0281380    -0.1274070
  H        0.0520880     2.2919400    -0.5220660
  H        3.9433710    -0.1376200     0.4335950
  H        2.8252920    -1.4268740     0.9259980
  H        3.1589730    -1.1612340    -0.7893850
units angstrom
no_reorient  #important for SAPT in psi4, default
symmetry c1  #important for SAPT in psi4, default
}

set PROPERTIES_ORIGIN ["COM"]
properties('MP2/aug-cc-pvtz', properties = ['dipole'])
--------------------------------------------------------------------------

    Molecular point group: c1
  Charge       = 0
  Multiplicity = 1
  Basis Set: AUG-CC-PVTZ
    Blend: AUG-CC-PVTZ
  Basis Set: (AUG-CC-PVTZ AUX)
    Blend: AUG-CC-PVTZ-JKFIT

    Orbital Energies [Eh]
    ---------------------

    Doubly Occupied:

       1A    -15.541887     2A    -11.279620     3A    -11.240290
       4A    -11.232972     5A    -11.224801     6A    -11.218896
       7A    -11.201534     8A     -1.206524     9A     -1.062252
      10A     -0.998548    11A     -0.973342    12A     -0.874710
      13A     -0.813454    14A     -0.712928    15A     -0.652522
      16A     -0.625711    17A     -0.618266    18A     -0.591666
      19A     -0.575193    20A     -0.555634    21A     -0.532168
      22A     -0.515930    23A     -0.510248    24A     -0.492579
      25A     -0.487165    26A     -0.472401    27A     -0.389033
      28A     -0.369640

  @DF-RHF Final Energy:  -289.30416190190635

   => Energetics <=

    Nuclear Repulsion Energy =            307.5152425316831568
    One-Electron Energy =                -999.6989883805039199
    Two-Electron Energy =                 402.8795839469144084
    Total Energy =                       -289.3041619019063546
  Basis Set: (AUG-CC-PVTZ AUX)
    Blend: AUG-CC-PVTZ-RI
    Molecular point group: c1

    Geometry (in Angstrom), charge = 0, multiplicity = 1:

       Center              X                  Y                   Z               Mass
    ------------   -----------------  -----------------  -----------------  -----------------
         N            0.631466150488    -0.414049249678    -0.267298227590    14.003074004430
         C           -1.733445849512    -0.542300249678    -0.614638227590    12.000000000000
         C           -0.520771349512     0.235846750322    -0.175532527590    12.000000000000
         C            1.845086150488     0.319397750322     0.097797772410    12.000000000000
         C           -2.645603849512    -0.714554249678     0.604166772410    12.000000000000
         C           -0.642773849512     1.693674750322     0.070486772410    12.000000000000
         C            3.016319150488    -0.646921249678     0.176897772410    12.000000000000
         H           -1.423287849512    -1.518441249678    -0.996858227590     1.007825032230
         H           -2.278599849512    -0.021829249678    -1.413213227590     1.007825032230
         H            2.051915150488     1.098512750322    -0.650664227590     1.007825032230
         H            1.718119150488     0.836429750322     1.060205772410     1.007825032230
         H           -3.539033849512    -1.288751249678     0.342860772410     1.007825032230
         H           -2.973845849512     0.249990750322     1.002813772410     1.007825032230
         H           -2.116473849512    -1.249479249678     1.397801772410     1.007825032230
         H           -0.413458849512     1.873449750322     1.127220772410     1.007825032230
         H           -1.659758849512     2.041967750322    -0.121862227590     1.007825032230
         H            0.050012150488     2.305769750322    -0.516521227590     1.007825032230
         H            3.941295150488    -0.123790249678     0.439139772410     1.007825032230
         H            2.823216150488    -1.413044249678     0.931542772410     1.007825032230
         H            3.156897150488    -1.147404249678    -0.783840227590     1.007825032230

  Basis Set: AUG-CC-PVTZ
    Blend: AUG-CC-PVTZ
  Basis Set: (AUG-CC-PVTZ AUX)
    Blend: AUG-CC-PVTZ-JKFIT
	 Reference Energy          =    -289.3041619019063546 [Eh]
	 Singles Energy            =      -0.0000000000000000 [Eh]
	 Same-Spin Energy          =      -0.3076857045387592 [Eh]
	 Opposite-Spin Energy      =      -1.0949705825217015 [Eh]
	 Correlation Energy        =      -1.4026562870604606 [Eh]
	 Total Energy              =    -290.7068181889667926 [Eh]

	 ================> DF-SCS-MP2 Energies <==================
	-----------------------------------------------------------
	 SCS Same-Spin Scale       =       0.3333333333333333 [-]
	 SCS Opposite-Spin Scale   =       1.2000000000000000 [-]
	 SCS Same-Spin Energy      =      -0.1025619015129197 [Eh]
	 SCS Opposite-Spin Energy  =      -1.3139646990260418 [Eh]
	 SCS Correlation Energy    =      -1.4165266005389616 [Eh]
	 SCS Total Energy          =    -290.7206885024453413 [Eh]
	-----------------------------------------------------------

  Dipole Moment: [D]
     X:    -0.8519      Y:     1.8303      Z:     0.3560     Total:     2.0500

*** Psi4 exiting successfully. Buy a developer a beer!
