                               Psi4 1.4a3.dev225

  ==> Input File <==

--------------------------------------------------------------------------
#psi4
#
memory 32 gb

molecule  {
0 1
  N        0.6335420    -0.4278790    -0.2728430
  C       -1.7313700    -0.5561300    -0.6201830
  C       -0.4830900     0.2151130    -0.2797610
  C        1.8471620     0.3055680     0.0922530
  C       -2.6435280    -0.7283840     0.5986220
  C       -0.6406980     1.6798450     0.0649420
  C        3.0183950    -0.6607510     0.1713530
  H       -1.4212120    -1.5322710    -1.0024030
  H       -2.2765240    -0.0356590    -1.4187580
  H        2.0633923     1.1200974    -0.6902301
  H        1.7201950     0.8226000     1.0546610
  H       -3.5369580    -1.3025810     0.3373160
  H       -2.9717700     0.2361610     0.9972690
  H       -2.1143980    -1.2633090     1.3922570
  H       -0.4113830     1.8596200     1.1216760
  H       -1.6576830     2.0281380    -0.1274070
  H        0.0520880     2.2919400    -0.5220660
  H        3.9433710    -0.1376200     0.4335950
  H        2.8252920    -1.4268740     0.9259980
  H        3.1589730    -1.1612340    -0.7893850
units angstrom
no_reorient  #important for SAPT in psi4, default
symmetry c1  #important for SAPT in psi4, default
}

set PROPERTIES_ORIGIN ["COM"]
properties('MP2/aug-cc-pvtz', properties = ['dipole'])
--------------------------------------------------------------------------

    Molecular point group: c1
  Charge       = 0
  Multiplicity = 1
  Basis Set: AUG-CC-PVTZ
    Blend: AUG-CC-PVTZ
  Basis Set: (AUG-CC-PVTZ AUX)
    Blend: AUG-CC-PVTZ-JKFIT

    Orbital Energies [Eh]
    ---------------------

    Doubly Occupied:

       1A    -15.539291     2A    -11.276202     3A    -11.248187
       4A    -11.231630     5A    -11.223831     6A    -11.220086
       7A    -11.202917     8A     -1.217484     9A     -1.058983
      10A     -0.997751    11A     -0.971607    12A     -0.877306
      13A     -0.814415    14A     -0.707447    15A     -0.651636
      16A     -0.625766    17A     -0.613784    18A     -0.590375
      19A     -0.574843    20A     -0.552088    21A     -0.535938
      22A     -0.515349    23A     -0.510788    24A     -0.490790
      25A     -0.486122    26A     -0.477848    27A     -0.385597
      28A     -0.379827

  @DF-RHF Final Energy:  -289.31194066758542

   => Energetics <=

    Nuclear Repulsion Energy =            307.3812152135878932
    One-Electron Energy =                -999.4305345659528257
    Two-Electron Energy =                 402.7373786847795145
    Total Energy =                       -289.3119406675854179
  Basis Set: (AUG-CC-PVTZ AUX)
    Blend: AUG-CC-PVTZ-RI
    Molecular point group: c1

    Geometry (in Angstrom), charge = 0, multiplicity = 1:

       Center              X                  Y                   Z               Mass
    ------------   -----------------  -----------------  -----------------  -----------------
         N            0.627059291607    -0.413573425284    -0.255003245679    14.003074004430
         C           -1.737852708393    -0.541824425284    -0.602343245679    12.000000000000
         C           -0.489572708393     0.229418574716    -0.261921245679    12.000000000000
         C            1.840679291607     0.319873574716     0.110092754321    12.000000000000
         C           -2.650010708393    -0.714078425284     0.616461754321    12.000000000000
         C           -0.647180708393     1.694150574716     0.082781754321    12.000000000000
         C            3.011912291607    -0.646445425284     0.189192754321    12.000000000000
         H           -1.427694708393    -1.517965425284    -0.984563245679     1.007825032230
         H           -2.283006708393    -0.021353425284    -1.400918245679     1.007825032230
         H            2.056909591607     1.134402974716    -0.672390345679     1.007825032230
         H            1.713712291607     0.836905574716     1.072500754321     1.007825032230
         H           -3.543440708393    -1.288275425284     0.355155754321     1.007825032230
         H           -2.978252708393     0.250466574716     1.015108754321     1.007825032230
         H           -2.120880708393    -1.249003425284     1.410096754321     1.007825032230
         H           -0.417865708393     1.873925574716     1.139515754321     1.007825032230
         H           -1.664165708393     2.042443574716    -0.109567245679     1.007825032230
         H            0.045605291607     2.306245574716    -0.504226245679     1.007825032230
         H            3.936888291607    -0.123314425284     0.451434754321     1.007825032230
         H            2.818809291607    -1.412568425284     0.943837754321     1.007825032230
         H            3.152490291607    -1.146928425284    -0.771545245679     1.007825032230

  Basis Set: AUG-CC-PVTZ
    Blend: AUG-CC-PVTZ
  Basis Set: (AUG-CC-PVTZ AUX)
    Blend: AUG-CC-PVTZ-JKFIT
	 Reference Energy          =    -289.3119406675854179 [Eh]
	 Singles Energy            =      -0.0000000000000000 [Eh]
	 Same-Spin Energy          =      -0.3064106132662909 [Eh]
	 Opposite-Spin Energy      =      -1.0926247691886810 [Eh]
	 Correlation Energy        =      -1.3990353824549719 [Eh]
	 Total Energy              =    -290.7109760500404150 [Eh]

	 ================> DF-SCS-MP2 Energies <==================
	-----------------------------------------------------------
	 SCS Same-Spin Scale       =       0.3333333333333333 [-]
	 SCS Opposite-Spin Scale   =       1.2000000000000000 [-]
	 SCS Same-Spin Energy      =      -0.1021368710887636 [Eh]
	 SCS Opposite-Spin Energy  =      -1.3111497230264171 [Eh]
	 SCS Correlation Energy    =      -1.4132865941151806 [Eh]
	 SCS Total Energy          =    -290.7252272617005815 [Eh]
	-----------------------------------------------------------

  Dipole Moment: [D]
     X:    -0.8362      Y:     1.7267      Z:     0.4001     Total:     1.9598

*** Psi4 exiting successfully. Buy a developer a beer!
