                               Psi4 1.4a3.dev225

  ==> Input File <==

--------------------------------------------------------------------------
#psi4
#
memory 32 gb

molecule  {
0 1
  N        0.6335420    -0.4278790    -0.2728430
  C       -1.7313700    -0.5561300    -0.6201830
  C       -0.4830900     0.2151130    -0.2797610
  C        1.8471620     0.3055680     0.0922530
  C       -2.6435280    -0.7283840     0.5986220
  C       -0.6406980     1.6798450     0.0649420
  C        3.0183950    -0.6607510     0.1713530
  H       -1.4212120    -1.5322710    -1.0024030
  H       -2.2765240    -0.0356590    -1.4187580
  H        2.0539910     1.0846830    -0.6562090
  H        1.7201950     0.8226000     1.0546610
  H       -3.5369580    -1.3025810     0.3373160
  H       -2.9717700     0.2361610     0.9972690
  H       -2.1143980    -1.2633090     1.3922570
  H       -0.4113830     1.8596200     1.1216760
  H       -1.6576830     2.0281380    -0.1274070
  H        0.0520880     2.2919400    -0.5220660
  H        3.9433710    -0.1376200     0.4335950
  H        2.8164549    -1.4619344     0.9605331
  H        3.1589730    -1.1612340    -0.7893850
units angstrom
no_reorient  #important for SAPT in psi4, default
symmetry c1  #important for SAPT in psi4, default
}

set PROPERTIES_ORIGIN ["COM"]
properties('MP2/aug-cc-pvtz', properties = ['dipole'])
--------------------------------------------------------------------------

    Molecular point group: c1
  Charge       = 0
  Multiplicity = 1
  Basis Set: AUG-CC-PVTZ
    Blend: AUG-CC-PVTZ
  Basis Set: (AUG-CC-PVTZ AUX)
    Blend: AUG-CC-PVTZ-JKFIT

    Orbital Energies [Eh]
    ---------------------

    Doubly Occupied:

       1A    -15.538811     2A    -11.275828     3A    -11.242661
       4A    -11.231786     5A    -11.223631     6A    -11.219920
       7A    -11.208490     8A     -1.217481     9A     -1.059174
      10A     -0.997183    11A     -0.971302    12A     -0.876385
      13A     -0.815091    14A     -0.708670    15A     -0.651932
      16A     -0.627128    17A     -0.614701    18A     -0.590307
      19A     -0.574652    20A     -0.551800    21A     -0.535865
      22A     -0.515135    23A     -0.510036    24A     -0.488211
      25A     -0.485557    26A     -0.477791    27A     -0.385534
      28A     -0.380722

  @DF-RHF Final Energy:  -289.31203623479104

   => Energetics <=

    Nuclear Repulsion Energy =            307.4111280161279751
    One-Electron Energy =                -999.4947634593229395
    Two-Electron Energy =                 402.7715992084038703
    Total Energy =                       -289.3120362347910373
  Basis Set: (AUG-CC-PVTZ AUX)
    Blend: AUG-CC-PVTZ-RI
    Molecular point group: c1

    Geometry (in Angstrom), charge = 0, multiplicity = 1:

       Center              X                  Y                   Z               Mass
    ------------   -----------------  -----------------  -----------------  -----------------
         N            0.627244763109    -0.412856746899    -0.255700413272    14.003074004430
         C           -1.737667236891    -0.541107746899    -0.603040413272    12.000000000000
         C           -0.489387236891     0.230135253101    -0.262618413272    12.000000000000
         C            1.840864763109     0.320590253101     0.109395586728    12.000000000000
         C           -2.649825236891    -0.713361746899     0.615764586728    12.000000000000
         C           -0.646995236891     1.694867253101     0.082084586728    12.000000000000
         C            3.012097763109    -0.645728746899     0.188495586728    12.000000000000
         H           -1.427509236891    -1.517248746899    -0.985260413272     1.007825032230
         H           -2.282821236891    -0.020636746899    -1.401615413272     1.007825032230
         H            2.047693763109     1.099705253101    -0.639066413272     1.007825032230
         H            1.713897763109     0.837622253101     1.071803586728     1.007825032230
         H           -3.543255236891    -1.287558746899     0.354458586728     1.007825032230
         H           -2.978067236891     0.251183253101     1.014411586728     1.007825032230
         H           -2.120695236891    -1.248286746899     1.409399586728     1.007825032230
         H           -0.417680236891     1.874642253101     1.138818586728     1.007825032230
         H           -1.663980236891     2.043160253101    -0.110264413272     1.007825032230
         H            0.045790763109     2.306962253101    -0.504923413272     1.007825032230
         H            3.937073763109    -0.122597746899     0.450737586728     1.007825032230
         H            2.810157663109    -1.446912146899     0.977675686728     1.007825032230
         H            3.152675763109    -1.146211746899    -0.772242413272     1.007825032230

  Basis Set: AUG-CC-PVTZ
    Blend: AUG-CC-PVTZ
  Basis Set: (AUG-CC-PVTZ AUX)
    Blend: AUG-CC-PVTZ-JKFIT
	 Reference Energy          =    -289.3120362347910373 [Eh]
	 Singles Energy            =      -0.0000000000000000 [Eh]
	 Same-Spin Energy          =      -0.3063129729454085 [Eh]
	 Opposite-Spin Energy      =      -1.0925789967295603 [Eh]
	 Correlation Energy        =      -1.3988919696749689 [Eh]
	 Total Energy              =    -290.7109282044660290 [Eh]

	 ================> DF-SCS-MP2 Energies <==================
	-----------------------------------------------------------
	 SCS Same-Spin Scale       =       0.3333333333333333 [-]
	 SCS Opposite-Spin Scale   =       1.2000000000000000 [-]
	 SCS Same-Spin Energy      =      -0.1021043243151362 [Eh]
	 SCS Opposite-Spin Energy  =      -1.3110947960754722 [Eh]
	 SCS Correlation Energy    =      -1.4131991203906085 [Eh]
	 SCS Total Energy          =    -290.7252353551816668 [Eh]
	-----------------------------------------------------------

  Dipole Moment: [D]
     X:    -0.8288      Y:     1.7837      Z:     0.3598     Total:     1.9995

*** Psi4 exiting successfully. Buy a developer a beer!
