                               Psi4 1.4a3.dev225

  ==> Input File <==

--------------------------------------------------------------------------
#psi4
#
memory 32 gb

molecule  {
0 1
  N        0.6335420    -0.4278790    -0.2728430
  C       -1.7313700    -0.5561300    -0.6201830
  C       -0.5697482     0.2650135    -0.2802979
  C        1.8471620     0.3055680     0.0922530
  C       -2.6435280    -0.7283840     0.5986220
  C       -0.6406980     1.6798450     0.0649420
  C        3.0183950    -0.6607510     0.1713530
  H       -1.4212120    -1.5322710    -1.0024030
  H       -2.2765240    -0.0356590    -1.4187580
  H        2.0539910     1.0846830    -0.6562090
  H        1.7201950     0.8226000     1.0546610
  H       -3.5369580    -1.3025810     0.3373160
  H       -2.9717700     0.2361610     0.9972690
  H       -2.1143980    -1.2633090     1.3922570
  H       -0.4113830     1.8596200     1.1216760
  H       -1.6576830     2.0281380    -0.1274070
  H        0.0520880     2.2919400    -0.5220660
  H        3.9433710    -0.1376200     0.4335950
  H        2.8252920    -1.4268740     0.9259980
  H        3.1589730    -1.1612340    -0.7893850
units angstrom
no_reorient  #important for SAPT in psi4, default
symmetry c1  #important for SAPT in psi4, default
}

set PROPERTIES_ORIGIN ["COM"]
properties('MP2/aug-cc-pvtz', properties = ['dipole'])
--------------------------------------------------------------------------

    Molecular point group: c1
  Charge       = 0
  Multiplicity = 1
  Basis Set: AUG-CC-PVTZ
    Blend: AUG-CC-PVTZ
  Basis Set: (AUG-CC-PVTZ AUX)
    Blend: AUG-CC-PVTZ-JKFIT

    Orbital Energies [Eh]
    ---------------------

    Doubly Occupied:

       1A    -15.543541     2A    -11.285219     3A    -11.237939
       4A    -11.234078     5A    -11.226198     6A    -11.222399
       7A    -11.199992     8A     -1.189948     9A     -1.069006
      10A     -1.001726    11A     -0.968885    12A     -0.882790
      13A     -0.809283    14A     -0.714860    15A     -0.655284
      16A     -0.627434    17A     -0.614518    18A     -0.587840
      19A     -0.579722    20A     -0.558851    21A     -0.535174
      22A     -0.517056    23A     -0.507724    24A     -0.496162
      25A     -0.489093    26A     -0.471103    27A     -0.388406
      28A     -0.352425

  @DF-RHF Final Energy:  -289.29109444567496

   => Energetics <=

    Nuclear Repulsion Energy =            307.0587395612484443
    One-Electron Energy =                -998.7663514999042036
    Two-Electron Energy =                 402.4165174929808018
    Total Energy =                       -289.2910944456749576
  Basis Set: (AUG-CC-PVTZ AUX)
    Blend: AUG-CC-PVTZ-RI
    Molecular point group: c1

    Geometry (in Angstrom), charge = 0, multiplicity = 1:

       Center              X                  Y                   Z               Mass
    ------------   -----------------  -----------------  -----------------  -----------------
         N            0.637647812764    -0.419255435484    -0.255284206000    14.003074004430
         C           -1.727264187236    -0.547506435484    -0.602624206000    12.000000000000
         C           -0.565642387236     0.273637064516    -0.262739106000    12.000000000000
         C            1.851267812764     0.314191564516     0.109811794000    12.000000000000
         C           -2.639422187236    -0.719760435484     0.616180794000    12.000000000000
         C           -0.636592187236     1.688468564516     0.082500794000    12.000000000000
         C            3.022500812764    -0.652127435484     0.188911794000    12.000000000000
         H           -1.417106187236    -1.523647435484    -0.984844206000     1.007825032230
         H           -2.272418187236    -0.027035435484    -1.401199206000     1.007825032230
         H            2.058096812764     1.093306564516    -0.638650206000     1.007825032230
         H            1.724300812764     0.831223564516     1.072219794000     1.007825032230
         H           -3.532852187236    -1.293957435484     0.354874794000     1.007825032230
         H           -2.967664187236     0.244784564516     1.014827794000     1.007825032230
         H           -2.110292187236    -1.254685435484     1.409815794000     1.007825032230
         H           -0.407277187236     1.868243564516     1.139234794000     1.007825032230
         H           -1.653577187236     2.036761564516    -0.109848206000     1.007825032230
         H            0.056193812764     2.300563564516    -0.504507206000     1.007825032230
         H            3.947476812764    -0.128996435484     0.451153794000     1.007825032230
         H            2.829397812764    -1.418250435484     0.943556794000     1.007825032230
         H            3.163078812764    -1.152610435484    -0.771826206000     1.007825032230

  Basis Set: AUG-CC-PVTZ
    Blend: AUG-CC-PVTZ
  Basis Set: (AUG-CC-PVTZ AUX)
    Blend: AUG-CC-PVTZ-JKFIT
	 Reference Energy          =    -289.2910944456749576 [Eh]
	 Singles Energy            =      -0.0000000000000000 [Eh]
	 Same-Spin Energy          =      -0.3097311610796051 [Eh]
	 Opposite-Spin Energy      =      -1.0983788899994744 [Eh]
	 Correlation Energy        =      -1.4081100510790796 [Eh]
	 Total Energy              =    -290.6992044967540210 [Eh]

	 ================> DF-SCS-MP2 Energies <==================
	-----------------------------------------------------------
	 SCS Same-Spin Scale       =       0.3333333333333333 [-]
	 SCS Opposite-Spin Scale   =       1.2000000000000000 [-]
	 SCS Same-Spin Energy      =      -0.1032437203598684 [Eh]
	 SCS Opposite-Spin Energy  =      -1.3180546679993692 [Eh]
	 SCS Correlation Energy    =      -1.4212983883592376 [Eh]
	 SCS Total Energy          =    -290.7123928340341763 [Eh]
	-----------------------------------------------------------

  Dipole Moment: [D]
     X:    -1.0077      Y:     1.8395      Z:     0.3856     Total:     2.1326

*** Psi4 exiting successfully. Buy a developer a beer!
