                               Psi4 1.4a3.dev225

  ==> Input File <==

--------------------------------------------------------------------------
#psi4
#
memory 32 gb

molecule  {
0 1
  N        0.6335420    -0.4278790    -0.2728430
  C       -1.7313700    -0.5561300    -0.6201830
  C       -0.4830900     0.2151130    -0.2797610
  C        1.8471620     0.3055680     0.0922530
  C       -2.6435280    -0.7283840     0.5986220
  C       -0.6406980     1.6798450     0.0649420
  C        2.8643326    -0.5336427     0.1609483
  H       -1.4212120    -1.5322710    -1.0024030
  H       -2.2765240    -0.0356590    -1.4187580
  H        2.0539910     1.0846830    -0.6562090
  H        1.7201950     0.8226000     1.0546610
  H       -3.5369580    -1.3025810     0.3373160
  H       -2.9717700     0.2361610     0.9972690
  H       -2.1143980    -1.2633090     1.3922570
  H       -0.4113830     1.8596200     1.1216760
  H       -1.6576830     2.0281380    -0.1274070
  H        0.0520880     2.2919400    -0.5220660
  H        3.9433710    -0.1376200     0.4335950
  H        2.8252920    -1.4268740     0.9259980
  H        3.1589730    -1.1612340    -0.7893850
units angstrom
no_reorient  #important for SAPT in psi4, default
symmetry c1  #important for SAPT in psi4, default
}

set PROPERTIES_ORIGIN ["COM"]
properties('MP2/aug-cc-pvtz', properties = ['dipole'])
--------------------------------------------------------------------------

    Molecular point group: c1
  Charge       = 0
  Multiplicity = 1
  Basis Set: AUG-CC-PVTZ
    Blend: AUG-CC-PVTZ
  Basis Set: (AUG-CC-PVTZ AUX)
    Blend: AUG-CC-PVTZ-JKFIT

    Orbital Energies [Eh]
    ---------------------

    Doubly Occupied:

       1A    -15.539168     2A    -11.277317     3A    -11.232811
       4A    -11.232008     5A    -11.224542     6A    -11.220601
       7A    -11.215416     8A     -1.224356     9A     -1.079963
      10A     -1.018328    11A     -0.976176    12A     -0.873885
      13A     -0.802111    14A     -0.715753    15A     -0.657926
      16A     -0.637302    17A     -0.625893    18A     -0.593423
      19A     -0.580477    20A     -0.566685    21A     -0.549037
      22A     -0.521814    23A     -0.500134    24A     -0.486911
      25A     -0.463735    26A     -0.449391    27A     -0.388041
      28A     -0.380632

  @DF-RHF Final Energy:  -289.26332120190602

   => Energetics <=

    Nuclear Repulsion Energy =            310.6485002975595648
    One-Electron Energy =               -1005.7559728261445571
    Two-Electron Energy =                 405.8441513266790253
    Total Energy =                       -289.2633212019060238
  Basis Set: (AUG-CC-PVTZ AUX)
    Blend: AUG-CC-PVTZ-RI
    Molecular point group: c1

    Geometry (in Angstrom), charge = 0, multiplicity = 1:

       Center              X                  Y                   Z               Mass
    ------------   -----------------  -----------------  -----------------  -----------------
         N            0.645809379153    -0.428604060428    -0.254089373856    14.003074004430
         C           -1.719102620847    -0.556855060428    -0.601429373856    12.000000000000
         C           -0.470822620847     0.214387939572    -0.261007373856    12.000000000000
         C            1.859429379153     0.304842939572     0.111006626144    12.000000000000
         C           -2.631260620847    -0.729109060428     0.617375626144    12.000000000000
         C           -0.628430620847     1.679119939572     0.083695626144    12.000000000000
         C            2.876599979153    -0.534367760428     0.179701926144    12.000000000000
         H           -1.408944620847    -1.532996060428    -0.983649373856     1.007825032230
         H           -2.264256620847    -0.036384060428    -1.400004373856     1.007825032230
         H            2.066258379153     1.083957939572    -0.637455373856     1.007825032230
         H            1.732462379153     0.821874939572     1.073414626144     1.007825032230
         H           -3.524690620847    -1.303306060428     0.356069626144     1.007825032230
         H           -2.959502620847     0.235435939572     1.016022626144     1.007825032230
         H           -2.102130620847    -1.264034060428     1.411010626144     1.007825032230
         H           -0.399115620847     1.858894939572     1.140429626144     1.007825032230
         H           -1.645415620847     2.027412939572    -0.108653373856     1.007825032230
         H            0.064355379153     2.291214939572    -0.503312373856     1.007825032230
         H            3.955638379153    -0.138345060428     0.452348626144     1.007825032230
         H            2.837559379153    -1.427599060428     0.944751626144     1.007825032230
         H            3.171240379153    -1.161959060428    -0.770631373856     1.007825032230

  Basis Set: AUG-CC-PVTZ
    Blend: AUG-CC-PVTZ
  Basis Set: (AUG-CC-PVTZ AUX)
    Blend: AUG-CC-PVTZ-JKFIT
	 Reference Energy          =    -289.2633212019060238 [Eh]
	 Singles Energy            =      -0.0000000000000000 [Eh]
	 Same-Spin Energy          =      -0.3089869181375261 [Eh]
	 Opposite-Spin Energy      =      -1.0958367354136596 [Eh]
	 Correlation Energy        =      -1.4048236535511855 [Eh]
	 Total Energy              =    -290.6681448554572285 [Eh]

	 ================> DF-SCS-MP2 Energies <==================
	-----------------------------------------------------------
	 SCS Same-Spin Scale       =       0.3333333333333333 [-]
	 SCS Opposite-Spin Scale   =       1.2000000000000000 [-]
	 SCS Same-Spin Energy      =      -0.1029956393791754 [Eh]
	 SCS Opposite-Spin Energy  =      -1.3150040824963913 [Eh]
	 SCS Correlation Energy    =      -1.4179997218755667 [Eh]
	 SCS Total Energy          =    -290.6813209237815840 [Eh]
	-----------------------------------------------------------

  Dipole Moment: [D]
     X:    -0.8728      Y:     1.7879      Z:     0.3799     Total:     2.0255

*** Psi4 exiting successfully. Buy a developer a beer!
