                               Psi4 1.4a3.dev225

  ==> Input File <==

--------------------------------------------------------------------------
#psi4
#
memory 32 gb

molecule  {
0 1
  N        0.6335420    -0.4278790    -0.2728430
  C       -1.7313700    -0.5561300    -0.6201830
  C       -0.4830900     0.2151130    -0.2797610
  C        1.8471620     0.3055680     0.0922530
  C       -2.6435280    -0.7283840     0.5986220
  C       -0.6406980     1.6798450     0.0649420
  C        3.0183950    -0.6607510     0.1713530
  H       -1.4212120    -1.5322710    -1.0024030
  H       -2.2765240    -0.0356590    -1.4187580
  H        2.0539910     1.0846830    -0.6562090
  H        1.7201950     0.8226000     1.0546610
  H       -3.5369580    -1.3025810     0.3373160
  H       -2.9717700     0.2361610     0.9972690
  H       -2.1143980    -1.2633090     1.3922570
  H       -0.4113830     1.8596200     1.1216760
  H       -1.6763083     2.0345167    -0.1309297
  H        0.0520880     2.2919400    -0.5220660
  H        3.9433710    -0.1376200     0.4335950
  H        2.8252920    -1.4268740     0.9259980
  H        3.1589730    -1.1612340    -0.7893850
units angstrom
no_reorient  #important for SAPT in psi4, default
symmetry c1  #important for SAPT in psi4, default
}

set PROPERTIES_ORIGIN ["COM"]
properties('MP2/aug-cc-pvtz', properties = ['dipole'])
--------------------------------------------------------------------------

    Molecular point group: c1
  Charge       = 0
  Multiplicity = 1
  Basis Set: AUG-CC-PVTZ
    Blend: AUG-CC-PVTZ
  Basis Set: (AUG-CC-PVTZ AUX)
    Blend: AUG-CC-PVTZ-JKFIT

    Orbital Energies [Eh]
    ---------------------

    Doubly Occupied:

       1A    -15.538873     2A    -11.275940     3A    -11.242189
       4A    -11.234061     5A    -11.223538     6A    -11.219815
       7A    -11.202455     8A     -1.217502     9A     -1.059170
      10A     -0.998112    11A     -0.970357    12A     -0.877280
      13A     -0.817161    14A     -0.708266    15A     -0.651744
      16A     -0.627465    17A     -0.615274    18A     -0.589146
      19A     -0.575563    20A     -0.551193    21A     -0.534839
      22A     -0.515167    23A     -0.510792    24A     -0.493182
      25A     -0.486037    26A     -0.477392    27A     -0.385500
      28A     -0.380752

  @DF-RHF Final Energy:  -289.31350830107704

   => Energetics <=

    Nuclear Repulsion Energy =            307.5177380882064426
    One-Electron Energy =                -999.7049574050940919
    Two-Electron Energy =                 402.8737110158106134
    Total Energy =                       -289.3135083010770359
  Basis Set: (AUG-CC-PVTZ AUX)
    Blend: AUG-CC-PVTZ-RI
    Molecular point group: c1

    Geometry (in Angstrom), charge = 0, multiplicity = 1:

       Center              X                  Y                   Z               Mass
    ------------   -----------------  -----------------  -----------------  -----------------
         N            0.627344302113    -0.413278152951    -0.255313392626    14.003074004430
         C           -1.737567697887    -0.541529152951    -0.602653392626    12.000000000000
         C           -0.489287697887     0.229713847049    -0.262231392626    12.000000000000
         C            1.840964302113     0.320168847049     0.109782607374    12.000000000000
         C           -2.649725697887    -0.713783152951     0.616151607374    12.000000000000
         C           -0.646895697887     1.694445847049     0.082471607374    12.000000000000
         C            3.012197302113    -0.646150152951     0.188882607374    12.000000000000
         H           -1.427409697887    -1.517670152951    -0.984873392626     1.007825032230
         H           -2.282721697887    -0.021058152951    -1.401228392626     1.007825032230
         H            2.047793302113     1.099283847049    -0.638679392626     1.007825032230
         H            1.713997302113     0.837200847049     1.072190607374     1.007825032230
         H           -3.543155697887    -1.287980152951     0.354845607374     1.007825032230
         H           -2.977967697887     0.250761847049     1.014798607374     1.007825032230
         H           -2.120595697887    -1.248708152951     1.409786607374     1.007825032230
         H           -0.417580697887     1.874220847049     1.139205607374     1.007825032230
         H           -1.682505997887     2.049117547049    -0.113400092626     1.007825032230
         H            0.045890302113     2.306540847049    -0.504536392626     1.007825032230
         H            3.937173302113    -0.123019152951     0.451124607374     1.007825032230
         H            2.819094302113    -1.412273152951     0.943527607374     1.007825032230
         H            3.152775302113    -1.146633152951    -0.771855392626     1.007825032230

  Basis Set: AUG-CC-PVTZ
    Blend: AUG-CC-PVTZ
  Basis Set: (AUG-CC-PVTZ AUX)
    Blend: AUG-CC-PVTZ-JKFIT
	 Reference Energy          =    -289.3135083010770359 [Eh]
	 Singles Energy            =      -0.0000000000000000 [Eh]
	 Same-Spin Energy          =      -0.3063538847903370 [Eh]
	 Opposite-Spin Energy      =      -1.0924282860546060 [Eh]
	 Correlation Energy        =      -1.3987821708449431 [Eh]
	 Total Energy              =    -290.7122904719219605 [Eh]

	 ================> DF-SCS-MP2 Energies <==================
	-----------------------------------------------------------
	 SCS Same-Spin Scale       =       0.3333333333333333 [-]
	 SCS Opposite-Spin Scale   =       1.2000000000000000 [-]
	 SCS Same-Spin Energy      =      -0.1021179615967790 [Eh]
	 SCS Opposite-Spin Energy  =      -1.3109139432655270 [Eh]
	 SCS Correlation Energy    =      -1.4130319048623061 [Eh]
	 SCS Total Energy          =    -290.7265402059393296 [Eh]
	-----------------------------------------------------------

  Dipole Moment: [D]
     X:    -0.8104      Y:     1.7546      Z:     0.3814     Total:     1.9700

*** Psi4 exiting successfully. Buy a developer a beer!
