                               Psi4 1.4a3.dev225

  ==> Input File <==

--------------------------------------------------------------------------
#psi4
#
memory 32 gb

molecule  {
0 1
  N        0.6335420    -0.4278790    -0.2728430
  C       -1.7313700    -0.5561300    -0.6201830
  C       -0.4830900     0.2151130    -0.2797610
  C        1.8471620     0.3055680     0.0922530
  C       -2.7203615    -0.6784683     0.5434830
  C       -0.6406980     1.6798450     0.0649420
  C        3.0183950    -0.6607510     0.1713530
  H       -1.4212120    -1.5322710    -1.0024030
  H       -2.2765240    -0.0356590    -1.4187580
  H        2.0539910     1.0846830    -0.6562090
  H        1.7201950     0.8226000     1.0546610
  H       -3.5369580    -1.3025810     0.3373160
  H       -2.9717700     0.2361610     0.9972690
  H       -2.1143980    -1.2633090     1.3922570
  H       -0.4113830     1.8596200     1.1216760
  H       -1.6576830     2.0281380    -0.1274070
  H        0.0520880     2.2919400    -0.5220660
  H        3.9433710    -0.1376200     0.4335950
  H        2.8252920    -1.4268740     0.9259980
  H        3.1589730    -1.1612340    -0.7893850
units angstrom
no_reorient  #important for SAPT in psi4, default
symmetry c1  #important for SAPT in psi4, default
}

set PROPERTIES_ORIGIN ["COM"]
properties('MP2/aug-cc-pvtz', properties = ['dipole'])
--------------------------------------------------------------------------

    Molecular point group: c1
  Charge       = 0
  Multiplicity = 1
  Basis Set: AUG-CC-PVTZ
    Blend: AUG-CC-PVTZ
  Basis Set: (AUG-CC-PVTZ AUX)
    Blend: AUG-CC-PVTZ-JKFIT

    Orbital Energies [Eh]
    ---------------------

    Doubly Occupied:

       1A    -15.539640     2A    -11.276880     3A    -11.242548
       4A    -11.232173     5A    -11.224548     6A    -11.221723
       7A    -11.202582     8A     -1.217907     9A     -1.059662
      10A     -0.999188    11A     -0.972176    12A     -0.879138
      13A     -0.817537    14A     -0.709375    15A     -0.654438
      16A     -0.627290    17A     -0.614698    18A     -0.589548
      19A     -0.578581    20A     -0.563422    21A     -0.539010
      22A     -0.512561    23A     -0.509208    24A     -0.493504
      25A     -0.483634    26A     -0.465569    27A     -0.386617
      28A     -0.380752

  @DF-RHF Final Energy:  -289.30307242776092

   => Energetics <=

    Nuclear Repulsion Energy =            307.2950977442404792
    One-Electron Energy =                -999.2085256056669778
    Two-Electron Energy =                 402.6103554336655748
    Total Energy =                       -289.3030724277609238
  Basis Set: (AUG-CC-PVTZ AUX)
    Blend: AUG-CC-PVTZ-RI
    Molecular point group: c1

    Geometry (in Angstrom), charge = 0, multiplicity = 1:

       Center              X                  Y                   Z               Mass
    ------------   -----------------  -----------------  -----------------  -----------------
         N            0.636458199338    -0.419257275959    -0.248672768372    14.003074004430
         C           -1.728453800662    -0.547508275959    -0.596012768372    12.000000000000
         C           -0.480173800662     0.223734724041    -0.255590768372    12.000000000000
         C            1.850078199338     0.314189724041     0.116423231628    12.000000000000
         C           -2.717445300662    -0.669846575959     0.567653231628    12.000000000000
         C           -0.637781800662     1.688466724041     0.089112231628    12.000000000000
         C            3.021311199338    -0.652129275959     0.195523231628    12.000000000000
         H           -1.418295800662    -1.523649275959    -0.978232768372     1.007825032230
         H           -2.273607800662    -0.027037275959    -1.394587768372     1.007825032230
         H            2.056907199338     1.093304724041    -0.632038768372     1.007825032230
         H            1.723111199338     0.831221724041     1.078831231628     1.007825032230
         H           -3.534041800662    -1.293959275959     0.361486231628     1.007825032230
         H           -2.968853800662     0.244782724041     1.021439231628     1.007825032230
         H           -2.111481800662    -1.254687275959     1.416427231628     1.007825032230
         H           -0.408466800662     1.868241724041     1.145846231628     1.007825032230
         H           -1.654766800662     2.036759724041    -0.103236768372     1.007825032230
         H            0.055004199338     2.300561724041    -0.497895768372     1.007825032230
         H            3.946287199338    -0.128998275959     0.457765231628     1.007825032230
         H            2.828208199338    -1.418252275959     0.950168231628     1.007825032230
         H            3.161889199338    -1.152612275959    -0.765214768372     1.007825032230

  Basis Set: AUG-CC-PVTZ
    Blend: AUG-CC-PVTZ
  Basis Set: (AUG-CC-PVTZ AUX)
    Blend: AUG-CC-PVTZ-JKFIT
	 Reference Energy          =    -289.3030724277609238 [Eh]
	 Singles Energy            =      -0.0000000000000000 [Eh]
	 Same-Spin Energy          =      -0.3064836668195524 [Eh]
	 Opposite-Spin Energy      =      -1.0927724032269484 [Eh]
	 Correlation Energy        =      -1.3992560700465007 [Eh]
	 Total Energy              =    -290.7023284978074003 [Eh]

	 ================> DF-SCS-MP2 Energies <==================
	-----------------------------------------------------------
	 SCS Same-Spin Scale       =       0.3333333333333333 [-]
	 SCS Opposite-Spin Scale   =       1.2000000000000000 [-]
	 SCS Same-Spin Energy      =      -0.1021612222731841 [Eh]
	 SCS Opposite-Spin Energy  =      -1.3113268838723380 [Eh]
	 SCS Correlation Energy    =      -1.4134881061455220 [Eh]
	 SCS Total Energy          =    -290.7165605339064314 [Eh]
	-----------------------------------------------------------

  Dipole Moment: [D]
     X:    -0.8232      Y:     1.7936      Z:     0.3494     Total:     2.0042

*** Psi4 exiting successfully. Buy a developer a beer!
