                               Psi4 1.4a3.dev225

  ==> Input File <==

--------------------------------------------------------------------------
#psi4
#
memory 32 gb

molecule  {
0 1
  N        0.6335420    -0.4278790    -0.2728430
  C       -1.7273170    -0.6093491    -0.6234980
  C       -0.4830900     0.2151130    -0.2797610
  C        1.8471620     0.3055680     0.0922530
  C       -2.6435280    -0.7283840     0.5986220
  C       -0.6406980     1.6798450     0.0649420
  C        3.0183950    -0.6607510     0.1713530
  H       -1.4212120    -1.5322710    -1.0024030
  H       -2.2765240    -0.0356590    -1.4187580
  H        2.0539910     1.0846830    -0.6562090
  H        1.7201950     0.8226000     1.0546610
  H       -3.5369580    -1.3025810     0.3373160
  H       -2.9717700     0.2361610     0.9972690
  H       -2.1143980    -1.2633090     1.3922570
  H       -0.4113830     1.8596200     1.1216760
  H       -1.6576830     2.0281380    -0.1274070
  H        0.0520880     2.2919400    -0.5220660
  H        3.9433710    -0.1376200     0.4335950
  H        2.8252920    -1.4268740     0.9259980
  H        3.1589730    -1.1612340    -0.7893850
units angstrom
no_reorient  #important for SAPT in psi4, default
symmetry c1  #important for SAPT in psi4, default
}

set PROPERTIES_ORIGIN ["COM"]
properties('MP2/aug-cc-pvtz', properties = ['dipole'])
--------------------------------------------------------------------------

    Molecular point group: c1
  Charge       = 0
  Multiplicity = 1
  Basis Set: AUG-CC-PVTZ
    Blend: AUG-CC-PVTZ
  Basis Set: (AUG-CC-PVTZ AUX)
    Blend: AUG-CC-PVTZ-JKFIT

    Orbital Energies [Eh]
    ---------------------

    Doubly Occupied:

       1A    -15.537675     2A    -11.276422     3A    -11.241399
       4A    -11.232870     5A    -11.223605     6A    -11.219620
       7A    -11.202084     8A     -1.216331     9A     -1.056952
      10A     -0.998503    11A     -0.972065    12A     -0.875855
      13A     -0.816987    14A     -0.709086    15A     -0.653494
      16A     -0.625918    17A     -0.612897    18A     -0.591160
      19A     -0.575113    20A     -0.552270    21A     -0.535478
      22A     -0.517903    23A     -0.510724    24A     -0.494336
      25A     -0.491234    26A     -0.472073    27A     -0.383748
      28A     -0.379993

  @DF-RHF Final Energy:  -289.31112017768100

   => Energetics <=

    Nuclear Repulsion Energy =            307.2783044382616708
    One-Electron Energy =                -999.2272648881008763
    Two-Electron Energy =                 402.6378402721582006
    Total Energy =                       -289.3111201776810049
  Basis Set: (AUG-CC-PVTZ AUX)
    Blend: AUG-CC-PVTZ-RI
    Molecular point group: c1

    Geometry (in Angstrom), charge = 0, multiplicity = 1:

       Center              X                  Y                   Z               Mass
    ------------   -----------------  -----------------  -----------------  -----------------
         N            0.626664142888    -0.406769307595    -0.254947822695    14.003074004430
         C           -1.734194857112    -0.588239407595    -0.605602822695    12.000000000000
         C           -0.489967857112     0.236222692405    -0.261865822695    12.000000000000
         C            1.840284142888     0.326677692405     0.110148177305    12.000000000000
         C           -2.650405857112    -0.707274307595     0.616517177305    12.000000000000
         C           -0.647575857112     1.700954692405     0.082837177305    12.000000000000
         C            3.011517142888    -0.639641307595     0.189248177305    12.000000000000
         H           -1.428089857112    -1.511161307595    -0.984507822695     1.007825032230
         H           -2.283401857112    -0.014549307595    -1.400862822695     1.007825032230
         H            2.047113142888     1.105792692405    -0.638313822695     1.007825032230
         H            1.713317142888     0.843709692405     1.072556177305     1.007825032230
         H           -3.543835857112    -1.281471307595     0.355211177305     1.007825032230
         H           -2.978647857112     0.257270692405     1.015164177305     1.007825032230
         H           -2.121275857112    -1.242199307595     1.410152177305     1.007825032230
         H           -0.418260857112     1.880729692405     1.139571177305     1.007825032230
         H           -1.664560857112     2.049247692405    -0.109511822695     1.007825032230
         H            0.045210142888     2.313049692405    -0.504170822695     1.007825032230
         H            3.936493142888    -0.116510307595     0.451490177305     1.007825032230
         H            2.818414142888    -1.405764307595     0.943893177305     1.007825032230
         H            3.152095142888    -1.140124307595    -0.771489822695     1.007825032230

  Basis Set: AUG-CC-PVTZ
    Blend: AUG-CC-PVTZ
  Basis Set: (AUG-CC-PVTZ AUX)
    Blend: AUG-CC-PVTZ-JKFIT
	 Reference Energy          =    -289.3111201776810049 [Eh]
	 Singles Energy            =      -0.0000000000000000 [Eh]
	 Same-Spin Energy          =      -0.3061845796252685 [Eh]
	 Opposite-Spin Energy      =      -1.0922107492614166 [Eh]
	 Correlation Energy        =      -1.3983953288866851 [Eh]
	 Total Energy              =    -290.7095155065676977 [Eh]

	 ================> DF-SCS-MP2 Energies <==================
	-----------------------------------------------------------
	 SCS Same-Spin Scale       =       0.3333333333333333 [-]
	 SCS Opposite-Spin Scale   =       1.2000000000000000 [-]
	 SCS Same-Spin Energy      =      -0.1020615265417562 [Eh]
	 SCS Opposite-Spin Energy  =      -1.3106528991136999 [Eh]
	 SCS Correlation Energy    =      -1.4127144256554560 [Eh]
	 SCS Total Energy          =    -290.7238346033364564 [Eh]
	-----------------------------------------------------------

  Dipole Moment: [D]
     X:    -0.8163      Y:     1.7618      Z:     0.3928     Total:     1.9810

*** Psi4 exiting successfully. Buy a developer a beer!
