                               Psi4 1.4a3.dev225

  ==> Input File <==

--------------------------------------------------------------------------
#psi4
#
memory 32 gb

molecule  {
0 1
  N        0.6335420    -0.4278790    -0.2728430
  C       -1.7313700    -0.5561300    -0.6201830
  C       -0.4830900     0.2151130    -0.2797610
  C        1.8471620     0.3055680     0.0922530
  C       -2.7030662    -0.7396273     0.6781757
  C       -0.6406980     1.6798450     0.0649420
  C        3.0183950    -0.6607510     0.1713530
  H       -1.4212120    -1.5322710    -1.0024030
  H       -2.2765240    -0.0356590    -1.4187580
  H        2.0539910     1.0846830    -0.6562090
  H        1.7201950     0.8226000     1.0546610
  H       -3.5369580    -1.3025810     0.3373160
  H       -2.9717700     0.2361610     0.9972690
  H       -2.1143980    -1.2633090     1.3922570
  H       -0.4113830     1.8596200     1.1216760
  H       -1.6576830     2.0281380    -0.1274070
  H        0.0520880     2.2919400    -0.5220660
  H        3.9433710    -0.1376200     0.4335950
  H        2.8252920    -1.4268740     0.9259980
  H        3.1589730    -1.1612340    -0.7893850
units angstrom
no_reorient  #important for SAPT in psi4, default
symmetry c1  #important for SAPT in psi4, default
}

set PROPERTIES_ORIGIN ["COM"]
properties('MP2/aug-cc-pvtz', properties = ['dipole'])
--------------------------------------------------------------------------

    Molecular point group: c1
  Charge       = 0
  Multiplicity = 1
  Basis Set: AUG-CC-PVTZ
    Blend: AUG-CC-PVTZ
  Basis Set: (AUG-CC-PVTZ AUX)
    Blend: AUG-CC-PVTZ-JKFIT

    Orbital Energies [Eh]
    ---------------------

    Doubly Occupied:

       1A    -15.537790     2A    -11.275400     3A    -11.241652
       4A    -11.231487     5A    -11.226933     6A    -11.217730
       7A    -11.202090     8A     -1.216289     9A     -1.051135
      10A     -0.992664    11A     -0.971120    12A     -0.883815
      13A     -0.817981    14A     -0.706740    15A     -0.650119
      16A     -0.626572    17A     -0.615060    18A     -0.592738
      19A     -0.575465    20A     -0.561285    21A     -0.536531
      22A     -0.511212    23A     -0.502307    24A     -0.495316
      25A     -0.489164    26A     -0.476956    27A     -0.384826
      28A     -0.376691

  @DF-RHF Final Energy:  -289.30699852107142

   => Energetics <=

    Nuclear Repulsion Energy =            306.3083387054694526
    One-Electron Energy =                -997.2965388720602959
    Two-Electron Energy =                 401.6812016455193657
    Total Energy =                       -289.3069985210714208
  Basis Set: (AUG-CC-PVTZ AUX)
    Blend: AUG-CC-PVTZ-RI
    Molecular point group: c1

    Geometry (in Angstrom), charge = 0, multiplicity = 1:

       Center              X                  Y                   Z               Mass
    ------------   -----------------  -----------------  -----------------  -----------------
         N            0.634364016198    -0.411851903018    -0.264981891739    14.003074004430
         C           -1.730547983802    -0.540102903018    -0.612321891739    12.000000000000
         C           -0.482267983802     0.231140096982    -0.271899891739    12.000000000000
         C            1.847984016198     0.321595096982     0.100114108261    12.000000000000
         C           -2.702244183802    -0.723600203018     0.686036808261    12.000000000000
         C           -0.639875983802     1.695872096982     0.072803108261    12.000000000000
         C            3.019217016198    -0.644723903018     0.179214108261    12.000000000000
         H           -1.420389983802    -1.516243903018    -0.994541891739     1.007825032230
         H           -2.275701983802    -0.019631903018    -1.410896891739     1.007825032230
         H            2.054813016198     1.100710096982    -0.648347891739     1.007825032230
         H            1.721017016198     0.838627096982     1.062522108261     1.007825032230
         H           -3.536135983802    -1.286553903018     0.345177108261     1.007825032230
         H           -2.970947983802     0.252188096982     1.005130108261     1.007825032230
         H           -2.113575983802    -1.247281903018     1.400118108261     1.007825032230
         H           -0.410560983802     1.875647096982     1.129537108261     1.007825032230
         H           -1.656860983802     2.044165096982    -0.119545891739     1.007825032230
         H            0.052910016198     2.307967096982    -0.514204891739     1.007825032230
         H            3.944193016198    -0.121592903018     0.441456108261     1.007825032230
         H            2.826114016198    -1.410846903018     0.933859108261     1.007825032230
         H            3.159795016198    -1.145206903018    -0.781523891739     1.007825032230

  Basis Set: AUG-CC-PVTZ
    Blend: AUG-CC-PVTZ
  Basis Set: (AUG-CC-PVTZ AUX)
    Blend: AUG-CC-PVTZ-JKFIT
	 Reference Energy          =    -289.3069985210714208 [Eh]
	 Singles Energy            =      -0.0000000000000000 [Eh]
	 Same-Spin Energy          =      -0.3061042479779056 [Eh]
	 Opposite-Spin Energy      =      -1.0923841433969104 [Eh]
	 Correlation Energy        =      -1.3984883913748161 [Eh]
	 Total Energy              =    -290.7054869124462471 [Eh]

	 ================> DF-SCS-MP2 Energies <==================
	-----------------------------------------------------------
	 SCS Same-Spin Scale       =       0.3333333333333333 [-]
	 SCS Opposite-Spin Scale   =       1.2000000000000000 [-]
	 SCS Same-Spin Energy      =      -0.1020347493259685 [Eh]
	 SCS Opposite-Spin Energy  =      -1.3108609720762925 [Eh]
	 SCS Correlation Energy    =      -1.4128957214022611 [Eh]
	 SCS Total Energy          =    -290.7198942424736856 [Eh]
	-----------------------------------------------------------

  Dipole Moment: [D]
     X:    -0.8446      Y:     1.7551      Z:     0.3826     Total:     1.9850

*** Psi4 exiting successfully. Buy a developer a beer!
