                               Psi4 1.4a3.dev225

  ==> Input File <==

--------------------------------------------------------------------------
#psi4
#
memory 32 gb

molecule  {
0 1
  N        0.6335420    -0.4278790    -0.2728430
  C       -1.6326599    -0.4739735    -0.5241470
  C       -0.4830900     0.2151130    -0.2797610
  C        1.8471620     0.3055680     0.0922530
  C       -2.6435280    -0.7283840     0.5986220
  C       -0.6406980     1.6798450     0.0649420
  C        3.0183950    -0.6607510     0.1713530
  H       -1.4212120    -1.5322710    -1.0024030
  H       -2.2765240    -0.0356590    -1.4187580
  H        2.0539910     1.0846830    -0.6562090
  H        1.7201950     0.8226000     1.0546610
  H       -3.5369580    -1.3025810     0.3373160
  H       -2.9717700     0.2361610     0.9972690
  H       -2.1143980    -1.2633090     1.3922570
  H       -0.4113830     1.8596200     1.1216760
  H       -1.6576830     2.0281380    -0.1274070
  H        0.0520880     2.2919400    -0.5220660
  H        3.9433710    -0.1376200     0.4335950
  H        2.8252920    -1.4268740     0.9259980
  H        3.1589730    -1.1612340    -0.7893850
units angstrom
no_reorient  #important for SAPT in psi4, default
symmetry c1  #important for SAPT in psi4, default
}

set PROPERTIES_ORIGIN ["COM"]
properties('MP2/aug-cc-pvtz', properties = ['dipole'])
--------------------------------------------------------------------------

    Molecular point group: c1
  Charge       = 0
  Multiplicity = 1
  Basis Set: AUG-CC-PVTZ
    Blend: AUG-CC-PVTZ
  Basis Set: (AUG-CC-PVTZ AUX)
    Blend: AUG-CC-PVTZ-JKFIT

    Orbital Energies [Eh]
    ---------------------

    Doubly Occupied:

       1A    -15.540847     2A    -11.268911     3A    -11.242601
       4A    -11.230935     5A    -11.230153     6A    -11.224035
       7A    -11.202902     8A     -1.226635     9A     -1.073574
      10A     -0.996978    11A     -0.973137    12A     -0.893249
      13A     -0.814186    14A     -0.708835    15A     -0.657062
      16A     -0.631388    17A     -0.618224    18A     -0.589301
      19A     -0.577457    20A     -0.557220    21A     -0.544573
      22A     -0.512233    23A     -0.507169    24A     -0.493646
      25A     -0.489893    26A     -0.449336    27A     -0.392198
      28A     -0.375165

  @DF-RHF Final Energy:  -289.28239778357374

   => Energetics <=

    Nuclear Repulsion Energy =            309.8860267202942396
    One-Electron Energy =               -1004.2931569362533537
    Two-Electron Energy =                 405.1247324323853718
    Total Energy =                       -289.2823977835737423
  Basis Set: (AUG-CC-PVTZ AUX)
    Blend: AUG-CC-PVTZ-RI
    Molecular point group: c1

    Geometry (in Angstrom), charge = 0, multiplicity = 1:

       Center              X                  Y                   Z               Mass
    ------------   -----------------  -----------------  -----------------  -----------------
         N            0.615202687876    -0.423161119187    -0.266977633631    14.003074004430
         C           -1.650999212124    -0.469255619187    -0.518281633631    12.000000000000
         C           -0.501429312124     0.219830880813    -0.273895633631    12.000000000000
         C            1.828822687876     0.310285880813     0.098118366369    12.000000000000
         C           -2.661867312124    -0.723666119187     0.604487366369    12.000000000000
         C           -0.659037312124     1.684562880813     0.070807366369    12.000000000000
         C            3.000055687876    -0.656033119187     0.177218366369    12.000000000000
         H           -1.439551312124    -1.527553119187    -0.996537633631     1.007825032230
         H           -2.294863312124    -0.030941119187    -1.412892633631     1.007825032230
         H            2.035651687876     1.089400880813    -0.650343633631     1.007825032230
         H            1.701855687876     0.827317880813     1.060526366369     1.007825032230
         H           -3.555297312124    -1.297863119187     0.343181366369     1.007825032230
         H           -2.990109312124     0.240878880813     1.003134366369     1.007825032230
         H           -2.132737312124    -1.258591119187     1.398122366369     1.007825032230
         H           -0.429722312124     1.864337880813     1.127541366369     1.007825032230
         H           -1.676022312124     2.032855880813    -0.121541633631     1.007825032230
         H            0.033748687876     2.296657880813    -0.516200633631     1.007825032230
         H            3.925031687876    -0.132902119187     0.439460366369     1.007825032230
         H            2.806952687876    -1.422156119187     0.931863366369     1.007825032230
         H            3.140633687876    -1.156516119187    -0.783519633631     1.007825032230

  Basis Set: AUG-CC-PVTZ
    Blend: AUG-CC-PVTZ
  Basis Set: (AUG-CC-PVTZ AUX)
    Blend: AUG-CC-PVTZ-JKFIT
	 Reference Energy          =    -289.2823977835737423 [Eh]
	 Singles Energy            =      -0.0000000000000000 [Eh]
	 Same-Spin Energy          =      -0.3085796428161284 [Eh]
	 Opposite-Spin Energy      =      -1.0955145586890569 [Eh]
	 Correlation Energy        =      -1.4040942015051852 [Eh]
	 Total Energy              =    -290.6864919850789306 [Eh]

	 ================> DF-SCS-MP2 Energies <==================
	-----------------------------------------------------------
	 SCS Same-Spin Scale       =       0.3333333333333333 [-]
	 SCS Opposite-Spin Scale   =       1.2000000000000000 [-]
	 SCS Same-Spin Energy      =      -0.1028598809387095 [Eh]
	 SCS Opposite-Spin Energy  =      -1.3146174704268683 [Eh]
	 SCS Correlation Energy    =      -1.4174773513655776 [Eh]
	 SCS Total Energy          =    -290.6998751349393046 [Eh]
	-----------------------------------------------------------

  Dipole Moment: [D]
     X:    -0.8754      Y:     1.7132      Z:     0.4282     Total:     1.9710

*** Psi4 exiting successfully. Buy a developer a beer!
