                               Psi4 1.4a3.dev225

  ==> Input File <==

--------------------------------------------------------------------------
#psi4
#
memory 32 gb

molecule  {
0 1
  N        0.6335420    -0.4278790    -0.2728430
  C       -1.7365344    -0.5031208    -0.6153831
  C       -0.4830900     0.2151130    -0.2797610
  C        1.8471620     0.3055680     0.0922530
  C       -2.6435280    -0.7283840     0.5986220
  C       -0.6406980     1.6798450     0.0649420
  C        3.0183950    -0.6607510     0.1713530
  H       -1.4212120    -1.5322710    -1.0024030
  H       -2.2765240    -0.0356590    -1.4187580
  H        2.0539910     1.0846830    -0.6562090
  H        1.7201950     0.8226000     1.0546610
  H       -3.5369580    -1.3025810     0.3373160
  H       -2.9717700     0.2361610     0.9972690
  H       -2.1143980    -1.2633090     1.3922570
  H       -0.4113830     1.8596200     1.1216760
  H       -1.6576830     2.0281380    -0.1274070
  H        0.0520880     2.2919400    -0.5220660
  H        3.9433710    -0.1376200     0.4335950
  H        2.8252920    -1.4268740     0.9259980
  H        3.1589730    -1.1612340    -0.7893850
units angstrom
no_reorient  #important for SAPT in psi4, default
symmetry c1  #important for SAPT in psi4, default
}

set PROPERTIES_ORIGIN ["COM"]
properties('MP2/aug-cc-pvtz', properties = ['dipole'])
--------------------------------------------------------------------------

    Molecular point group: c1
  Charge       = 0
  Multiplicity = 1
  Basis Set: AUG-CC-PVTZ
    Blend: AUG-CC-PVTZ
  Basis Set: (AUG-CC-PVTZ AUX)
    Blend: AUG-CC-PVTZ-JKFIT

    Orbital Energies [Eh]
    ---------------------

    Doubly Occupied:

       1A    -15.539811     2A    -11.275287     3A    -11.242718
       4A    -11.230532     5A    -11.224349     6A    -11.220608
       7A    -11.202650     8A     -1.218405     9A     -1.062085
      10A     -0.998132    11A     -0.971523    12A     -0.879196
      13A     -0.817749    14A     -0.709373    15A     -0.650410
      16A     -0.629350    17A     -0.618445    18A     -0.588918
      19A     -0.576340    20A     -0.552313    21A     -0.536021
      22A     -0.517784    23A     -0.511577    24A     -0.493927
      25A     -0.483130    26A     -0.470889    27A     -0.386633
      28A     -0.381081

  @DF-RHF Final Energy:  -289.31039932966632

   => Energetics <=

    Nuclear Repulsion Energy =            307.9131907168551265
    One-Electron Energy =               -1000.4687096408088109
    Two-Electron Energy =                 403.2451195942874165
    Total Energy =                       -289.3103993296663248
  Basis Set: (AUG-CC-PVTZ AUX)
    Blend: AUG-CC-PVTZ-RI
    Molecular point group: c1

    Geometry (in Angstrom), charge = 0, multiplicity = 1:

       Center              X                  Y                   Z               Mass
    ------------   -----------------  -----------------  -----------------  -----------------
         N            0.627780222035    -0.419631849141    -0.255930406793    14.003074004430
         C           -1.742296177965    -0.494873649141    -0.598470506793    12.000000000000
         C           -0.488851777965     0.223360150859    -0.262848406793    12.000000000000
         C            1.841400222035     0.313815150859     0.109165593207    12.000000000000
         C           -2.649289777965    -0.720136849141     0.615534593207    12.000000000000
         C           -0.646459777965     1.688092150859     0.081854593207    12.000000000000
         C            3.012633222035    -0.652503849141     0.188265593207    12.000000000000
         H           -1.426973777965    -1.524023849141    -0.985490406793     1.007825032230
         H           -2.282285777965    -0.027411849141    -1.401845406793     1.007825032230
         H            2.048229222035     1.092930150859    -0.639296406793     1.007825032230
         H            1.714433222035     0.830847150859     1.071573593207     1.007825032230
         H           -3.542719777965    -1.294333849141     0.354228593207     1.007825032230
         H           -2.977531777965     0.244408150859     1.014181593207     1.007825032230
         H           -2.120159777965    -1.255061849141     1.409169593207     1.007825032230
         H           -0.417144777965     1.867867150859     1.138588593207     1.007825032230
         H           -1.663444777965     2.036385150859    -0.110494406793     1.007825032230
         H            0.046326222035     2.300187150859    -0.505153406793     1.007825032230
         H            3.937609222035    -0.129372849141     0.450507593207     1.007825032230
         H            2.819530222035    -1.418626849141     0.942910593207     1.007825032230
         H            3.153211222035    -1.152986849141    -0.772472406793     1.007825032230

  Basis Set: AUG-CC-PVTZ
    Blend: AUG-CC-PVTZ
  Basis Set: (AUG-CC-PVTZ AUX)
    Blend: AUG-CC-PVTZ-JKFIT
	 Reference Energy          =    -289.3103993296663248 [Eh]
	 Singles Energy            =      -0.0000000000000000 [Eh]
	 Same-Spin Energy          =      -0.3066481951462530 [Eh]
	 Opposite-Spin Energy      =      -1.0927437307127805 [Eh]
	 Correlation Energy        =      -1.3993919258590335 [Eh]
	 Total Energy              =    -290.7097912555253743 [Eh]

	 ================> DF-SCS-MP2 Energies <==================
	-----------------------------------------------------------
	 SCS Same-Spin Scale       =       0.3333333333333333 [-]
	 SCS Opposite-Spin Scale   =       1.2000000000000000 [-]
	 SCS Same-Spin Energy      =      -0.1022160650487510 [Eh]
	 SCS Opposite-Spin Energy  =      -1.3112924768553367 [Eh]
	 SCS Correlation Energy    =      -1.4135085419040876 [Eh]
	 SCS Total Energy          =    -290.7239078715704181 [Eh]
	-----------------------------------------------------------

  Dipole Moment: [D]
     X:    -0.8249      Y:     1.7643      Z:     0.3778     Total:     1.9840

*** Psi4 exiting successfully. Buy a developer a beer!
