                               Psi4 1.4a3.dev225

  ==> Input File <==

--------------------------------------------------------------------------
#psi4
#
memory 32 gb

molecule  {
0 1
  N        0.6335420    -0.4278790    -0.2728430
  C       -1.7313700    -0.5561300    -0.6201830
  C       -0.4830900     0.2151130    -0.2797610
  C        1.8471620     0.3055680     0.0922530
  C       -2.7569939    -0.6532717     0.5137696
  C       -0.6406980     1.6798450     0.0649420
  C        3.0183950    -0.6607510     0.1713530
  H       -1.4212120    -1.5322710    -1.0024030
  H       -2.2765240    -0.0356590    -1.4187580
  H        2.0539910     1.0846830    -0.6562090
  H        1.7201950     0.8226000     1.0546610
  H       -3.5369580    -1.3025810     0.3373160
  H       -2.9717700     0.2361610     0.9972690
  H       -2.1143980    -1.2633090     1.3922570
  H       -0.4113830     1.8596200     1.1216760
  H       -1.6576830     2.0281380    -0.1274070
  H        0.0520880     2.2919400    -0.5220660
  H        3.9433710    -0.1376200     0.4335950
  H        2.8252920    -1.4268740     0.9259980
  H        3.1589730    -1.1612340    -0.7893850
units angstrom
no_reorient  #important for SAPT in psi4, default
symmetry c1  #important for SAPT in psi4, default
}

set PROPERTIES_ORIGIN ["COM"]
properties('MP2/aug-cc-pvtz', properties = ['dipole'])
--------------------------------------------------------------------------

    Molecular point group: c1
  Charge       = 0
  Multiplicity = 1
  Basis Set: AUG-CC-PVTZ
    Blend: AUG-CC-PVTZ
  Basis Set: (AUG-CC-PVTZ AUX)
    Blend: AUG-CC-PVTZ-JKFIT

    Orbital Energies [Eh]
    ---------------------

    Doubly Occupied:

       1A    -15.540202     2A    -11.277619     3A    -11.242866
       4A    -11.232510     5A    -11.225700     6A    -11.224137
       7A    -11.202733     8A     -1.218306     9A     -1.060222
      10A     -1.000009    11A     -0.972494    12A     -0.880593
      13A     -0.818149    14A     -0.710101    15A     -0.656582
      16A     -0.627457    17A     -0.615652    18A     -0.590768
      19A     -0.582215    20A     -0.564831    21A     -0.540488
      22A     -0.513647    23A     -0.510385    24A     -0.493965
      25A     -0.484855    26A     -0.450523    27A     -0.387328
      28A     -0.380685

  @DF-RHF Final Energy:  -289.29086488302551

   => Energetics <=

    Nuclear Repulsion Energy =            307.1483427302732707
    One-Electron Energy =                -998.8683723997309016
    Two-Electron Energy =                 402.4291647864321249
    Total Energy =                       -289.2908648830255061
  Basis Set: (AUG-CC-PVTZ AUX)
    Blend: AUG-CC-PVTZ-RI
    Molecular point group: c1

    Geometry (in Angstrom), charge = 0, multiplicity = 1:

       Center              X                  Y                   Z               Mass
    ------------   -----------------  -----------------  -----------------  -----------------
         N            0.640893794814    -0.422308179667    -0.245074952706    14.003074004430
         C           -1.724018205186    -0.550559179667    -0.592414952706    12.000000000000
         C           -0.475738205186     0.220683820333    -0.251992952706    12.000000000000
         C            1.854513794814     0.311138820333     0.120021047294    12.000000000000
         C           -2.749642105186    -0.647700879667     0.541537647294    12.000000000000
         C           -0.633346205186     1.685415820333     0.092710047294    12.000000000000
         C            3.025746794814    -0.655180179667     0.199121047294    12.000000000000
         H           -1.413860205186    -1.526700179667    -0.974634952706     1.007825032230
         H           -2.269172205186    -0.030088179667    -1.390989952706     1.007825032230
         H            2.061342794814     1.090253820333    -0.628440952706     1.007825032230
         H            1.727546794814     0.828170820333     1.082429047294     1.007825032230
         H           -3.529606205186    -1.297010179667     0.365084047294     1.007825032230
         H           -2.964418205186     0.241731820333     1.025037047294     1.007825032230
         H           -2.107046205186    -1.257738179667     1.420025047294     1.007825032230
         H           -0.404031205186     1.865190820333     1.149444047294     1.007825032230
         H           -1.650331205186     2.033708820333    -0.099638952706     1.007825032230
         H            0.059439794814     2.297510820333    -0.494297952706     1.007825032230
         H            3.950722794814    -0.132049179667     0.461363047294     1.007825032230
         H            2.832643794814    -1.421303179667     0.953766047294     1.007825032230
         H            3.166324794814    -1.155663179667    -0.761616952706     1.007825032230

  Basis Set: AUG-CC-PVTZ
    Blend: AUG-CC-PVTZ
  Basis Set: (AUG-CC-PVTZ AUX)
    Blend: AUG-CC-PVTZ-JKFIT
	 Reference Energy          =    -289.2908648830255061 [Eh]
	 Singles Energy            =      -0.0000000000000000 [Eh]
	 Same-Spin Energy          =      -0.3066773094762481 [Eh]
	 Opposite-Spin Energy      =      -1.0933896443029942 [Eh]
	 Correlation Energy        =      -1.4000669537792423 [Eh]
	 Total Energy              =    -290.6909318368047366 [Eh]

	 ================> DF-SCS-MP2 Energies <==================
	-----------------------------------------------------------
	 SCS Same-Spin Scale       =       0.3333333333333333 [-]
	 SCS Opposite-Spin Scale   =       1.2000000000000000 [-]
	 SCS Same-Spin Energy      =      -0.1022257698254160 [Eh]
	 SCS Opposite-Spin Energy  =      -1.3120675731635931 [Eh]
	 SCS Correlation Energy    =      -1.4142933429890092 [Eh]
	 SCS Total Energy          =    -290.7051582260145324 [Eh]
	-----------------------------------------------------------

  Dipole Moment: [D]
     X:    -0.8186      Y:     1.8143      Z:     0.3223     Total:     2.0164

*** Psi4 exiting successfully. Buy a developer a beer!
