                               Psi4 1.4a3.dev225

  ==> Input File <==

--------------------------------------------------------------------------
#psi4
#
memory 32 gb

molecule  {
0 1
  N        0.6335420    -0.4278790    -0.2728430
  C       -1.7313700    -0.5561300    -0.6201830
  C       -0.5387258     0.2240487    -0.1325081
  C        1.8471620     0.3055680     0.0922530
  C       -2.6435280    -0.7283840     0.5986220
  C       -0.6406980     1.6798450     0.0649420
  C        3.0183950    -0.6607510     0.1713530
  H       -1.4212120    -1.5322710    -1.0024030
  H       -2.2765240    -0.0356590    -1.4187580
  H        2.0539910     1.0846830    -0.6562090
  H        1.7201950     0.8226000     1.0546610
  H       -3.5369580    -1.3025810     0.3373160
  H       -2.9717700     0.2361610     0.9972690
  H       -2.1143980    -1.2633090     1.3922570
  H       -0.4113830     1.8596200     1.1216760
  H       -1.6576830     2.0281380    -0.1274070
  H        0.0520880     2.2919400    -0.5220660
  H        3.9433710    -0.1376200     0.4335950
  H        2.8252920    -1.4268740     0.9259980
  H        3.1589730    -1.1612340    -0.7893850
units angstrom
no_reorient  #important for SAPT in psi4, default
symmetry c1  #important for SAPT in psi4, default
}

set PROPERTIES_ORIGIN ["COM"]
properties('MP2/aug-cc-pvtz', properties = ['dipole'])
--------------------------------------------------------------------------

    Molecular point group: c1
  Charge       = 0
  Multiplicity = 1
  Basis Set: AUG-CC-PVTZ
    Blend: AUG-CC-PVTZ
  Basis Set: (AUG-CC-PVTZ AUX)
    Blend: AUG-CC-PVTZ-JKFIT

    Orbital Energies [Eh]
    ---------------------

    Doubly Occupied:

       1A    -15.544598     2A    -11.282169     3A    -11.239716
       4A    -11.233598     5A    -11.225477     6A    -11.218427
       7A    -11.201302     8A     -1.200806     9A     -1.063790
      10A     -0.999364    11A     -0.972499    12A     -0.873411
      13A     -0.811663    14A     -0.715268    15A     -0.652582
      16A     -0.624692    17A     -0.619502    18A     -0.592563
      19A     -0.573916    20A     -0.557252    21A     -0.530528
      22A     -0.516566    23A     -0.509806    24A     -0.492509
      25A     -0.487402    26A     -0.468904    27A     -0.390585
      28A     -0.363644

  @DF-RHF Final Energy:  -289.29398732609474

   => Energetics <=

    Nuclear Repulsion Energy =            307.3890924957261745
    One-Electron Energy =                -999.4410809115993288
    Two-Electron Energy =                 402.7580010897784746
    Total Energy =                       -289.2939873260947365
  Basis Set: (AUG-CC-PVTZ AUX)
    Blend: AUG-CC-PVTZ-RI
    Molecular point group: c1

    Geometry (in Angstrom), charge = 0, multiplicity = 1:

       Center              X                  Y                   Z               Mass
    ------------   -----------------  -----------------  -----------------  -----------------
         N            0.633891498214    -0.414295255928    -0.273179177891    14.003074004430
         C           -1.731020501786    -0.542546255928    -0.620519177891    12.000000000000
         C           -0.538376301786     0.237632444072    -0.132844277891    12.000000000000
         C            1.847511498214     0.319151744072     0.091916822109    12.000000000000
         C           -2.643178501786    -0.714800255928     0.598285822109    12.000000000000
         C           -0.640348501786     1.693428744072     0.064605822109    12.000000000000
         C            3.018744498214    -0.647167255928     0.171016822109    12.000000000000
         H           -1.420862501786    -1.518687255928    -1.002739177891     1.007825032230
         H           -2.276174501786    -0.022075255928    -1.419094177891     1.007825032230
         H            2.054340498214     1.098266744072    -0.656545177891     1.007825032230
         H            1.720544498214     0.836183744072     1.054324822109     1.007825032230
         H           -3.536608501786    -1.288997255928     0.336979822109     1.007825032230
         H           -2.971420501786     0.249744744072     0.996932822109     1.007825032230
         H           -2.114048501786    -1.249725255928     1.391920822109     1.007825032230
         H           -0.411033501786     1.873203744072     1.121339822109     1.007825032230
         H           -1.657333501786     2.041721744072    -0.127743177891     1.007825032230
         H            0.052437498214     2.305523744072    -0.522402177891     1.007825032230
         H            3.943720498214    -0.124036255928     0.433258822109     1.007825032230
         H            2.825641498214    -1.413290255928     0.925661822109     1.007825032230
         H            3.159322498214    -1.147650255928    -0.789721177891     1.007825032230

  Basis Set: AUG-CC-PVTZ
    Blend: AUG-CC-PVTZ
  Basis Set: (AUG-CC-PVTZ AUX)
    Blend: AUG-CC-PVTZ-JKFIT
	 Reference Energy          =    -289.2939873260947365 [Eh]
	 Singles Energy            =      -0.0000000000000000 [Eh]
	 Same-Spin Energy          =      -0.3086510044890992 [Eh]
	 Opposite-Spin Energy      =      -1.0970715434742890 [Eh]
	 Correlation Energy        =      -1.4057225479633884 [Eh]
	 Total Energy              =    -290.6997098740581009 [Eh]

	 ================> DF-SCS-MP2 Energies <==================
	-----------------------------------------------------------
	 SCS Same-Spin Scale       =       0.3333333333333333 [-]
	 SCS Opposite-Spin Scale   =       1.2000000000000000 [-]
	 SCS Same-Spin Energy      =      -0.1028836681630331 [Eh]
	 SCS Opposite-Spin Energy  =      -1.3164858521691467 [Eh]
	 SCS Correlation Energy    =      -1.4193695203321797 [Eh]
	 SCS Total Energy          =    -290.7133568464269047 [Eh]
	-----------------------------------------------------------

  Dipole Moment: [D]
     X:    -0.8421      Y:     1.8493      Z:     0.3399     Total:     2.0602

*** Psi4 exiting successfully. Buy a developer a beer!
