                               Psi4 1.4a3.dev225

  ==> Input File <==

--------------------------------------------------------------------------
#psi4
#
memory 32 gb

molecule  {
0 1
  N        0.6335420    -0.4278790    -0.2728430
  C       -1.7313700    -0.5561300    -0.6201830
  C       -0.4830900     0.2151130    -0.2797610
  C        1.8471620     0.3055680     0.0922530
  C       -2.6435280    -0.7283840     0.5986220
  C       -0.6406980     1.6798450     0.0649420
  C        3.0183950    -0.6607510     0.1713530
  H       -1.4212120    -1.5322710    -1.0024030
  H       -2.2765240    -0.0356590    -1.4187580
  H        2.0539910     1.0846830    -0.6562090
  H        1.7201950     0.8226000     1.0546610
  H       -3.5369580    -1.3025810     0.3373160
  H       -2.9717700     0.2361610     0.9972690
  H       -2.1143980    -1.2633090     1.3922570
  H       -0.4113830     1.8596200     1.1216760
  H       -1.4714299     1.9643508    -0.0921797
  H        0.0520880     2.2919400    -0.5220660
  H        3.9433710    -0.1376200     0.4335950
  H        2.8252920    -1.4268740     0.9259980
  H        3.1589730    -1.1612340    -0.7893850
units angstrom
no_reorient  #important for SAPT in psi4, default
symmetry c1  #important for SAPT in psi4, default
}

set PROPERTIES_ORIGIN ["COM"]
properties('MP2/aug-cc-pvtz', properties = ['dipole'])
--------------------------------------------------------------------------

    Molecular point group: c1
  Charge       = 0
  Multiplicity = 1
  Basis Set: AUG-CC-PVTZ
    Blend: AUG-CC-PVTZ
  Basis Set: (AUG-CC-PVTZ AUX)
    Blend: AUG-CC-PVTZ-JKFIT

    Orbital Energies [Eh]
    ---------------------

    Doubly Occupied:

       1A    -15.537282     2A    -11.274055     3A    -11.240889
       4A    -11.223908     5A    -11.220512     6A    -11.207172
       7A    -11.201577     8A     -1.216386     9A     -1.062670
      10A     -1.003564    11A     -0.987930    12A     -0.878134
      13A     -0.816463    14A     -0.715969    15A     -0.653534
      16A     -0.632587    17A     -0.623589    18A     -0.599331
      19A     -0.575891    20A     -0.558796    21A     -0.539499
      22A     -0.515277    23A     -0.513404    24A     -0.492257
      25A     -0.486275    26A     -0.477140    27A     -0.384412
      28A     -0.379439

  @DF-RHF Final Energy:  -289.27982516779230

   => Energetics <=

    Nuclear Repulsion Energy =            308.5850589905720085
    One-Electron Energy =               -1001.6938841729888736
    Two-Electron Energy =                 403.8290000146246257
    Total Energy =                       -289.2798251677922963
  Basis Set: (AUG-CC-PVTZ AUX)
    Blend: AUG-CC-PVTZ-RI
    Molecular point group: c1

    Geometry (in Angstrom), charge = 0, multiplicity = 1:

       Center              X                  Y                   Z               Mass
    ------------   -----------------  -----------------  -----------------  -----------------
         N            0.625260835103    -0.412564615859    -0.255707452452    14.003074004430
         C           -1.739651164897    -0.540815615859    -0.603047452452    12.000000000000
         C           -0.491371164897     0.230427384141    -0.262625452452    12.000000000000
         C            1.838880835103     0.320882384141     0.109388547548    12.000000000000
         C           -2.651809164897    -0.713069615859     0.615757547548    12.000000000000
         C           -0.648979164897     1.695159384141     0.082077547548    12.000000000000
         C            3.010113835103    -0.645436615859     0.188488547548    12.000000000000
         H           -1.429493164897    -1.516956615859    -0.985267452452     1.007825032230
         H           -2.284805164897    -0.020344615859    -1.401622452452     1.007825032230
         H            2.045709835103     1.099997384141    -0.639073452452     1.007825032230
         H            1.711913835103     0.837914384141     1.071796547548     1.007825032230
         H           -3.545239164897    -1.287266615859     0.354451547548     1.007825032230
         H           -2.980051164897     0.251475384141     1.014404547548     1.007825032230
         H           -2.122679164897    -1.247994615859     1.409392547548     1.007825032230
         H           -0.419664164897     1.874934384141     1.138811547548     1.007825032230
         H           -1.479711064897     1.979665184141    -0.075044152452     1.007825032230
         H            0.043806835103     2.307254384141    -0.504930452452     1.007825032230
         H            3.935089835103    -0.122305615859     0.450730547548     1.007825032230
         H            2.817010835103    -1.411559615859     0.943133547548     1.007825032230
         H            3.150691835103    -1.145919615859    -0.772249452452     1.007825032230

  Basis Set: AUG-CC-PVTZ
    Blend: AUG-CC-PVTZ
  Basis Set: (AUG-CC-PVTZ AUX)
    Blend: AUG-CC-PVTZ-JKFIT
	 Reference Energy          =    -289.2798251677922963 [Eh]
	 Singles Energy            =      -0.0000000000000000 [Eh]
	 Same-Spin Energy          =      -0.3063656166910596 [Eh]
	 Opposite-Spin Energy      =      -1.0915633885144596 [Eh]
	 Correlation Energy        =      -1.3979290052055191 [Eh]
	 Total Energy              =    -290.6777541729978225 [Eh]

	 ================> DF-SCS-MP2 Energies <==================
	-----------------------------------------------------------
	 SCS Same-Spin Scale       =       0.3333333333333333 [-]
	 SCS Opposite-Spin Scale   =       1.2000000000000000 [-]
	 SCS Same-Spin Energy      =      -0.1021218722303532 [Eh]
	 SCS Opposite-Spin Energy  =      -1.3098760662173514 [Eh]
	 SCS Correlation Energy    =      -1.4119979384477046 [Eh]
	 SCS Total Energy          =    -290.6918231062400082 [Eh]
	-----------------------------------------------------------

  Dipole Moment: [D]
     X:    -0.9064      Y:     1.8028      Z:     0.3754     Total:     2.0525

*** Psi4 exiting successfully. Buy a developer a beer!
