                               Psi4 1.4a3.dev225

  ==> Input File <==

--------------------------------------------------------------------------
#psi4
#
memory 32 gb

molecule  {
0 1
  N        0.6335420    -0.4278790    -0.2728430
  C       -1.7313700    -0.5561300    -0.6201830
  C       -0.4830900     0.2151130    -0.2797610
  C        1.8471620     0.3055680     0.0922530
  C       -2.6435280    -0.7283840     0.5986220
  C       -0.6406980     1.6798450     0.0649420
  C        3.0183950    -0.6607510     0.1713530
  H       -1.4212120    -1.5322710    -1.0024030
  H       -2.2765240    -0.0356590    -1.4187580
  H        2.0539910     1.0846830    -0.6562090
  H        1.7144230     0.8461046     1.0984128
  H       -3.5369580    -1.3025810     0.3373160
  H       -2.9717700     0.2361610     0.9972690
  H       -2.1143980    -1.2633090     1.3922570
  H       -0.4113830     1.8596200     1.1216760
  H       -1.6576830     2.0281380    -0.1274070
  H        0.0520880     2.2919400    -0.5220660
  H        3.9433710    -0.1376200     0.4335950
  H        2.8252920    -1.4268740     0.9259980
  H        3.1589730    -1.1612340    -0.7893850
units angstrom
no_reorient  #important for SAPT in psi4, default
symmetry c1  #important for SAPT in psi4, default
}

set PROPERTIES_ORIGIN ["COM"]
properties('MP2/aug-cc-pvtz', properties = ['dipole'])
--------------------------------------------------------------------------

    Molecular point group: c1
  Charge       = 0
  Multiplicity = 1
  Basis Set: AUG-CC-PVTZ
    Blend: AUG-CC-PVTZ
  Basis Set: (AUG-CC-PVTZ AUX)
    Blend: AUG-CC-PVTZ-JKFIT

    Orbital Energies [Eh]
    ---------------------

    Doubly Occupied:

       1A    -15.539345     2A    -11.276213     3A    -11.248161
       4A    -11.231604     5A    -11.223821     6A    -11.220051
       7A    -11.202908     8A     -1.217484     9A     -1.058989
      10A     -0.997751    11A     -0.971558    12A     -0.877272
      13A     -0.814551    14A     -0.706984    15A     -0.651299
      16A     -0.625912    17A     -0.614875    18A     -0.589397
      19A     -0.575021    20A     -0.552078    21A     -0.535904
      22A     -0.515421    23A     -0.510640    24A     -0.491181
      25A     -0.486256    26A     -0.477303    27A     -0.385468
      28A     -0.380017

  @DF-RHF Final Energy:  -289.31191148328071

   => Energetics <=

    Nuclear Repulsion Energy =            307.3891535346115802
    One-Electron Energy =                -999.4472029897748371
    Two-Electron Energy =                 402.7461379718824901
    Total Energy =                       -289.3119114832807099
  Basis Set: (AUG-CC-PVTZ AUX)
    Blend: AUG-CC-PVTZ-RI
    Molecular point group: c1

    Geometry (in Angstrom), charge = 0, multiplicity = 1:

       Center              X                  Y                   Z               Mass
    ------------   -----------------  -----------------  -----------------  -----------------
         N            0.627213593231    -0.413452311123    -0.255794140529    14.003074004430
         C           -1.737698406769    -0.541703311123    -0.603134140529    12.000000000000
         C           -0.489418406769     0.229539688877    -0.262712140529    12.000000000000
         C            1.840833593231     0.319994688877     0.109301859471    12.000000000000
         C           -2.649856406769    -0.713957311123     0.615670859471    12.000000000000
         C           -0.647026406769     1.694271688877     0.081990859471    12.000000000000
         C            3.012066593231    -0.646324311123     0.188401859471    12.000000000000
         H           -1.427540406769    -1.517844311123    -0.985354140529     1.007825032230
         H           -2.282852406769    -0.021232311123    -1.401709140529     1.007825032230
         H            2.047662593231     1.099109688877    -0.639160140529     1.007825032230
         H            1.708094593231     0.860531288877     1.115461659471     1.007825032230
         H           -3.543286406769    -1.288154311123     0.354364859471     1.007825032230
         H           -2.978098406769     0.250587688877     1.014317859471     1.007825032230
         H           -2.120726406769    -1.248882311123     1.409305859471     1.007825032230
         H           -0.417711406769     1.874046688877     1.138724859471     1.007825032230
         H           -1.664011406769     2.042564688877    -0.110358140529     1.007825032230
         H            0.045759593231     2.306366688877    -0.505017140529     1.007825032230
         H            3.937042593231    -0.123193311123     0.450643859471     1.007825032230
         H            2.818963593231    -1.412447311123     0.943046859471     1.007825032230
         H            3.152644593231    -1.146807311123    -0.772336140529     1.007825032230

  Basis Set: AUG-CC-PVTZ
    Blend: AUG-CC-PVTZ
  Basis Set: (AUG-CC-PVTZ AUX)
    Blend: AUG-CC-PVTZ-JKFIT
	 Reference Energy          =    -289.3119114832807099 [Eh]
	 Singles Energy            =      -0.0000000000000000 [Eh]
	 Same-Spin Energy          =      -0.3064241154909104 [Eh]
	 Opposite-Spin Energy      =      -1.0926506403441958 [Eh]
	 Correlation Energy        =      -1.3990747558351062 [Eh]
	 Total Energy              =    -290.7109862391158117 [Eh]

	 ================> DF-SCS-MP2 Energies <==================
	-----------------------------------------------------------
	 SCS Same-Spin Scale       =       0.3333333333333333 [-]
	 SCS Opposite-Spin Scale   =       1.2000000000000000 [-]
	 SCS Same-Spin Energy      =      -0.1021413718303035 [Eh]
	 SCS Opposite-Spin Energy  =      -1.3111807684130350 [Eh]
	 SCS Correlation Energy    =      -1.4133221402433385 [Eh]
	 SCS Total Energy          =    -290.7252336235240477 [Eh]
	-----------------------------------------------------------

  Dipole Moment: [D]
     X:    -0.8285      Y:     1.7335      Z:     0.3479     Total:     1.9526

*** Psi4 exiting successfully. Buy a developer a beer!
