                               Psi4 1.4a3.dev225

  ==> Input File <==

--------------------------------------------------------------------------
#psi4
#
memory 32 gb

molecule  {
0 1
  N        0.6335420    -0.4278790    -0.2728430
  C       -1.7313700    -0.5561300    -0.6201830
  C       -0.4830900     0.2151130    -0.2797610
  C        1.8471620     0.3055680     0.0922530
  C       -2.6435280    -0.7283840     0.5986220
  C       -0.6406980     1.6798450     0.0649420
  C        3.0183950    -0.6607510     0.1713530
  H       -1.4212120    -1.5322710    -1.0024030
  H       -2.2765240    -0.0356590    -1.4187580
  H        2.0539910     1.0846830    -0.6562090
  H        1.7201950     0.8226000     1.0546610
  H       -3.5369580    -1.3025810     0.3373160
  H       -2.9717700     0.2361610     0.9972690
  H       -2.1143980    -1.2633090     1.3922570
  H       -0.4113830     1.8596200     1.1216760
  H       -1.6576830     2.0281380    -0.1274070
  H        0.0520880     2.2919400    -0.5220660
  H        3.9433710    -0.1376200     0.4335950
  H        2.8252920    -1.4268740     0.9259980
  H        3.1589730    -1.1612340    -0.7893850
units angstrom
no_reorient  #important for SAPT in psi4, default
symmetry c1  #important for SAPT in psi4, default
}

set PROPERTIES_ORIGIN ["COM"]
properties('MP2/aug-cc-pvtz', properties = ['dipole'])
--------------------------------------------------------------------------

    Molecular point group: c1
  Charge       = 0
  Multiplicity = 1
  Basis Set: AUG-CC-PVTZ
    Blend: AUG-CC-PVTZ
  Basis Set: (AUG-CC-PVTZ AUX)
    Blend: AUG-CC-PVTZ-JKFIT

    Orbital Energies [Eh]
    ---------------------

    Doubly Occupied:

       1A    -15.538685     2A    -11.275715     3A    -11.242037
       4A    -11.231660     5A    -11.223566     6A    -11.219889
       7A    -11.202352     8A     -1.217345     9A     -1.059329
      10A     -0.998185    11A     -0.971749    12A     -0.877331
      13A     -0.817078    14A     -0.708656    15A     -0.651765
      16A     -0.627413    17A     -0.615904    18A     -0.590125
      19A     -0.575564    20A     -0.552001    21A     -0.535643
      22A     -0.515168    23A     -0.511287    24A     -0.493073
      25A     -0.486057    26A     -0.477374    27A     -0.385366
      28A     -0.380596

  @DF-RHF Final Energy:  -289.31405196266587

   => Energetics <=

    Nuclear Repulsion Energy =            307.6022894459357531
    One-Electron Energy =                -999.8708530150254319
    Two-Electron Energy =                 402.9545116064238073
    Total Energy =                       -289.3140519626658715
  Basis Set: (AUG-CC-PVTZ AUX)
    Blend: AUG-CC-PVTZ-RI
    Molecular point group: c1

    Geometry (in Angstrom), charge = 0, multiplicity = 1:

       Center              X                  Y                   Z               Mass
    ------------   -----------------  -----------------  -----------------  -----------------
         N            0.627154896114    -0.413213286128    -0.255349215969    14.003074004430
         C           -1.737757103886    -0.541464286128    -0.602689215969    12.000000000000
         C           -0.489477103886     0.229778713872    -0.262267215969    12.000000000000
         C            1.840774896114     0.320233713872     0.109746784031    12.000000000000
         C           -2.649915103886    -0.713718286128     0.616115784031    12.000000000000
         C           -0.647085103886     1.694510713872     0.082435784031    12.000000000000
         C            3.012007896114    -0.646085286128     0.188846784031    12.000000000000
         H           -1.427599103886    -1.517605286128    -0.984909215969     1.007825032230
         H           -2.282911103886    -0.020993286128    -1.401264215969     1.007825032230
         H            2.047603896114     1.099348713872    -0.638715215969     1.007825032230
         H            1.713807896114     0.837265713872     1.072154784031     1.007825032230
         H           -3.543345103886    -1.287915286128     0.354809784031     1.007825032230
         H           -2.978157103886     0.250826713872     1.014762784031     1.007825032230
         H           -2.120785103886    -1.248643286128     1.409750784031     1.007825032230
         H           -0.417770103886     1.874285713872     1.139169784031     1.007825032230
         H           -1.664070103886     2.042803713872    -0.109913215969     1.007825032230
         H            0.045700896114     2.306605713872    -0.504572215969     1.007825032230
         H            3.936983896114    -0.122954286128     0.451088784031     1.007825032230
         H            2.818904896114    -1.412208286128     0.943491784031     1.007825032230
         H            3.152585896114    -1.146568286128    -0.771891215969     1.007825032230

  Basis Set: AUG-CC-PVTZ
    Blend: AUG-CC-PVTZ
  Basis Set: (AUG-CC-PVTZ AUX)
    Blend: AUG-CC-PVTZ-JKFIT
	 Reference Energy          =    -289.3140519626658715 [Eh]
	 Singles Energy            =      -0.0000000000000000 [Eh]
	 Same-Spin Energy          =      -0.3063438833220122 [Eh]
	 Opposite-Spin Energy      =      -1.0922829845089483 [Eh]
	 Correlation Energy        =      -1.3986268678309606 [Eh]
	 Total Energy              =    -290.7126788304968272 [Eh]

	 ================> DF-SCS-MP2 Energies <==================
	-----------------------------------------------------------
	 SCS Same-Spin Scale       =       0.3333333333333333 [-]
	 SCS Opposite-Spin Scale   =       1.2000000000000000 [-]
	 SCS Same-Spin Energy      =      -0.1021146277740041 [Eh]
	 SCS Opposite-Spin Energy  =      -1.3107395814107379 [Eh]
	 SCS Correlation Energy    =      -1.4128542091847420 [Eh]
	 SCS Total Energy          =    -290.7269061718506009 [Eh]
	-----------------------------------------------------------

  Dipole Moment: [D]
     X:    -0.8219      Y:     1.7605      Z:     0.3806     Total:     1.9798

*** Psi4 exiting successfully. Buy a developer a beer!
