                               Psi4 1.4a3.dev225

  ==> Input File <==

--------------------------------------------------------------------------
#psi4
#
memory 32 gb

molecule  {
0 1
  N        0.6335420    -0.4278790    -0.2728430
  C       -1.7313700    -0.5561300    -0.6201830
  C       -0.4830900     0.2151130    -0.2797610
  C        1.8471620     0.3055680     0.0922530
  C       -2.6435280    -0.7283840     0.5986220
  C       -0.6406980     1.6798450     0.0649420
  C        3.0183950    -0.6607510     0.1713530
  H       -1.4212120    -1.5322710    -1.0024030
  H       -2.2765240    -0.0356590    -1.4187580
  H        2.0539910     1.0846830    -0.6562090
  H        1.7201950     0.8226000     1.0546610
  H       -3.5369580    -1.3025810     0.3373160
  H       -2.9717700     0.2361610     0.9972690
  H       -2.1143980    -1.2633090     1.3922570
  H       -0.4113830     1.8596200     1.1216760
  H       -1.6576830     2.0281380    -0.1274070
  H        0.0520880     2.2919400    -0.5220660
  H        3.9433710    -0.1376200     0.4335950
  H        2.8217572    -1.4408982     0.9398121
  H        3.1589730    -1.1612340    -0.7893850
units angstrom
no_reorient  #important for SAPT in psi4, default
symmetry c1  #important for SAPT in psi4, default
}

set PROPERTIES_ORIGIN ["COM"]
properties('MP2/aug-cc-pvtz', properties = ['dipole'])
--------------------------------------------------------------------------

    Molecular point group: c1
  Charge       = 0
  Multiplicity = 1
  Basis Set: AUG-CC-PVTZ
    Blend: AUG-CC-PVTZ
  Basis Set: (AUG-CC-PVTZ AUX)
    Blend: AUG-CC-PVTZ-JKFIT

    Orbital Energies [Eh]
    ---------------------

    Doubly Occupied:

       1A    -15.538732     2A    -11.275757     3A    -11.242278
       4A    -11.231708     5A    -11.223591     6A    -11.219900
       7A    -11.204826     8A     -1.217395     9A     -1.059255
      10A     -0.997744    11A     -0.971556    12A     -0.876924
      13A     -0.816245    14A     -0.708655    15A     -0.651827
      16A     -0.627275    17A     -0.615398    18A     -0.590194
      19A     -0.575178    20A     -0.551913    21A     -0.535720
      22A     -0.515128    23A     -0.510672    24A     -0.491184
      25A     -0.485998    26A     -0.477535    27A     -0.385430
      28A     -0.380644

  @DF-RHF Final Energy:  -289.31357007089872

   => Energetics <=

    Nuclear Repulsion Energy =            307.5243833736963097
    One-Electron Energy =                -999.7185856011407168
    Two-Electron Energy =                 402.8806321565456869
    Total Energy =                       -289.3135700708987201
  Basis Set: (AUG-CC-PVTZ AUX)
    Blend: AUG-CC-PVTZ-RI
    Molecular point group: c1

    Geometry (in Angstrom), charge = 0, multiplicity = 1:

       Center              X                  Y                   Z               Mass
    ------------   -----------------  -----------------  -----------------  -----------------
         N            0.627190842505    -0.413070670029    -0.255489695501    14.003074004430
         C           -1.737721157495    -0.541321670029    -0.602829695501    12.000000000000
         C           -0.489441157495     0.229921329971    -0.262407695501    12.000000000000
         C            1.840810842505     0.320376329971     0.109606304499    12.000000000000
         C           -2.649879157495    -0.713575670029     0.615975304499    12.000000000000
         C           -0.647049157495     1.694653329971     0.082295304499    12.000000000000
         C            3.012043842505    -0.645942670029     0.188706304499    12.000000000000
         H           -1.427563157495    -1.517462670029    -0.985049695501     1.007825032230
         H           -2.282875157495    -0.020850670029    -1.401404695501     1.007825032230
         H            2.047639842505     1.099491329971    -0.638855695501     1.007825032230
         H            1.713843842505     0.837408329971     1.072014304499     1.007825032230
         H           -3.543309157495    -1.287772670029     0.354669304499     1.007825032230
         H           -2.978121157495     0.250969329971     1.014622304499     1.007825032230
         H           -2.120749157495    -1.248500670029     1.409610304499     1.007825032230
         H           -0.417734157495     1.874428329971     1.139029304499     1.007825032230
         H           -1.664034157495     2.042946329971    -0.110053695501     1.007825032230
         H            0.045736842505     2.306748329971    -0.504712695501     1.007825032230
         H            3.937019842505    -0.122811670029     0.450948304499     1.007825032230
         H            2.815406042505    -1.426089870029     0.957165404499     1.007825032230
         H            3.152621842505    -1.146425670029    -0.772031695501     1.007825032230

  Basis Set: AUG-CC-PVTZ
    Blend: AUG-CC-PVTZ
  Basis Set: (AUG-CC-PVTZ AUX)
    Blend: AUG-CC-PVTZ-JKFIT
	 Reference Energy          =    -289.3135700708987201 [Eh]
	 Singles Energy            =      -0.0000000000000000 [Eh]
	 Same-Spin Energy          =      -0.3063312180201218 [Eh]
	 Opposite-Spin Energy      =      -1.0923954580359252 [Eh]
	 Correlation Energy        =      -1.3987266760560471 [Eh]
	 Total Energy              =    -290.7122967469547916 [Eh]

	 ================> DF-SCS-MP2 Energies <==================
	-----------------------------------------------------------
	 SCS Same-Spin Scale       =       0.3333333333333333 [-]
	 SCS Opposite-Spin Scale   =       1.2000000000000000 [-]
	 SCS Same-Spin Energy      =      -0.1021104060067073 [Eh]
	 SCS Opposite-Spin Energy  =      -1.3108745496431102 [Eh]
	 SCS Correlation Energy    =      -1.4129849556498175 [Eh]
	 SCS Total Energy          =    -290.7265550265485103 [Eh]
	-----------------------------------------------------------

  Dipole Moment: [D]
     X:    -0.8246      Y:     1.7694      Z:     0.3726     Total:     1.9874

*** Psi4 exiting successfully. Buy a developer a beer!
