                               Psi4 1.4a3.dev225

  ==> Input File <==

--------------------------------------------------------------------------
#psi4
#
memory 32 gb

molecule  {
0 1
  N        0.6335420    -0.4278790    -0.2728430
  C       -1.7313700    -0.5561300    -0.6201830
  C       -0.4830900     0.2151130    -0.2797610
  C        1.8471620     0.3055680     0.0922530
  C       -2.6435280    -0.7283840     0.5986220
  C       -0.6406980     1.6798450     0.0649420
  C        3.0183950    -0.6607510     0.1713530
  H       -1.4212120    -1.5322710    -1.0024030
  H       -2.2765240    -0.0356590    -1.4187580
  H        2.0539910     1.0846830    -0.6562090
  H        1.7201950     0.8226000     1.0546610
  H       -3.5369580    -1.3025810     0.3373160
  H       -2.9717700     0.2361610     0.9972690
  H       -2.1143980    -1.2633090     1.3922570
  H       -0.4113830     1.8596200     1.1216760
  H       -1.6576830     2.0281380    -0.1274070
  H        0.0520880     2.2919400    -0.5220660
  H        3.9433710    -0.1376200     0.4335950
  H        2.8288268    -1.4128498     0.9121839
  H        3.1589730    -1.1612340    -0.7893850
units angstrom
no_reorient  #important for SAPT in psi4, default
symmetry c1  #important for SAPT in psi4, default
}

set PROPERTIES_ORIGIN ["COM"]
properties('MP2/aug-cc-pvtz', properties = ['dipole'])
--------------------------------------------------------------------------

    Molecular point group: c1
  Charge       = 0
  Multiplicity = 1
  Basis Set: AUG-CC-PVTZ
    Blend: AUG-CC-PVTZ
  Basis Set: (AUG-CC-PVTZ AUX)
    Blend: AUG-CC-PVTZ-JKFIT

    Orbital Energies [Eh]
    ---------------------

    Doubly Occupied:

       1A    -15.538642     2A    -11.275675     3A    -11.241809
       4A    -11.231614     5A    -11.223544     6A    -11.219878
       7A    -11.199856     8A     -1.217301     9A     -1.059421
      10A     -0.998687    11A     -0.971961    12A     -0.877780
      13A     -0.817960    14A     -0.708665    15A     -0.651708
      16A     -0.627590    17A     -0.616441    18A     -0.590063
      19A     -0.575979    20A     -0.552100    21A     -0.535584
      22A     -0.515282    23A     -0.512035    24A     -0.494710
      25A     -0.486077    26A     -0.477222    27A     -0.385305
      28A     -0.380552

  @DF-RHF Final Energy:  -289.31404018759935

   => Energetics <=

    Nuclear Repulsion Energy =            307.6822341334045632
    One-Electron Energy =               -1000.0256692406251204
    Two-Electron Energy =                 403.0293949196212111
    Total Energy =                       -289.3140401875993462
  Basis Set: (AUG-CC-PVTZ AUX)
    Blend: AUG-CC-PVTZ-RI
    Molecular point group: c1

    Geometry (in Angstrom), charge = 0, multiplicity = 1:

       Center              X                  Y                   Z               Mass
    ------------   -----------------  -----------------  -----------------  -----------------
         N            0.627118949722    -0.413355902226    -0.255208736438    14.003074004430
         C           -1.737793050278    -0.541606902226    -0.602548736438    12.000000000000
         C           -0.489513050278     0.229636097774    -0.262126736438    12.000000000000
         C            1.840738949722     0.320091097774     0.109887263562    12.000000000000
         C           -2.649951050278    -0.713860902226     0.616256263562    12.000000000000
         C           -0.647121050278     1.694368097774     0.082576263562    12.000000000000
         C            3.011971949722    -0.646227902226     0.188987263562    12.000000000000
         H           -1.427635050278    -1.517747902226    -0.984768736438     1.007825032230
         H           -2.282947050278    -0.021135902226    -1.401123736438     1.007825032230
         H            2.047567949722     1.099206097774    -0.638574736438     1.007825032230
         H            1.713771949722     0.837123097774     1.072295263562     1.007825032230
         H           -3.543381050278    -1.288057902226     0.354950263562     1.007825032230
         H           -2.978193050278     0.250684097774     1.014903263562     1.007825032230
         H           -2.120821050278    -1.248785902226     1.409891263562     1.007825032230
         H           -0.417806050278     1.874143097774     1.139310263562     1.007825032230
         H           -1.664106050278     2.042661097774    -0.109772736438     1.007825032230
         H            0.045664949722     2.306463097774    -0.504431736438     1.007825032230
         H            3.936947949722    -0.123096902226     0.451229263562     1.007825032230
         H            2.822403749722    -1.398326702226     0.929818163562     1.007825032230
         H            3.152549949722    -1.146710902226    -0.771750736438     1.007825032230

  Basis Set: AUG-CC-PVTZ
    Blend: AUG-CC-PVTZ
  Basis Set: (AUG-CC-PVTZ AUX)
    Blend: AUG-CC-PVTZ-JKFIT
	 Reference Energy          =    -289.3140401875993462 [Eh]
	 Singles Energy            =      -0.0000000000000000 [Eh]
	 Same-Spin Energy          =      -0.3063572867125632 [Eh]
	 Opposite-Spin Energy      =      -1.0921794934864828 [Eh]
	 Correlation Energy        =      -1.3985367801990460 [Eh]
	 Total Energy              =    -290.7125769677983840 [Eh]

	 ================> DF-SCS-MP2 Energies <==================
	-----------------------------------------------------------
	 SCS Same-Spin Scale       =       0.3333333333333333 [-]
	 SCS Opposite-Spin Scale   =       1.2000000000000000 [-]
	 SCS Same-Spin Energy      =      -0.1021190955708544 [Eh]
	 SCS Opposite-Spin Energy  =      -1.3106153921837793 [Eh]
	 SCS Correlation Energy    =      -1.4127344877546337 [Eh]
	 SCS Total Energy          =    -290.7267746753539654 [Eh]
	-----------------------------------------------------------

  Dipole Moment: [D]
     X:    -0.8193      Y:     1.7520      Z:     0.3881     Total:     1.9727

*** Psi4 exiting successfully. Buy a developer a beer!
