                               Psi4 1.4a3.dev225

  ==> Input File <==

--------------------------------------------------------------------------
#psi4
#
memory 32 gb

molecule  {
0 1
  N        0.6335420    -0.4278790    -0.2728430
  C       -1.7292042    -0.5827174    -0.6220264
  C       -0.4830900     0.2151130    -0.2797610
  C        1.8471620     0.3055680     0.0922530
  C       -2.6435280    -0.7283840     0.5986220
  C       -0.6406980     1.6798450     0.0649420
  C        3.0183950    -0.6607510     0.1713530
  H       -1.4212120    -1.5322710    -1.0024030
  H       -2.2765240    -0.0356590    -1.4187580
  H        2.0539910     1.0846830    -0.6562090
  H        1.7201950     0.8226000     1.0546610
  H       -3.5369580    -1.3025810     0.3373160
  H       -2.9717700     0.2361610     0.9972690
  H       -2.1143980    -1.2633090     1.3922570
  H       -0.4113830     1.8596200     1.1216760
  H       -1.6576830     2.0281380    -0.1274070
  H        0.0520880     2.2919400    -0.5220660
  H        3.9433710    -0.1376200     0.4335950
  H        2.8252920    -1.4268740     0.9259980
  H        3.1589730    -1.1612340    -0.7893850
units angstrom
no_reorient  #important for SAPT in psi4, default
symmetry c1  #important for SAPT in psi4, default
}

set PROPERTIES_ORIGIN ["COM"]
properties('MP2/aug-cc-pvtz', properties = ['dipole'])
--------------------------------------------------------------------------

    Molecular point group: c1
  Charge       = 0
  Multiplicity = 1
  Basis Set: AUG-CC-PVTZ
    Blend: AUG-CC-PVTZ
  Basis Set: (AUG-CC-PVTZ AUX)
    Blend: AUG-CC-PVTZ-JKFIT

    Orbital Energies [Eh]
    ---------------------

    Doubly Occupied:

       1A    -15.538165     2A    -11.276036     3A    -11.241713
       4A    -11.232257     5A    -11.223484     6A    -11.219696
       7A    -11.202214     8A     -1.216832     9A     -1.058090
      10A     -0.998310    11A     -0.971898    12A     -0.876531
      13A     -0.816946    14A     -0.708731    15A     -0.652621
      16A     -0.626599    17A     -0.614427    18A     -0.590674
      19A     -0.575303    20A     -0.552068    21A     -0.535475
      22A     -0.515598    23A     -0.511002    24A     -0.492852
      25A     -0.490617    26A     -0.474897    27A     -0.384598
      28A     -0.380315

  @DF-RHF Final Energy:  -289.31346518904411

   => Energetics <=

    Nuclear Repulsion Energy =            307.4416497777635868
    One-Electron Energy =                -999.5543295059511593
    Two-Electron Energy =                 402.7992145391434633
    Total Energy =                       -289.3134651890441091
  Basis Set: (AUG-CC-PVTZ AUX)
    Blend: AUG-CC-PVTZ-RI
    Molecular point group: c1

    Geometry (in Angstrom), charge = 0, multiplicity = 1:

       Center              X                  Y                   Z               Mass
    ------------   -----------------  -----------------  -----------------  -----------------
         N            0.626892652507    -0.409993978871    -0.255126009827    14.003074004430
         C           -1.735853547493    -0.564832378871    -0.604309409827    12.000000000000
         C           -0.489739347493     0.232998021129    -0.262044009827    12.000000000000
         C            1.840512652507     0.323453021129     0.109969990173    12.000000000000
         C           -2.650177347493    -0.710498978871     0.616338990173    12.000000000000
         C           -0.647347347493     1.697730021129     0.082658990173    12.000000000000
         C            3.011745652507    -0.642865978871     0.189069990173    12.000000000000
         H           -1.427861347493    -1.514385978871    -0.984686009827     1.007825032230
         H           -2.283173347493    -0.017773978871    -1.401041009827     1.007825032230
         H            2.047341652507     1.102568021129    -0.638492009827     1.007825032230
         H            1.713545652507     0.840485021129     1.072377990173     1.007825032230
         H           -3.543607347493    -1.284695978871     0.355032990173     1.007825032230
         H           -2.978419347493     0.254046021129     1.014985990173     1.007825032230
         H           -2.121047347493    -1.245423978871     1.409973990173     1.007825032230
         H           -0.418032347493     1.877505021129     1.139392990173     1.007825032230
         H           -1.664332347493     2.046023021129    -0.109690009827     1.007825032230
         H            0.045438652507     2.309825021129    -0.504349009827     1.007825032230
         H            3.936721652507    -0.119734978871     0.451311990173     1.007825032230
         H            2.818642652507    -1.408988978871     0.943714990173     1.007825032230
         H            3.152323652507    -1.143348978871    -0.771668009827     1.007825032230

  Basis Set: AUG-CC-PVTZ
    Blend: AUG-CC-PVTZ
  Basis Set: (AUG-CC-PVTZ AUX)
    Blend: AUG-CC-PVTZ-JKFIT
	 Reference Energy          =    -289.3134651890441091 [Eh]
	 Singles Energy            =      -0.0000000000000000 [Eh]
	 Same-Spin Energy          =      -0.3062458360130102 [Eh]
	 Opposite-Spin Energy      =      -1.0921973020878086 [Eh]
	 Correlation Energy        =      -1.3984431381008189 [Eh]
	 Total Energy              =    -290.7119083271449540 [Eh]

	 ================> DF-SCS-MP2 Energies <==================
	-----------------------------------------------------------
	 SCS Same-Spin Scale       =       0.3333333333333333 [-]
	 SCS Opposite-Spin Scale   =       1.2000000000000000 [-]
	 SCS Same-Spin Energy      =      -0.1020819453376701 [Eh]
	 SCS Opposite-Spin Energy  =      -1.3106367625053703 [Eh]
	 SCS Correlation Energy    =      -1.4127187078430403 [Eh]
	 SCS Total Energy          =    -290.7261838968871643 [Eh]
	-----------------------------------------------------------

  Dipole Moment: [D]
     X:    -0.8194      Y:     1.7605      Z:     0.3855     Total:     1.9798

*** Psi4 exiting successfully. Buy a developer a beer!
