                               Psi4 1.4a3.dev225

  ==> Input File <==

--------------------------------------------------------------------------
#psi4
#
memory 32 gb

molecule  {
0 1
  N        0.6335420    -0.4278790    -0.2728430
  C       -1.7313700    -0.5561300    -0.6201830
  C       -0.4830900     0.2151130    -0.2797610
  C        1.8471620     0.3055680     0.0922530
  C       -2.6435280    -0.7283840     0.5986220
  C       -0.6406980     1.6798450     0.0649420
  C        3.0183950    -0.6607510     0.1713530
  H       -1.4212120    -1.5322710    -1.0024030
  H       -2.2765240    -0.0356590    -1.4187580
  H        2.0539910     1.0846830    -0.6562090
  H        1.7201950     0.8226000     1.0546610
  H       -3.5369580    -1.3025810     0.3373160
  H       -2.9717700     0.2361610     0.9972690
  H       -2.1143980    -1.2633090     1.3922570
  H       -0.4113830     1.8596200     1.1216760
  H       -1.7042463     2.0440848    -0.1362138
  H        0.0520880     2.2919400    -0.5220660
  H        3.9433710    -0.1376200     0.4335950
  H        2.8252920    -1.4268740     0.9259980
  H        3.1589730    -1.1612340    -0.7893850
units angstrom
no_reorient  #important for SAPT in psi4, default
symmetry c1  #important for SAPT in psi4, default
}

set PROPERTIES_ORIGIN ["COM"]
properties('MP2/aug-cc-pvtz', properties = ['dipole'])
--------------------------------------------------------------------------

    Molecular point group: c1
  Charge       = 0
  Multiplicity = 1
  Basis Set: AUG-CC-PVTZ
    Blend: AUG-CC-PVTZ
  Basis Set: (AUG-CC-PVTZ AUX)
    Blend: AUG-CC-PVTZ-JKFIT

    Orbital Energies [Eh]
    ---------------------

    Doubly Occupied:

       1A    -15.539173     2A    -11.276297     3A    -11.242428
       4A    -11.237612     5A    -11.223500     6A    -11.219702
       7A    -11.202617     8A     -1.217756     9A     -1.058969
      10A     -0.998053    11A     -0.968435    12A     -0.877214
      13A     -0.817293    14A     -0.707771    15A     -0.651747
      16A     -0.627592    17A     -0.614483    18A     -0.587811
      19A     -0.575576    20A     -0.550063    21A     -0.533454
      22A     -0.515169    23A     -0.509849    24A     -0.493354
      25A     -0.486007    26A     -0.477408    27A     -0.385715
      28A     -0.381000

  @DF-RHF Final Energy:  -289.31187557685689

   => Energetics <=

    Nuclear Repulsion Energy =            307.3946233179702858
    One-Electron Energy =                -999.4608995897051500
    Two-Electron Energy =                 402.7544006948779725
    Total Energy =                       -289.3118755768568917
  Basis Set: (AUG-CC-PVTZ AUX)
    Blend: AUG-CC-PVTZ-RI
    Molecular point group: c1

    Geometry (in Angstrom), charge = 0, multiplicity = 1:

       Center              X                  Y                   Z               Mass
    ------------   -----------------  -----------------  -----------------  -----------------
         N            0.627628411620    -0.413375453695    -0.255259657103    14.003074004430
         C           -1.737283588380    -0.541626453695    -0.602599657103    12.000000000000
         C           -0.489003588380     0.229616546305    -0.262177657103    12.000000000000
         C            1.841248411620     0.320071546305     0.109836342897    12.000000000000
         C           -2.649441588380    -0.713880453695     0.616205342897    12.000000000000
         C           -0.646611588380     1.694348546305     0.082525342897    12.000000000000
         C            3.012481411620    -0.646247453695     0.188936342897    12.000000000000
         H           -1.427125588380    -1.517767453695    -0.984819657103     1.007825032230
         H           -2.282437588380    -0.021155453695    -1.401174657103     1.007825032230
         H            2.048077411620     1.099186546305    -0.638625657103     1.007825032230
         H            1.714281411620     0.837103546305     1.072244342897     1.007825032230
         H           -3.542871588380    -1.288077453695     0.354899342897     1.007825032230
         H           -2.977683588380     0.250664546305     1.014852342897     1.007825032230
         H           -2.120311588380    -1.248805453695     1.409840342897     1.007825032230
         H           -0.417296588380     1.874123546305     1.139259342897     1.007825032230
         H           -1.710159888380     2.058588346305    -0.118630457103     1.007825032230
         H            0.046174411620     2.306443546305    -0.504482657103     1.007825032230
         H            3.937457411620    -0.123116453695     0.451178342897     1.007825032230
         H            2.819378411620    -1.412370453695     0.943581342897     1.007825032230
         H            3.153059411620    -1.146730453695    -0.771801657103     1.007825032230

  Basis Set: AUG-CC-PVTZ
    Blend: AUG-CC-PVTZ
  Basis Set: (AUG-CC-PVTZ AUX)
    Blend: AUG-CC-PVTZ-JKFIT
	 Reference Energy          =    -289.3118755768568917 [Eh]
	 Singles Energy            =      -0.0000000000000000 [Eh]
	 Same-Spin Energy          =      -0.3063707254172847 [Eh]
	 Opposite-Spin Energy      =      -1.0926630469342855 [Eh]
	 Correlation Energy        =      -1.3990337723515702 [Eh]
	 Total Energy              =    -290.7109093492084639 [Eh]

	 ================> DF-SCS-MP2 Energies <==================
	-----------------------------------------------------------
	 SCS Same-Spin Scale       =       0.3333333333333333 [-]
	 SCS Opposite-Spin Scale   =       1.2000000000000000 [-]
	 SCS Same-Spin Energy      =      -0.1021235751390949 [Eh]
	 SCS Opposite-Spin Energy  =      -1.3111956563211427 [Eh]
	 SCS Correlation Energy    =      -1.4133192314602376 [Eh]
	 SCS Total Energy          =    -290.7251948083171555 [Eh]
	-----------------------------------------------------------

  Dipole Moment: [D]
     X:    -0.7922      Y:     1.7451      Z:     0.3828     Total:     1.9544

*** Psi4 exiting successfully. Buy a developer a beer!
