                               Psi4 1.4a3.dev225

  ==> Input File <==

--------------------------------------------------------------------------
#psi4
#
memory 32 gb

molecule  {
0 1
  N        0.6335420    -0.4278790    -0.2728430
  C       -1.7313700    -0.5561300    -0.6201830
  C       -0.4830900     0.2151130    -0.2797610
  C        1.8471620     0.3055680     0.0922530
  C       -2.6435280    -0.7283840     0.5986220
  C       -0.6406980     1.6798450     0.0649420
  C        3.0183950    -0.6607510     0.1713530
  H       -1.4212120    -1.5322710    -1.0024030
  H       -2.2765240    -0.0356590    -1.4187580
  H        2.0577515     1.0988488    -0.6698174
  H        1.7201950     0.8226000     1.0546610
  H       -3.5369580    -1.3025810     0.3373160
  H       -2.9717700     0.2361610     0.9972690
  H       -2.1143980    -1.2633090     1.3922570
  H       -0.4113830     1.8596200     1.1216760
  H       -1.6576830     2.0281380    -0.1274070
  H        0.0520880     2.2919400    -0.5220660
  H        3.9433710    -0.1376200     0.4335950
  H        2.8252920    -1.4268740     0.9259980
  H        3.1589730    -1.1612340    -0.7893850
units angstrom
no_reorient  #important for SAPT in psi4, default
symmetry c1  #important for SAPT in psi4, default
}

set PROPERTIES_ORIGIN ["COM"]
properties('MP2/aug-cc-pvtz', properties = ['dipole'])
--------------------------------------------------------------------------

    Molecular point group: c1
  Charge       = 0
  Multiplicity = 1
  Basis Set: AUG-CC-PVTZ
    Blend: AUG-CC-PVTZ
  Basis Set: (AUG-CC-PVTZ AUX)
    Blend: AUG-CC-PVTZ-JKFIT

    Orbital Energies [Eh]
    ---------------------

    Doubly Occupied:

       1A    -15.538919     2A    -11.275899     3A    -11.244519
       4A    -11.231647     5A    -11.223667     6A    -11.219963
       7A    -11.202570     8A     -1.217385     9A     -1.059167
      10A     -0.997987    11A     -0.971683    12A     -0.877307
      13A     -0.815943    14A     -0.708135    15A     -0.651690
      16A     -0.626661    17A     -0.615127    18A     -0.590220
      19A     -0.575283    20A     -0.552033    21A     -0.535755
      22A     -0.515232    23A     -0.511060    24A     -0.492196
      25A     -0.486097    26A     -0.477559    27A     -0.385442
      28A     -0.380310

  @DF-RHF Final Energy:  -289.31351177044502

   => Energetics <=

    Nuclear Repulsion Energy =            307.5124039483421257
    One-Electron Energy =                -999.6929180805079795
    Two-Electron Energy =                 402.8670023617208358
    Total Energy =                       -289.3135117704450181
  Basis Set: (AUG-CC-PVTZ AUX)
    Blend: AUG-CC-PVTZ-RI
    Molecular point group: c1

    Geometry (in Angstrom), charge = 0, multiplicity = 1:

       Center              X                  Y                   Z               Mass
    ------------   -----------------  -----------------  -----------------  -----------------
         N            0.627116654514    -0.413357342197    -0.255210828260    14.003074004430
         C           -1.737795345486    -0.541608342197    -0.602550828260    12.000000000000
         C           -0.489515345486     0.229634657803    -0.262128828260    12.000000000000
         C            1.840736654514     0.320089657803     0.109885171740    12.000000000000
         C           -2.649953345486    -0.713862342197     0.616254171740    12.000000000000
         C           -0.647123345486     1.694366657803     0.082574171740    12.000000000000
         C            3.011969654514    -0.646229342197     0.188985171740    12.000000000000
         H           -1.427637345486    -1.517749342197    -0.984770828260     1.007825032230
         H           -2.282949345486    -0.021137342197    -1.401125828260     1.007825032230
         H            2.051326154514     1.113370457803    -0.652185228260     1.007825032230
         H            1.713769654514     0.837121657803     1.072293171740     1.007825032230
         H           -3.543383345486    -1.288059342197     0.354948171740     1.007825032230
         H           -2.978195345486     0.250682657803     1.014901171740     1.007825032230
         H           -2.120823345486    -1.248787342197     1.409889171740     1.007825032230
         H           -0.417808345486     1.874141657803     1.139308171740     1.007825032230
         H           -1.664108345486     2.042659657803    -0.109774828260     1.007825032230
         H            0.045662654514     2.306461657803    -0.504433828260     1.007825032230
         H            3.936945654514    -0.123098342197     0.451227171740     1.007825032230
         H            2.818866654514    -1.412352342197     0.943630171740     1.007825032230
         H            3.152547654514    -1.146712342197    -0.771752828260     1.007825032230

  Basis Set: AUG-CC-PVTZ
    Blend: AUG-CC-PVTZ
  Basis Set: (AUG-CC-PVTZ AUX)
    Blend: AUG-CC-PVTZ-JKFIT
	 Reference Energy          =    -289.3135117704450181 [Eh]
	 Singles Energy            =      -0.0000000000000000 [Eh]
	 Same-Spin Energy          =      -0.3063700072042107 [Eh]
	 Opposite-Spin Energy      =      -1.0924144548655996 [Eh]
	 Correlation Energy        =      -1.3987844620698104 [Eh]
	 Total Energy              =    -290.7122962325148023 [Eh]

	 ================> DF-SCS-MP2 Energies <==================
	-----------------------------------------------------------
	 SCS Same-Spin Scale       =       0.3333333333333333 [-]
	 SCS Opposite-Spin Scale   =       1.2000000000000000 [-]
	 SCS Same-Spin Energy      =      -0.1021233357347369 [Eh]
	 SCS Opposite-Spin Energy  =      -1.3108973458387194 [Eh]
	 SCS Correlation Energy    =      -1.4130206815734563 [Eh]
	 SCS Total Energy          =    -290.7265324520184890 [Eh]
	-----------------------------------------------------------

  Dipole Moment: [D]
     X:    -0.8273      Y:     1.7475      Z:     0.3880     Total:     1.9720

*** Psi4 exiting successfully. Buy a developer a beer!
