                               Psi4 1.4a3.dev225

  ==> Input File <==

--------------------------------------------------------------------------
#psi4
#
memory 32 gb

molecule  {
0 1
  N        0.6335420    -0.4278790    -0.2728430
  C       -1.7313700    -0.5561300    -0.6201830
  C       -0.4830900     0.2151130    -0.2797610
  C        1.8471620     0.3055680     0.0922530
  C       -2.5244515    -0.7058973     0.4395147
  C       -0.6406980     1.6798450     0.0649420
  C        3.0183950    -0.6607510     0.1713530
  H       -1.4212120    -1.5322710    -1.0024030
  H       -2.2765240    -0.0356590    -1.4187580
  H        2.0539910     1.0846830    -0.6562090
  H        1.7201950     0.8226000     1.0546610
  H       -3.5369580    -1.3025810     0.3373160
  H       -2.9717700     0.2361610     0.9972690
  H       -2.1143980    -1.2633090     1.3922570
  H       -0.4113830     1.8596200     1.1216760
  H       -1.6576830     2.0281380    -0.1274070
  H        0.0520880     2.2919400    -0.5220660
  H        3.9433710    -0.1376200     0.4335950
  H        2.8252920    -1.4268740     0.9259980
  H        3.1589730    -1.1612340    -0.7893850
units angstrom
no_reorient  #important for SAPT in psi4, default
symmetry c1  #important for SAPT in psi4, default
}

set PROPERTIES_ORIGIN ["COM"]
properties('MP2/aug-cc-pvtz', properties = ['dipole'])
--------------------------------------------------------------------------

    Molecular point group: c1
  Charge       = 0
  Multiplicity = 1
  Basis Set: AUG-CC-PVTZ
    Blend: AUG-CC-PVTZ
  Basis Set: (AUG-CC-PVTZ AUX)
    Blend: AUG-CC-PVTZ-JKFIT

    Orbital Energies [Eh]
    ---------------------

    Doubly Occupied:

       1A    -15.540940     2A    -11.277729     3A    -11.243197
       4A    -11.233070     5A    -11.232359     6A    -11.214728
       7A    -11.203090     8A     -1.221073     9A     -1.093411
      10A     -1.010058    11A     -0.973290    12A     -0.864198
      13A     -0.810871    14A     -0.715088    15A     -0.658602
      16A     -0.633424    17A     -0.622538    18A     -0.602097
      19A     -0.582764    20A     -0.567144    21A     -0.542589
      22A     -0.512725    23A     -0.511531    24A     -0.494345
      25A     -0.454339    26A     -0.448075    27A     -0.385541
      28A     -0.385348

  @DF-RHF Final Energy:  -289.26518479749677

   => Energetics <=

    Nuclear Repulsion Energy =            310.4954621647251543
    One-Electron Energy =               -1005.4529633299160878
    Two-Electron Energy =                 405.6923163676941613
    Total Energy =                       -289.2651847974967723
  Basis Set: (AUG-CC-PVTZ AUX)
    Blend: AUG-CC-PVTZ-RI
    Molecular point group: c1

    Geometry (in Angstrom), charge = 0, multiplicity = 1:

       Center              X                  Y                   Z               Mass
    ------------   -----------------  -----------------  -----------------  -----------------
         N            0.612736643836    -0.415936064455    -0.236083876540    14.003074004430
         C           -1.752175356164    -0.544187064455    -0.583423876540    12.000000000000
         C           -0.503895356164     0.227055935545    -0.243001876540    12.000000000000
         C            1.826356643836     0.317510935545     0.129012123460    12.000000000000
         C           -2.545256856164    -0.693954364455     0.476273823460    12.000000000000
         C           -0.661503356164     1.691787935545     0.101701123460    12.000000000000
         C            2.997589643836    -0.648808064455     0.208112123460    12.000000000000
         H           -1.442017356164    -1.520328064455    -0.965643876540     1.007825032230
         H           -2.297329356164    -0.023716064455    -1.381998876540     1.007825032230
         H            2.033185643836     1.096625935545    -0.619449876540     1.007825032230
         H            1.699389643836     0.834542935545     1.091420123460     1.007825032230
         H           -3.557763356164    -1.290638064455     0.374075123460     1.007825032230
         H           -2.992575356164     0.248103935545     1.034028123460     1.007825032230
         H           -2.135203356164    -1.251366064455     1.429016123460     1.007825032230
         H           -0.432188356164     1.871562935545     1.158435123460     1.007825032230
         H           -1.678488356164     2.040080935545    -0.090647876540     1.007825032230
         H            0.031282643836     2.303882935545    -0.485306876540     1.007825032230
         H            3.922565643836    -0.125677064455     0.470354123460     1.007825032230
         H            2.804486643836    -1.414931064455     0.962757123460     1.007825032230
         H            3.138167643836    -1.149291064455    -0.752625876540     1.007825032230

  Basis Set: AUG-CC-PVTZ
    Blend: AUG-CC-PVTZ
  Basis Set: (AUG-CC-PVTZ AUX)
    Blend: AUG-CC-PVTZ-JKFIT
	 Reference Energy          =    -289.2651847974967723 [Eh]
	 Singles Energy            =      -0.0000000000000000 [Eh]
	 Same-Spin Energy          =      -0.3090631538157972 [Eh]
	 Opposite-Spin Energy      =      -1.0960075282374624 [Eh]
	 Correlation Energy        =      -1.4050706820532597 [Eh]
	 Total Energy              =    -290.6702554795500077 [Eh]

	 ================> DF-SCS-MP2 Energies <==================
	-----------------------------------------------------------
	 SCS Same-Spin Scale       =       0.3333333333333333 [-]
	 SCS Opposite-Spin Scale   =       1.2000000000000000 [-]
	 SCS Same-Spin Energy      =      -0.1030210512719324 [Eh]
	 SCS Opposite-Spin Energy  =      -1.3152090338849549 [Eh]
	 SCS Correlation Energy    =      -1.4182300851568874 [Eh]
	 SCS Total Energy          =    -290.6834148826536648 [Eh]
	-----------------------------------------------------------

  Dipole Moment: [D]
     X:    -0.7053      Y:     1.7808      Z:     0.3080     Total:     1.9400

*** Psi4 exiting successfully. Buy a developer a beer!
