                               Psi4 1.4a3.dev225

  ==> Input File <==

--------------------------------------------------------------------------
#psi4
#
memory 32 gb

molecule  {
0 1
  N        0.6335420    -0.4278790    -0.2728430
  C       -1.7313700    -0.5561300    -0.6201830
  C       -0.4830900     0.2151130    -0.2797610
  C        1.8471620     0.3055680     0.0922530
  C       -2.6137589    -0.7227623     0.5588452
  C       -0.6406980     1.6798450     0.0649420
  C        3.0183950    -0.6607510     0.1713530
  H       -1.4212120    -1.5322710    -1.0024030
  H       -2.2765240    -0.0356590    -1.4187580
  H        2.0539910     1.0846830    -0.6562090
  H        1.7201950     0.8226000     1.0546610
  H       -3.5369580    -1.3025810     0.3373160
  H       -2.9717700     0.2361610     0.9972690
  H       -2.1143980    -1.2633090     1.3922570
  H       -0.4113830     1.8596200     1.1216760
  H       -1.6576830     2.0281380    -0.1274070
  H        0.0520880     2.2919400    -0.5220660
  H        3.9433710    -0.1376200     0.4335950
  H        2.8252920    -1.4268740     0.9259980
  H        3.1589730    -1.1612340    -0.7893850
units angstrom
no_reorient  #important for SAPT in psi4, default
symmetry c1  #important for SAPT in psi4, default
}

set PROPERTIES_ORIGIN ["COM"]
properties('MP2/aug-cc-pvtz', properties = ['dipole'])
--------------------------------------------------------------------------

    Molecular point group: c1
  Charge       = 0
  Multiplicity = 1
  Basis Set: AUG-CC-PVTZ
    Blend: AUG-CC-PVTZ
  Basis Set: (AUG-CC-PVTZ AUX)
    Blend: AUG-CC-PVTZ-JKFIT

    Orbital Energies [Eh]
    ---------------------

    Doubly Occupied:

       1A    -15.539172     2A    -11.276002     3A    -11.242265
       4A    -11.231775     5A    -11.222389     6A    -11.221415
       7A    -11.202501     8A     -1.218015     9A     -1.065227
      10A     -1.001222    11A     -0.972088    12A     -0.873895
      13A     -0.816256    14A     -0.709888    15A     -0.652954
      16A     -0.628200    17A     -0.616884    18A     -0.590408
      19A     -0.576128    20A     -0.550734    21A     -0.540488
      22A     -0.517070    23A     -0.511485    24A     -0.493411
      25A     -0.478822    26A     -0.474190    27A     -0.385593
      28A     -0.382020

  @DF-RHF Final Energy:  -289.31109350446081

   => Energetics <=

    Nuclear Repulsion Energy =            308.2799362293282002
    One-Electron Energy =               -1001.2010714824501747
    Two-Electron Energy =                 403.6100417486611605
    Total Energy =                       -289.3110935044608141
  Basis Set: (AUG-CC-PVTZ AUX)
    Blend: AUG-CC-PVTZ-RI
    Molecular point group: c1

    Geometry (in Angstrom), charge = 0, multiplicity = 1:

       Center              X                  Y                   Z               Mass
    ------------   -----------------  -----------------  -----------------  -----------------
         N            0.623550336071    -0.413893983737    -0.250532884139    14.003074004430
         C           -1.741361663929    -0.542144983737    -0.597872884139    12.000000000000
         C           -0.493081663929     0.229098016263    -0.257450884139    12.000000000000
         C            1.837170336071     0.319553016263     0.114563115861    12.000000000000
         C           -2.623750563929    -0.708777283737     0.581155315861    12.000000000000
         C           -0.650689663929     1.693830016263     0.087252115861    12.000000000000
         C            3.008403336071    -0.646765983737     0.193663115861    12.000000000000
         H           -1.431203663929    -1.518285983737    -0.980092884139     1.007825032230
         H           -2.286515663929    -0.021673983737    -1.396447884139     1.007825032230
         H            2.043999336071     1.098668016263    -0.633898884139     1.007825032230
         H            1.710203336071     0.836585016263     1.076971115861     1.007825032230
         H           -3.546949663929    -1.288595983737     0.359626115861     1.007825032230
         H           -2.981761663929     0.250146016263     1.019579115861     1.007825032230
         H           -2.124389663929    -1.249323983737     1.414567115861     1.007825032230
         H           -0.421374663929     1.873605016263     1.143986115861     1.007825032230
         H           -1.667674663929     2.042123016263    -0.105096884139     1.007825032230
         H            0.042096336071     2.305925016263    -0.499755884139     1.007825032230
         H            3.933379336071    -0.123634983737     0.455905115861     1.007825032230
         H            2.815300336071    -1.412888983737     0.948308115861     1.007825032230
         H            3.148981336071    -1.147248983737    -0.767074884139     1.007825032230

  Basis Set: AUG-CC-PVTZ
    Blend: AUG-CC-PVTZ
  Basis Set: (AUG-CC-PVTZ AUX)
    Blend: AUG-CC-PVTZ-JKFIT
	 Reference Energy          =    -289.3110935044608141 [Eh]
	 Singles Energy            =      -0.0000000000000000 [Eh]
	 Same-Spin Energy          =      -0.3067186605224376 [Eh]
	 Opposite-Spin Energy      =      -1.0926821796588781 [Eh]
	 Correlation Energy        =      -1.3994008401813156 [Eh]
	 Total Energy              =    -290.7104943446421430 [Eh]

	 ================> DF-SCS-MP2 Energies <==================
	-----------------------------------------------------------
	 SCS Same-Spin Scale       =       0.3333333333333333 [-]
	 SCS Opposite-Spin Scale   =       1.2000000000000000 [-]
	 SCS Same-Spin Energy      =      -0.1022395535074792 [Eh]
	 SCS Opposite-Spin Energy  =      -1.3112186155906538 [Eh]
	 SCS Correlation Energy    =      -1.4134581690981329 [Eh]
	 SCS Total Energy          =    -290.7245516735589490 [Eh]
	-----------------------------------------------------------

  Dipole Moment: [D]
     X:    -0.8029      Y:     1.7640      Z:     0.3722     Total:     1.9736

*** Psi4 exiting successfully. Buy a developer a beer!
