                               Psi4 1.4a3.dev225

  ==> Input File <==

--------------------------------------------------------------------------
#psi4
#
memory 32 gb

molecule  {
0 1
  N        0.6335420    -0.4278790    -0.2728430
  C       -1.7313700    -0.5561300    -0.6201830
  C       -0.4830900     0.2151130    -0.2797610
  C        1.8471620     0.3055680     0.0922530
  C       -2.6435280    -0.7283840     0.5986220
  C       -0.6406980     1.6798450     0.0649420
  C        3.0183950    -0.6607510     0.1713530
  H       -1.4212120    -1.5322710    -1.0024030
  H       -2.2765240    -0.0356590    -1.4187580
  H        2.0539910     1.0846830    -0.6562090
  H        1.7201950     0.8226000     1.0546610
  H       -3.5369580    -1.3025810     0.3373160
  H       -2.9717700     0.2361610     0.9972690
  H       -2.1143980    -1.2633090     1.3922570
  H       -0.4113830     1.8596200     1.1216760
  H       -1.5645564     1.9962444    -0.1097934
  H        0.0520880     2.2919400    -0.5220660
  H        3.9433710    -0.1376200     0.4335950
  H        2.8252920    -1.4268740     0.9259980
  H        3.1589730    -1.1612340    -0.7893850
units angstrom
no_reorient  #important for SAPT in psi4, default
symmetry c1  #important for SAPT in psi4, default
}

set PROPERTIES_ORIGIN ["COM"]
properties('MP2/aug-cc-pvtz', properties = ['dipole'])
--------------------------------------------------------------------------

    Molecular point group: c1
  Charge       = 0
  Multiplicity = 1
  Basis Set: AUG-CC-PVTZ
    Blend: AUG-CC-PVTZ
  Basis Set: (AUG-CC-PVTZ AUX)
    Blend: AUG-CC-PVTZ-JKFIT

    Orbital Energies [Eh]
    ---------------------

    Doubly Occupied:

       1A    -15.537877     2A    -11.274746     3A    -11.241380
       4A    -11.223726     5A    -11.220228     6A    -11.219369
       7A    -11.201907     8A     -1.216724     9A     -1.060499
      10A     -0.999259    11A     -0.979864    12A     -0.877675
      13A     -0.816722    14A     -0.711444    15A     -0.652197
      16A     -0.627985    17A     -0.620251    18A     -0.595346
      19A     -0.575668    20A     -0.555946    21A     -0.538281
      22A     -0.515203    23A     -0.512758    24A     -0.492600
      25A     -0.486161    26A     -0.477250    27A     -0.384796
      28A     -0.379927

  @DF-RHF Final Energy:  -289.30802837350154

   => Energetics <=

    Nuclear Repulsion Energy =            308.0589257502433611
    One-Electron Energy =               -1000.7423307418463310
    Two-Electron Energy =                 403.3753766181014271
    Total Energy =                       -289.3080283735015428
  Basis Set: (AUG-CC-PVTZ AUX)
    Blend: AUG-CC-PVTZ-RI
    Molecular point group: c1

    Geometry (in Angstrom), charge = 0, multiplicity = 1:

       Center              X                  Y                   Z               Mass
    ------------   -----------------  -----------------  -----------------  -----------------
         N            0.626207865100    -0.412888950993    -0.255528333702    14.003074004430
         C           -1.738704134900    -0.541139950993    -0.602868333702    12.000000000000
         C           -0.490424134900     0.230103049007    -0.262446333702    12.000000000000
         C            1.839827865100     0.320558049007     0.109567666298    12.000000000000
         C           -2.650862134900    -0.713393950993     0.615936666298    12.000000000000
         C           -0.648032134900     1.694835049007     0.082256666298    12.000000000000
         C            3.011060865100    -0.645760950993     0.188667666298    12.000000000000
         H           -1.428546134900    -1.517280950993    -0.985088333702     1.007825032230
         H           -2.283858134900    -0.020668950993    -1.401443333702     1.007825032230
         H            2.046656865100     1.099673049007    -0.638894333702     1.007825032230
         H            1.712860865100     0.837590049007     1.071975666298     1.007825032230
         H           -3.544292134900    -1.287590950993     0.354630666298     1.007825032230
         H           -2.979104134900     0.251151049007     1.014583666298     1.007825032230
         H           -2.121732134900    -1.248318950993     1.409571666298     1.007825032230
         H           -0.418717134900     1.874610049007     1.138990666298     1.007825032230
         H           -1.571890534900     2.011234449007    -0.092478733702     1.007825032230
         H            0.044753865100     2.306930049007    -0.504751333702     1.007825032230
         H            3.936036865100    -0.122629950993     0.450909666298     1.007825032230
         H            2.817957865100    -1.411883950993     0.943312666298     1.007825032230
         H            3.151638865100    -1.146243950993    -0.772070333702     1.007825032230

  Basis Set: AUG-CC-PVTZ
    Blend: AUG-CC-PVTZ
  Basis Set: (AUG-CC-PVTZ AUX)
    Blend: AUG-CC-PVTZ-JKFIT
	 Reference Energy          =    -289.3080283735015428 [Eh]
	 Singles Energy            =      -0.0000000000000000 [Eh]
	 Same-Spin Energy          =      -0.3063198112549006 [Eh]
	 Opposite-Spin Energy      =      -1.0917311037887376 [Eh]
	 Correlation Energy        =      -1.3980509150436382 [Eh]
	 Total Energy              =    -290.7060792885451974 [Eh]

	 ================> DF-SCS-MP2 Energies <==================
	-----------------------------------------------------------
	 SCS Same-Spin Scale       =       0.3333333333333333 [-]
	 SCS Opposite-Spin Scale   =       1.2000000000000000 [-]
	 SCS Same-Spin Energy      =      -0.1021066037516335 [Eh]
	 SCS Opposite-Spin Energy  =      -1.3100773245464852 [Eh]
	 SCS Correlation Energy    =      -1.4121839282981188 [Eh]
	 SCS Total Energy          =    -290.7202123017996769 [Eh]
	-----------------------------------------------------------

  Dipole Moment: [D]
     X:    -0.8712      Y:     1.7854      Z:     0.3772     Total:     2.0221

*** Psi4 exiting successfully. Buy a developer a beer!
