                               Psi4 1.4a3.dev225

  ==> Input File <==

--------------------------------------------------------------------------
#psi4
#
memory 32 gb

molecule  {
0 1
  N        0.6335420    -0.4278790    -0.2728430
  C       -1.7313700    -0.5561300    -0.6201830
  C       -0.4830900     0.2151130    -0.2797610
  C        1.8471620     0.3055680     0.0922530
  C       -2.6435280    -0.7283840     0.5986220
  C       -0.6406980     1.6798450     0.0649420
  C        3.0183950    -0.6607510     0.1713530
  H       -1.4212120    -1.5322710    -1.0024030
  H       -2.2765240    -0.0356590    -1.4187580
  H        2.0539910     1.0846830    -0.6562090
  H        1.7201950     0.8226000     1.0546610
  H       -3.5206204    -1.2920810     0.3420943
  H       -2.9717700     0.2361610     0.9972690
  H       -2.1143980    -1.2633090     1.3922570
  H       -0.4113830     1.8596200     1.1216760
  H       -1.6576830     2.0281380    -0.1274070
  H        0.0520880     2.2919400    -0.5220660
  H        3.9433710    -0.1376200     0.4335950
  H        2.8252920    -1.4268740     0.9259980
  H        3.1589730    -1.1612340    -0.7893850
units angstrom
no_reorient  #important for SAPT in psi4, default
symmetry c1  #important for SAPT in psi4, default
}

set PROPERTIES_ORIGIN ["COM"]
properties('MP2/aug-cc-pvtz', properties = ['dipole'])
--------------------------------------------------------------------------

    Molecular point group: c1
  Charge       = 0
  Multiplicity = 1
  Basis Set: AUG-CC-PVTZ
    Blend: AUG-CC-PVTZ
  Basis Set: (AUG-CC-PVTZ AUX)
    Blend: AUG-CC-PVTZ-JKFIT

    Orbital Energies [Eh]
    ---------------------

    Doubly Occupied:

       1A    -15.538511     2A    -11.275579     3A    -11.241930
       4A    -11.231553     5A    -11.223384     6A    -11.217430
       7A    -11.202275     8A     -1.217202     9A     -1.059524
      10A     -0.998661    11A     -0.971682    12A     -0.878475
      13A     -0.817303    14A     -0.708543    15A     -0.651788
      16A     -0.627695    17A     -0.616042    18A     -0.589979
      19A     -0.575628    20A     -0.554117    21A     -0.535940
      22A     -0.515148    23A     -0.511194    24A     -0.492986
      25A     -0.485912    26A     -0.477947    27A     -0.385267
      28A     -0.380470

  @DF-RHF Final Energy:  -289.31407415935178

   => Energetics <=

    Nuclear Repulsion Energy =            307.6911155663109980
    One-Electron Energy =               -1000.0460515462975764
    Two-Electron Energy =                 403.0408618206347455
    Total Energy =                       -289.3140741593517760
  Basis Set: (AUG-CC-PVTZ AUX)
    Blend: AUG-CC-PVTZ-RI
    Molecular point group: c1

    Geometry (in Angstrom), charge = 0, multiplicity = 1:

       Center              X                  Y                   Z               Mass
    ------------   -----------------  -----------------  -----------------  -----------------
         N            0.626988754389    -0.413320063629    -0.255397807868    14.003074004430
         C           -1.737923245611    -0.541571063629    -0.602737807868    12.000000000000
         C           -0.489643245611     0.229671936371    -0.262315807868    12.000000000000
         C            1.840608754389     0.320126936371     0.109698192132    12.000000000000
         C           -2.650081245611    -0.713825063629     0.616067192132    12.000000000000
         C           -0.647251245611     1.694403936371     0.082387192132    12.000000000000
         C            3.011841754389    -0.646192063629     0.188798192132    12.000000000000
         H           -1.427765245611    -1.517712063629    -0.984957807868     1.007825032230
         H           -2.283077245611    -0.021100063629    -1.401312807868     1.007825032230
         H            2.047437754389     1.099241936371    -0.638763807868     1.007825032230
         H            1.713641754389     0.837158936371     1.072106192132     1.007825032230
         H           -3.527173645611    -1.277522063629     0.359539492132     1.007825032230
         H           -2.978323245611     0.250719936371     1.014714192132     1.007825032230
         H           -2.120951245611    -1.248750063629     1.409702192132     1.007825032230
         H           -0.417936245611     1.874178936371     1.139121192132     1.007825032230
         H           -1.664236245611     2.042696936371    -0.109961807868     1.007825032230
         H            0.045534754389     2.306498936371    -0.504620807868     1.007825032230
         H            3.936817754389    -0.123061063629     0.451040192132     1.007825032230
         H            2.818738754389    -1.412315063629     0.943443192132     1.007825032230
         H            3.152419754389    -1.146675063629    -0.771939807868     1.007825032230

  Basis Set: AUG-CC-PVTZ
    Blend: AUG-CC-PVTZ
  Basis Set: (AUG-CC-PVTZ AUX)
    Blend: AUG-CC-PVTZ-JKFIT
	 Reference Energy          =    -289.3140741593517760 [Eh]
	 Singles Energy            =      -0.0000000000000000 [Eh]
	 Same-Spin Energy          =      -0.3063527200163883 [Eh]
	 Opposite-Spin Energy      =      -1.0921694074405670 [Eh]
	 Correlation Energy        =      -1.3985221274569553 [Eh]
	 Total Energy              =    -290.7125962868087186 [Eh]

	 ================> DF-SCS-MP2 Energies <==================
	-----------------------------------------------------------
	 SCS Same-Spin Scale       =       0.3333333333333333 [-]
	 SCS Opposite-Spin Scale   =       1.2000000000000000 [-]
	 SCS Same-Spin Energy      =      -0.1021175733387961 [Eh]
	 SCS Opposite-Spin Energy  =      -1.3106032889286803 [Eh]
	 SCS Correlation Energy    =      -1.4127208622674763 [Eh]
	 SCS Total Energy          =    -290.7267950216192389 [Eh]
	-----------------------------------------------------------

  Dipole Moment: [D]
     X:    -0.8365      Y:     1.7537      Z:     0.3809     Total:     1.9800

*** Psi4 exiting successfully. Buy a developer a beer!
