                               Psi4 1.4a3.dev225

  ==> Input File <==

--------------------------------------------------------------------------
#psi4
#
memory 32 gb

molecule  {
0 1
  N        0.6335420    -0.4278790    -0.2728430
  C       -1.7313700    -0.5561300    -0.6201830
  C       -0.4830900     0.2151130    -0.2797610
  C        1.8471620     0.3055680     0.0922530
  C       -2.6435280    -0.7283840     0.5986220
  C       -0.6406980     1.6798450     0.0649420
  C        3.0183950    -0.6607510     0.1713530
  H       -1.4212120    -1.5322710    -1.0024030
  H       -2.2765240    -0.0356590    -1.4187580
  H        2.0351883     1.0138542    -0.5881668
  H        1.7201950     0.8226000     1.0546610
  H       -3.5369580    -1.3025810     0.3373160
  H       -2.9717700     0.2361610     0.9972690
  H       -2.1143980    -1.2633090     1.3922570
  H       -0.4113830     1.8596200     1.1216760
  H       -1.6576830     2.0281380    -0.1274070
  H        0.0520880     2.2919400    -0.5220660
  H        3.9433710    -0.1376200     0.4335950
  H        2.8252920    -1.4268740     0.9259980
  H        3.1589730    -1.1612340    -0.7893850
units angstrom
no_reorient  #important for SAPT in psi4, default
symmetry c1  #important for SAPT in psi4, default
}

set PROPERTIES_ORIGIN ["COM"]
properties('MP2/aug-cc-pvtz', properties = ['dipole'])
--------------------------------------------------------------------------

    Molecular point group: c1
  Charge       = 0
  Multiplicity = 1
  Basis Set: AUG-CC-PVTZ
    Blend: AUG-CC-PVTZ
  Basis Set: (AUG-CC-PVTZ AUX)
    Blend: AUG-CC-PVTZ-JKFIT

    Orbital Energies [Eh]
    ---------------------

    Doubly Occupied:

       1A    -15.537674     2A    -11.274993     3A    -11.231741
       4A    -11.229315     5A    -11.223159     6A    -11.219595
       7A    -11.201428     8A     -1.217486     9A     -1.060686
      10A     -0.999727    11A     -0.972260    12A     -0.877801
      13A     -0.824249    14A     -0.712011    15A     -0.652734
      16A     -0.632583    17A     -0.618307    18A     -0.589755
      19A     -0.576806    20A     -0.551890    21A     -0.535186
      22A     -0.515135    23A     -0.512803    24A     -0.496492
      25A     -0.485817    26A     -0.476585    27A     -0.385353
      28A     -0.381599

  @DF-RHF Final Energy:  -289.30854659913672

   => Energetics <=

    Nuclear Repulsion Energy =            308.0847370608460096
    One-Electron Energy =               -1000.8002273517305412
    Two-Electron Energy =                 403.4069436917478129
    Total Energy =                       -289.3085465991367187
  Basis Set: (AUG-CC-PVTZ AUX)
    Blend: AUG-CC-PVTZ-RI
    Molecular point group: c1

    Geometry (in Angstrom), charge = 0, multiplicity = 1:

       Center              X                  Y                   Z               Mass
    ------------   -----------------  -----------------  -----------------  -----------------
         N            0.627346106144    -0.412493007816    -0.256041156550    14.003074004430
         C           -1.737565893856    -0.540744007816    -0.603381156550    12.000000000000
         C           -0.489285893856     0.230498992184    -0.262959156550    12.000000000000
         C            1.840966106144     0.320953992184     0.109054843450    12.000000000000
         C           -2.649723893856    -0.712998007816     0.615423843450    12.000000000000
         C           -0.646893893856     1.695230992184     0.081743843450    12.000000000000
         C            3.012199106144    -0.645365007816     0.188154843450    12.000000000000
         H           -1.427407893856    -1.516885007816    -0.985601156550     1.007825032230
         H           -2.282719893856    -0.020273007816    -1.401956156550     1.007825032230
         H            2.028992406144     1.029240192184    -0.571364956550     1.007825032230
         H            1.713999106144     0.837985992184     1.071462843450     1.007825032230
         H           -3.543153893856    -1.287195007816     0.354117843450     1.007825032230
         H           -2.977965893856     0.251546992184     1.014070843450     1.007825032230
         H           -2.120593893856    -1.247923007816     1.409058843450     1.007825032230
         H           -0.417578893856     1.875005992184     1.138477843450     1.007825032230
         H           -1.663878893856     2.043523992184    -0.110605156550     1.007825032230
         H            0.045892106144     2.307325992184    -0.505264156550     1.007825032230
         H            3.937175106144    -0.122234007816     0.450396843450     1.007825032230
         H            2.819096106144    -1.411488007816     0.942799843450     1.007825032230
         H            3.152777106144    -1.145848007816    -0.772583156550     1.007825032230

  Basis Set: AUG-CC-PVTZ
    Blend: AUG-CC-PVTZ
  Basis Set: (AUG-CC-PVTZ AUX)
    Blend: AUG-CC-PVTZ-JKFIT
	 Reference Energy          =    -289.3085465991367187 [Eh]
	 Singles Energy            =      -0.0000000000000000 [Eh]
	 Same-Spin Energy          =      -0.3062358930217369 [Eh]
	 Opposite-Spin Energy      =      -1.0917669766592812 [Eh]
	 Correlation Energy        =      -1.3980028696810183 [Eh]
	 Total Energy              =    -290.7065494688177409 [Eh]

	 ================> DF-SCS-MP2 Energies <==================
	-----------------------------------------------------------
	 SCS Same-Spin Scale       =       0.3333333333333333 [-]
	 SCS Opposite-Spin Scale   =       1.2000000000000000 [-]
	 SCS Same-Spin Energy      =      -0.1020786310072456 [Eh]
	 SCS Opposite-Spin Energy  =      -1.3101203719911374 [Eh]
	 SCS Correlation Energy    =      -1.4121990029983831 [Eh]
	 SCS Total Energy          =    -290.7207456021350822 [Eh]
	-----------------------------------------------------------

  Dipole Moment: [D]
     X:    -0.8013      Y:     1.8151      Z:     0.3513     Total:     2.0150

*** Psi4 exiting successfully. Buy a developer a beer!
