                               Psi4 1.4a3.dev225

  ==> Input File <==

--------------------------------------------------------------------------
#psi4
#
memory 32 gb

molecule  {
0 1
  N        0.6335420    -0.4278790    -0.2728430
  C       -1.7488242    -0.5700309    -0.6349171
  C       -0.4830900     0.2151130    -0.2797610
  C        1.8471620     0.3055680     0.0922530
  C       -2.6435280    -0.7283840     0.5986220
  C       -0.6406980     1.6798450     0.0649420
  C        3.0183950    -0.6607510     0.1713530
  H       -1.4212120    -1.5322710    -1.0024030
  H       -2.2765240    -0.0356590    -1.4187580
  H        2.0539910     1.0846830    -0.6562090
  H        1.7201950     0.8226000     1.0546610
  H       -3.5369580    -1.3025810     0.3373160
  H       -2.9717700     0.2361610     0.9972690
  H       -2.1143980    -1.2633090     1.3922570
  H       -0.4113830     1.8596200     1.1216760
  H       -1.6576830     2.0281380    -0.1274070
  H        0.0520880     2.2919400    -0.5220660
  H        3.9433710    -0.1376200     0.4335950
  H        2.8252920    -1.4268740     0.9259980
  H        3.1589730    -1.1612340    -0.7893850
units angstrom
no_reorient  #important for SAPT in psi4, default
symmetry c1  #important for SAPT in psi4, default
}

set PROPERTIES_ORIGIN ["COM"]
properties('MP2/aug-cc-pvtz', properties = ['dipole'])
--------------------------------------------------------------------------

    Molecular point group: c1
  Charge       = 0
  Multiplicity = 1
  Basis Set: AUG-CC-PVTZ
    Blend: AUG-CC-PVTZ
  Basis Set: (AUG-CC-PVTZ AUX)
    Blend: AUG-CC-PVTZ-JKFIT

    Orbital Energies [Eh]
    ---------------------

    Doubly Occupied:

       1A    -15.538349     2A    -11.276517     3A    -11.241931
       4A    -11.231754     5A    -11.223049     6A    -11.219594
       7A    -11.202251     8A     -1.216122     9A     -1.057513
      10A     -0.998485    11A     -0.971524    12A     -0.875460
      13A     -0.817816    14A     -0.708146    15A     -0.651290
      16A     -0.626876    17A     -0.615660    18A     -0.590854
      19A     -0.575305    20A     -0.551594    21A     -0.534173
      22A     -0.517019    23A     -0.511210    24A     -0.493480
      25A     -0.490795    26A     -0.473638    27A     -0.383859
      28A     -0.380876

  @DF-RHF Final Energy:  -289.31366655817664

   => Energetics <=

    Nuclear Repulsion Energy =            307.2363390982106353
    One-Electron Energy =                -999.1497318228128961
    Two-Electron Energy =                 402.5997261664256825
    Total Energy =                       -289.3136665581766351
  Basis Set: (AUG-CC-PVTZ AUX)
    Blend: AUG-CC-PVTZ-RI
    Molecular point group: c1

    Geometry (in Angstrom), charge = 0, multiplicity = 1:

       Center              X                  Y                   Z               Mass
    ------------   -----------------  -----------------  -----------------  -----------------
         N            0.629268319492    -0.411530110328    -0.253565153028    14.003074004430
         C           -1.753097880508    -0.553682010328    -0.615639253028    12.000000000000
         C           -0.487363680508     0.231461889672    -0.260483153028    12.000000000000
         C            1.842888319492     0.321916889672     0.111530846972    12.000000000000
         C           -2.647801680508    -0.712035110328     0.617899846972    12.000000000000
         C           -0.644971680508     1.696193889672     0.084219846972    12.000000000000
         C            3.014121319492    -0.644402110328     0.190630846972    12.000000000000
         H           -1.425485680508    -1.515922110328    -0.983125153028     1.007825032230
         H           -2.280797680508    -0.019310110328    -1.399480153028     1.007825032230
         H            2.049717319492     1.101031889672    -0.636931153028     1.007825032230
         H            1.715921319492     0.838948889672     1.073938846972     1.007825032230
         H           -3.541231680508    -1.286232110328     0.356593846972     1.007825032230
         H           -2.976043680508     0.252509889672     1.016546846972     1.007825032230
         H           -2.118671680508    -1.246960110328     1.411534846972     1.007825032230
         H           -0.415656680508     1.875968889672     1.140953846972     1.007825032230
         H           -1.661956680508     2.044486889672    -0.108129153028     1.007825032230
         H            0.047814319492     2.308288889672    -0.502788153028     1.007825032230
         H            3.939097319492    -0.121271110328     0.452872846972     1.007825032230
         H            2.821018319492    -1.410525110328     0.945275846972     1.007825032230
         H            3.154699319492    -1.144885110328    -0.770107153028     1.007825032230

  Basis Set: AUG-CC-PVTZ
    Blend: AUG-CC-PVTZ
  Basis Set: (AUG-CC-PVTZ AUX)
    Blend: AUG-CC-PVTZ-JKFIT
	 Reference Energy          =    -289.3136665581766351 [Eh]
	 Singles Energy            =      -0.0000000000000000 [Eh]
	 Same-Spin Energy          =      -0.3061863308151094 [Eh]
	 Opposite-Spin Energy      =      -1.0921455198594550 [Eh]
	 Correlation Energy        =      -1.3983318506745643 [Eh]
	 Total Energy              =    -290.7119984088511728 [Eh]

	 ================> DF-SCS-MP2 Energies <==================
	-----------------------------------------------------------
	 SCS Same-Spin Scale       =       0.3333333333333333 [-]
	 SCS Opposite-Spin Scale   =       1.2000000000000000 [-]
	 SCS Same-Spin Energy      =      -0.1020621102717031 [Eh]
	 SCS Opposite-Spin Energy  =      -1.3105746238313458 [Eh]
	 SCS Correlation Energy    =      -1.4126367341030490 [Eh]
	 SCS Total Energy          =    -290.7263032922796810 [Eh]
	-----------------------------------------------------------

  Dipole Moment: [D]
     X:    -0.8142      Y:     1.7681      Z:     0.3770     Total:     1.9827

*** Psi4 exiting successfully. Buy a developer a beer!
