                               Psi4 1.4a3.dev225

  ==> Input File <==

--------------------------------------------------------------------------
#psi4
#
memory 32 gb

molecule  {
0 1
  N        0.6335420    -0.4278790    -0.2728430
  C       -1.8119966    -0.5052778    -0.6686461
  C       -0.4830900     0.2151130    -0.2797610
  C        1.8471620     0.3055680     0.0922530
  C       -2.6435280    -0.7283840     0.5986220
  C       -0.6406980     1.6798450     0.0649420
  C        3.0183950    -0.6607510     0.1713530
  H       -1.4212120    -1.5322710    -1.0024030
  H       -2.2765240    -0.0356590    -1.4187580
  H        2.0539910     1.0846830    -0.6562090
  H        1.7201950     0.8226000     1.0546610
  H       -3.5369580    -1.3025810     0.3373160
  H       -2.9717700     0.2361610     0.9972690
  H       -2.1143980    -1.2633090     1.3922570
  H       -0.4113830     1.8596200     1.1216760
  H       -1.6576830     2.0281380    -0.1274070
  H        0.0520880     2.2919400    -0.5220660
  H        3.9433710    -0.1376200     0.4335950
  H        2.8252920    -1.4268740     0.9259980
  H        3.1589730    -1.1612340    -0.7893850
units angstrom
no_reorient  #important for SAPT in psi4, default
symmetry c1  #important for SAPT in psi4, default
}

set PROPERTIES_ORIGIN ["COM"]
properties('MP2/aug-cc-pvtz', properties = ['dipole'])
--------------------------------------------------------------------------

    Molecular point group: c1
  Charge       = 0
  Multiplicity = 1
  Basis Set: AUG-CC-PVTZ
    Blend: AUG-CC-PVTZ
  Basis Set: (AUG-CC-PVTZ AUX)
    Blend: AUG-CC-PVTZ-JKFIT

    Orbital Energies [Eh]
    ---------------------

    Doubly Occupied:

       1A    -15.539619     2A    -11.278523     3A    -11.243056
       4A    -11.229899     5A    -11.223454     6A    -11.220339
       7A    -11.202607     8A     -1.214897     9A     -1.057402
      10A     -0.999433    11A     -0.970515    12A     -0.874048
      13A     -0.822003    14A     -0.709206    15A     -0.645670
      16A     -0.630755    17A     -0.620309    18A     -0.590216
      19A     -0.575372    20A     -0.550700    21A     -0.533714
      22A     -0.529006    23A     -0.511310    24A     -0.495101
      25A     -0.482140    26A     -0.464178    27A     -0.384243
      28A     -0.380017

  @DF-RHF Final Energy:  -289.30049287769788

   => Energetics <=

    Nuclear Repulsion Energy =            306.7583731064423773
    One-Electron Energy =                -998.1622691995299874
    Two-Electron Energy =                 402.1034032153897328
    Total Energy =                       -289.3004928776978772
  Basis Set: (AUG-CC-PVTZ AUX)
    Blend: AUG-CC-PVTZ-RI
    Molecular point group: c1

    Geometry (in Angstrom), charge = 0, multiplicity = 1:

       Center              X                  Y                   Z               Mass
    ------------   -----------------  -----------------  -----------------  -----------------
         N            0.636917482846    -0.419370671073    -0.249481112675    14.003074004430
         C           -1.808621117154    -0.496769471073    -0.645284212675    12.000000000000
         C           -0.479714517154     0.223621328927    -0.256399112675    12.000000000000
         C            1.850537482846     0.314076328927     0.115614887325    12.000000000000
         C           -2.640152517154    -0.719875671073     0.621983887325    12.000000000000
         C           -0.637322517154     1.688353328927     0.088303887325    12.000000000000
         C            3.021770482846    -0.652242671073     0.194714887325    12.000000000000
         H           -1.417836517154    -1.523762671073    -0.979041112675     1.007825032230
         H           -2.273148517154    -0.027150671073    -1.395396112675     1.007825032230
         H            2.057366482846     1.093191328927    -0.632847112675     1.007825032230
         H            1.723570482846     0.831108328927     1.078022887325     1.007825032230
         H           -3.533582517154    -1.294072671073     0.360677887325     1.007825032230
         H           -2.968394517154     0.244669328927     1.020630887325     1.007825032230
         H           -2.111022517154    -1.254800671073     1.415618887325     1.007825032230
         H           -0.408007517154     1.868128328927     1.145037887325     1.007825032230
         H           -1.654307517154     2.036646328927    -0.104045112675     1.007825032230
         H            0.055463482846     2.300448328927    -0.498704112675     1.007825032230
         H            3.946746482846    -0.129111671073     0.456956887325     1.007825032230
         H            2.828667482846    -1.418365671073     0.949359887325     1.007825032230
         H            3.162348482846    -1.152725671073    -0.766023112675     1.007825032230

  Basis Set: AUG-CC-PVTZ
    Blend: AUG-CC-PVTZ
  Basis Set: (AUG-CC-PVTZ AUX)
    Blend: AUG-CC-PVTZ-JKFIT
	 Reference Energy          =    -289.3004928776978772 [Eh]
	 Singles Energy            =      -0.0000000000000000 [Eh]
	 Same-Spin Energy          =      -0.3063243916519272 [Eh]
	 Opposite-Spin Energy      =      -1.0927866511593143 [Eh]
	 Correlation Energy        =      -1.3991110428112414 [Eh]
	 Total Energy              =    -290.6996039205091051 [Eh]

	 ================> DF-SCS-MP2 Energies <==================
	-----------------------------------------------------------
	 SCS Same-Spin Scale       =       0.3333333333333333 [-]
	 SCS Opposite-Spin Scale   =       1.2000000000000000 [-]
	 SCS Same-Spin Energy      =      -0.1021081305506424 [Eh]
	 SCS Opposite-Spin Energy  =      -1.3113439813911771 [Eh]
	 SCS Correlation Energy    =      -1.4134521119418195 [Eh]
	 SCS Total Energy          =    -290.7139449896396854 [Eh]
	-----------------------------------------------------------

  Dipole Moment: [D]
     X:    -0.7872      Y:     1.7925      Z:     0.3727     Total:     1.9929

*** Psi4 exiting successfully. Buy a developer a beer!
