                               Psi4 1.4a3.dev225

  ==> Input File <==

--------------------------------------------------------------------------
#psi4
#
memory 32 gb

molecule  {
0 1
  N        0.6335420    -0.4278790    -0.2728430
  C       -1.7313700    -0.5561300    -0.6201830
  C       -0.4830900     0.2151130    -0.2797610
  C        1.8471620     0.3055680     0.0922530
  C       -2.6435280    -0.7283840     0.5986220
  C       -0.6406980     1.6798450     0.0649420
  C        3.0183950    -0.6607510     0.1713530
  H       -1.4212120    -1.5322710    -1.0024030
  H       -2.2765240    -0.0356590    -1.4187580
  H        2.0727937     1.1555118    -0.7242512
  H        1.7201950     0.8226000     1.0546610
  H       -3.5369580    -1.3025810     0.3373160
  H       -2.9717700     0.2361610     0.9972690
  H       -2.1143980    -1.2633090     1.3922570
  H       -0.4113830     1.8596200     1.1216760
  H       -1.6576830     2.0281380    -0.1274070
  H        0.0520880     2.2919400    -0.5220660
  H        3.9433710    -0.1376200     0.4335950
  H        2.8252920    -1.4268740     0.9259980
  H        3.1589730    -1.1612340    -0.7893850
units angstrom
no_reorient  #important for SAPT in psi4, default
symmetry c1  #important for SAPT in psi4, default
}

set PROPERTIES_ORIGIN ["COM"]
properties('MP2/aug-cc-pvtz', properties = ['dipole'])
--------------------------------------------------------------------------

    Molecular point group: c1
  Charge       = 0
  Multiplicity = 1
  Basis Set: AUG-CC-PVTZ
    Blend: AUG-CC-PVTZ
  Basis Set: (AUG-CC-PVTZ AUX)
    Blend: AUG-CC-PVTZ-JKFIT

    Orbital Energies [Eh]
    ---------------------

    Doubly Occupied:

       1A    -15.539965     2A    -11.276779     3A    -11.254149
       4A    -11.231611     5A    -11.224139     6A    -11.220319
       7A    -11.203552     8A     -1.217753     9A     -1.058817
      10A     -0.997505    11A     -0.971542    12A     -0.877390
      13A     -0.812304    14A     -0.706538    15A     -0.651686
      16A     -0.624818    17A     -0.611240    18A     -0.590670
      19A     -0.574065    20A     -0.552198    21A     -0.536278
      22A     -0.515594    23A     -0.510522    24A     -0.488549
      25A     -0.485771    26A     -0.478346    27A     -0.385951
      28A     -0.378874

  @DF-RHF Final Energy:  -289.30765459182913

   => Energetics <=

    Nuclear Repulsion Energy =            307.1715495587417877
    One-Electron Energy =                -999.0045580984103708
    Two-Electron Energy =                 402.5253539478393918
    Total Energy =                       -289.3076545918291345
  Basis Set: (AUG-CC-PVTZ AUX)
    Blend: AUG-CC-PVTZ-RI
    Molecular point group: c1

    Geometry (in Angstrom), charge = 0, multiplicity = 1:

       Center              X                  Y                   Z               Mass
    ------------   -----------------  -----------------  -----------------  -----------------
         N            0.626963686083    -0.413933564440    -0.254657275389    14.003074004430
         C           -1.737948313917    -0.542184564440    -0.601997275389    12.000000000000
         C           -0.489668313917     0.229058435560    -0.261575275389    12.000000000000
         C            1.840583686083     0.319513435560     0.110438724611    12.000000000000
         C           -2.650106313917    -0.714438564440     0.616807724611    12.000000000000
         C           -0.647276313917     1.693790435560     0.083127724611    12.000000000000
         C            3.011816686083    -0.646805564440     0.189538724611    12.000000000000
         H           -1.427790313917    -1.518325564440    -0.984217275389     1.007825032230
         H           -2.283102313917    -0.021713564440    -1.400572275389     1.007825032230
         H            2.066215386083     1.169457235560    -0.706065475389     1.007825032230
         H            1.713616686083     0.836545435560     1.072846724611     1.007825032230
         H           -3.543536313917    -1.288635564440     0.355501724611     1.007825032230
         H           -2.978348313917     0.250106435560     1.015454724611     1.007825032230
         H           -2.120976313917    -1.249363564440     1.410442724611     1.007825032230
         H           -0.417961313917     1.873565435560     1.139861724611     1.007825032230
         H           -1.664261313917     2.042083435560    -0.109221275389     1.007825032230
         H            0.045509686083     2.305885435560    -0.503880275389     1.007825032230
         H            3.936792686083    -0.123674564440     0.451780724611     1.007825032230
         H            2.818713686083    -1.412928564440     0.944183724611     1.007825032230
         H            3.152394686083    -1.147288564440    -0.771199275389     1.007825032230

  Basis Set: AUG-CC-PVTZ
    Blend: AUG-CC-PVTZ
  Basis Set: (AUG-CC-PVTZ AUX)
    Blend: AUG-CC-PVTZ-JKFIT
	 Reference Energy          =    -289.3076545918291345 [Eh]
	 Singles Energy            =      -0.0000000000000000 [Eh]
	 Same-Spin Energy          =      -0.3064799669359646 [Eh]
	 Opposite-Spin Energy      =      -1.0930035578707065 [Eh]
	 Correlation Energy        =      -1.3994835248066710 [Eh]
	 Total Energy              =    -290.7071381166358037 [Eh]

	 ================> DF-SCS-MP2 Energies <==================
	-----------------------------------------------------------
	 SCS Same-Spin Scale       =       0.3333333333333333 [-]
	 SCS Opposite-Spin Scale   =       1.2000000000000000 [-]
	 SCS Same-Spin Energy      =      -0.1021599889786549 [Eh]
	 SCS Opposite-Spin Energy  =      -1.3116042694448478 [Eh]
	 SCS Correlation Energy    =      -1.4137642584235026 [Eh]
	 SCS Total Energy          =    -290.7214188502526326 [Eh]
	-----------------------------------------------------------

  Dipole Moment: [D]
     X:    -0.8533      Y:     1.6886      Z:     0.4228     Total:     1.9386

*** Psi4 exiting successfully. Buy a developer a beer!
