                               Psi4 1.4a3.dev225

  ==> Input File <==

--------------------------------------------------------------------------
#psi4
#
memory 32 gb

molecule  {
0 1
  N        0.6335420    -0.4278790    -0.2728430
  C       -1.7313700    -0.5561300    -0.6201830
  C       -0.5264191     0.2400633    -0.2800294
  C        1.8471620     0.3055680     0.0922530
  C       -2.6435280    -0.7283840     0.5986220
  C       -0.6406980     1.6798450     0.0649420
  C        3.0183950    -0.6607510     0.1713530
  H       -1.4212120    -1.5322710    -1.0024030
  H       -2.2765240    -0.0356590    -1.4187580
  H        2.0539910     1.0846830    -0.6562090
  H        1.7201950     0.8226000     1.0546610
  H       -3.5369580    -1.3025810     0.3373160
  H       -2.9717700     0.2361610     0.9972690
  H       -2.1143980    -1.2633090     1.3922570
  H       -0.4113830     1.8596200     1.1216760
  H       -1.6576830     2.0281380    -0.1274070
  H        0.0520880     2.2919400    -0.5220660
  H        3.9433710    -0.1376200     0.4335950
  H        2.8252920    -1.4268740     0.9259980
  H        3.1589730    -1.1612340    -0.7893850
units angstrom
no_reorient  #important for SAPT in psi4, default
symmetry c1  #important for SAPT in psi4, default
}

set PROPERTIES_ORIGIN ["COM"]
properties('MP2/aug-cc-pvtz', properties = ['dipole'])
--------------------------------------------------------------------------

    Molecular point group: c1
  Charge       = 0
  Multiplicity = 1
  Basis Set: AUG-CC-PVTZ
    Blend: AUG-CC-PVTZ
  Basis Set: (AUG-CC-PVTZ AUX)
    Blend: AUG-CC-PVTZ-JKFIT

    Orbital Energies [Eh]
    ---------------------

    Doubly Occupied:

       1A    -15.541510     2A    -11.280531     3A    -11.239903
       4A    -11.232903     5A    -11.224876     6A    -11.221126
       7A    -11.201131     8A     -1.202211     9A     -1.064274
      10A     -0.998523    11A     -0.971702    12A     -0.879971
      13A     -0.813296    14A     -0.711645    15A     -0.653668
      16A     -0.626926    17A     -0.615143    18A     -0.588640
      19A     -0.577688    20A     -0.555505    21A     -0.535308
      22A     -0.516004    23A     -0.509412    24A     -0.491059
      25A     -0.490091    26A     -0.475524    27A     -0.388134
      28A     -0.366109

  @DF-RHF Final Energy:  -289.30578899310058

   => Energetics <=

    Nuclear Repulsion Energy =            307.3085294344519411
    One-Electron Energy =                -999.2830123503812274
    Two-Electron Energy =                 402.6686939228286519
    Total Energy =                       -289.3057889931005775
  Basis Set: (AUG-CC-PVTZ AUX)
    Blend: AUG-CC-PVTZ-RI
    Molecular point group: c1

    Geometry (in Angstrom), charge = 0, multiplicity = 1:

       Center              X                  Y                   Z               Mass
    ------------   -----------------  -----------------  -----------------  -----------------
         N            0.632401354439    -0.416234366860    -0.255316717039    14.003074004430
         C           -1.732510645561    -0.544485366860    -0.602656717039    12.000000000000
         C           -0.527559745561     0.251707933140    -0.262503117039    12.000000000000
         C            1.846021354439     0.317212633140     0.109779282961    12.000000000000
         C           -2.644668645561    -0.716739366860     0.616148282961    12.000000000000
         C           -0.641838645561     1.691489633140     0.082468282961    12.000000000000
         C            3.017254354439    -0.649106366860     0.188879282961    12.000000000000
         H           -1.422352645561    -1.520626366860    -0.984876717039     1.007825032230
         H           -2.277664645561    -0.024014366860    -1.401231717039     1.007825032230
         H            2.052850354439     1.096327633140    -0.638682717039     1.007825032230
         H            1.719054354439     0.834244633140     1.072187282961     1.007825032230
         H           -3.538098645561    -1.290936366860     0.354842282961     1.007825032230
         H           -2.972910645561     0.247805633140     1.014795282961     1.007825032230
         H           -2.115538645561    -1.251664366860     1.409783282961     1.007825032230
         H           -0.412523645561     1.871264633140     1.139202282961     1.007825032230
         H           -1.658823645561     2.039782633140    -0.109880717039     1.007825032230
         H            0.050947354439     2.303584633140    -0.504539717039     1.007825032230
         H            3.942230354439    -0.125975366860     0.451121282961     1.007825032230
         H            2.824151354439    -1.415229366860     0.943524282961     1.007825032230
         H            3.157832354439    -1.149589366860    -0.771858717039     1.007825032230

  Basis Set: AUG-CC-PVTZ
    Blend: AUG-CC-PVTZ
  Basis Set: (AUG-CC-PVTZ AUX)
    Blend: AUG-CC-PVTZ-JKFIT
	 Reference Energy          =    -289.3057889931005775 [Eh]
	 Singles Energy            =      -0.0000000000000000 [Eh]
	 Same-Spin Energy          =      -0.3078839924331248 [Eh]
	 Opposite-Spin Energy      =      -1.0950860063882462 [Eh]
	 Correlation Energy        =      -1.4029699988213709 [Eh]
	 Total Energy              =    -290.7087589919219681 [Eh]

	 ================> DF-SCS-MP2 Energies <==================
	-----------------------------------------------------------
	 SCS Same-Spin Scale       =       0.3333333333333333 [-]
	 SCS Opposite-Spin Scale   =       1.2000000000000000 [-]
	 SCS Same-Spin Energy      =      -0.1026279974777082 [Eh]
	 SCS Opposite-Spin Energy  =      -1.3141032076658954 [Eh]
	 SCS Correlation Energy    =      -1.4167312051436036 [Eh]
	 SCS Total Energy          =    -290.7225201982441831 [Eh]
	-----------------------------------------------------------

  Dipole Moment: [D]
     X:    -0.9300      Y:     1.8074      Z:     0.3831     Total:     2.0685

*** Psi4 exiting successfully. Buy a developer a beer!
