                               Psi4 1.4a3.dev225

  ==> Input File <==

--------------------------------------------------------------------------
#psi4
#
memory 32 gb

molecule  {
0 1
  N        0.6335420    -0.4278790    -0.2728430
  C       -1.7313700    -0.5561300    -0.6201830
  C       -0.4830900     0.2151130    -0.2797610
  C        1.8471620     0.3055680     0.0922530
  C       -2.6435280    -0.7283840     0.5986220
  C       -0.6406980     1.6798450     0.0649420
  C        3.0183950    -0.6607510     0.1713530
  H       -1.4212120    -1.5322710    -1.0024030
  H       -2.2765240    -0.0356590    -1.4187580
  H        2.0539910     1.0846830    -0.6562090
  H        1.7201950     0.8226000     1.0546610
  H       -3.5778020    -1.3288310     0.3253701
  H       -2.9717700     0.2361610     0.9972690
  H       -2.1143980    -1.2633090     1.3922570
  H       -0.4113830     1.8596200     1.1216760
  H       -1.6576830     2.0281380    -0.1274070
  H        0.0520880     2.2919400    -0.5220660
  H        3.9433710    -0.1376200     0.4335950
  H        2.8252920    -1.4268740     0.9259980
  H        3.1589730    -1.1612340    -0.7893850
units angstrom
no_reorient  #important for SAPT in psi4, default
symmetry c1  #important for SAPT in psi4, default
}

set PROPERTIES_ORIGIN ["COM"]
properties('MP2/aug-cc-pvtz', properties = ['dipole'])
--------------------------------------------------------------------------

    Molecular point group: c1
  Charge       = 0
  Multiplicity = 1
  Basis Set: AUG-CC-PVTZ
    Blend: AUG-CC-PVTZ
  Basis Set: (AUG-CC-PVTZ AUX)
    Blend: AUG-CC-PVTZ-JKFIT

    Orbital Energies [Eh]
    ---------------------

    Doubly Occupied:

       1A    -15.539157     2A    -11.276093     3A    -11.242329
       4A    -11.231952     5A    -11.226021     6A    -11.223976
       7A    -11.202561     8A     -1.217739     9A     -1.059007
      10A     -0.997214    11A     -0.971952    12A     -0.874830
      13A     -0.816578    14A     -0.708966    15A     -0.651806
      16A     -0.626913    17A     -0.615626    18A     -0.590551
      19A     -0.575563    20A     -0.547409    21A     -0.534359
      22A     -0.515098    23A     -0.511538    24A     -0.493311
      25A     -0.486478    26A     -0.475628    27A     -0.385633
      28A     -0.380938

  @DF-RHF Final Energy:  -289.31196698478294

   => Energetics <=

    Nuclear Repulsion Energy =            307.3897295560580005
    One-Electron Energy =                -999.4449343470117810
    Two-Electron Energy =                 402.7432378061708391
    Total Energy =                       -289.3119669847829414
  Basis Set: (AUG-CC-PVTZ AUX)
    Blend: AUG-CC-PVTZ-RI
    Molecular point group: c1

    Geometry (in Angstrom), charge = 0, multiplicity = 1:

       Center              X                  Y                   Z               Mass
    ------------   -----------------  -----------------  -----------------  -----------------
         N            0.627570250424    -0.412946342375    -0.255227734698    14.003074004430
         C           -1.737341749576    -0.541197342375    -0.602567734698    12.000000000000
         C           -0.489061749576     0.230045657625    -0.262145734698    12.000000000000
         C            1.841190250424     0.320500657625     0.109868265302    12.000000000000
         C           -2.649499749576    -0.713451342375     0.616237265302    12.000000000000
         C           -0.646669749576     1.694777657625     0.082557265302    12.000000000000
         C            3.012423250424    -0.645818342375     0.188968265302    12.000000000000
         H           -1.427183749576    -1.517338342375    -0.984787734698     1.007825032230
         H           -2.282495749576    -0.020726342375    -1.401142734698     1.007825032230
         H            2.048019250424     1.099615657625    -0.638593734698     1.007825032230
         H            1.714223250424     0.837532657625     1.072276265302     1.007825032230
         H           -3.583773749576    -1.313898342375     0.342985365302     1.007825032230
         H           -2.977741749576     0.251093657625     1.014884265302     1.007825032230
         H           -2.120369749576    -1.248376342375     1.409872265302     1.007825032230
         H           -0.417354749576     1.874552657625     1.139291265302     1.007825032230
         H           -1.663654749576     2.043070657625    -0.109791734698     1.007825032230
         H            0.046116250424     2.306872657625    -0.504450734698     1.007825032230
         H            3.937399250424    -0.122687342375     0.451210265302     1.007825032230
         H            2.819320250424    -1.411941342375     0.943613265302     1.007825032230
         H            3.153001250424    -1.146301342375    -0.771769734698     1.007825032230

  Basis Set: AUG-CC-PVTZ
    Blend: AUG-CC-PVTZ
  Basis Set: (AUG-CC-PVTZ AUX)
    Blend: AUG-CC-PVTZ-JKFIT
	 Reference Energy          =    -289.3119669847829414 [Eh]
	 Singles Energy            =      -0.0000000000000000 [Eh]
	 Same-Spin Energy          =      -0.3063248386428392 [Eh]
	 Opposite-Spin Energy      =      -1.0926043859432970 [Eh]
	 Correlation Energy        =      -1.3989292245861362 [Eh]
	 Total Energy              =    -290.7108962093690820 [Eh]

	 ================> DF-SCS-MP2 Energies <==================
	-----------------------------------------------------------
	 SCS Same-Spin Scale       =       0.3333333333333333 [-]
	 SCS Opposite-Spin Scale   =       1.2000000000000000 [-]
	 SCS Same-Spin Energy      =      -0.1021082795476130 [Eh]
	 SCS Opposite-Spin Energy  =      -1.3111252631319563 [Eh]
	 SCS Correlation Energy    =      -1.4132335426795695 [Eh]
	 SCS Total Energy          =    -290.7252005274625049 [Eh]
	-----------------------------------------------------------

  Dipole Moment: [D]
     X:    -0.7823      Y:     1.7791      Z:     0.3800     Total:     1.9803

*** Psi4 exiting successfully. Buy a developer a beer!
