                               Psi4 1.4a3.dev225

  ==> Input File <==

--------------------------------------------------------------------------
#psi4
#
memory 32 gb

molecule  {
0 1
  N        0.6335420    -0.4278790    -0.2728430
  C       -1.7313700    -0.5561300    -0.6201830
  C       -0.4830900     0.2151130    -0.2797610
  C        1.8471620     0.3055680     0.0922530
  C       -2.6435280    -0.7283840     0.5986220
  C       -0.6406980     1.6798450     0.0649420
  C        3.1724574    -0.7878593     0.1817577
  H       -1.4212120    -1.5322710    -1.0024030
  H       -2.2765240    -0.0356590    -1.4187580
  H        2.0539910     1.0846830    -0.6562090
  H        1.7201950     0.8226000     1.0546610
  H       -3.5369580    -1.3025810     0.3373160
  H       -2.9717700     0.2361610     0.9972690
  H       -2.1143980    -1.2633090     1.3922570
  H       -0.4113830     1.8596200     1.1216760
  H       -1.6576830     2.0281380    -0.1274070
  H        0.0520880     2.2919400    -0.5220660
  H        3.9433710    -0.1376200     0.4335950
  H        2.8252920    -1.4268740     0.9259980
  H        3.1589730    -1.1612340    -0.7893850
units angstrom
no_reorient  #important for SAPT in psi4, default
symmetry c1  #important for SAPT in psi4, default
}

set PROPERTIES_ORIGIN ["COM"]
properties('MP2/aug-cc-pvtz', properties = ['dipole'])
--------------------------------------------------------------------------

    Molecular point group: c1
  Charge       = 0
  Multiplicity = 1
  Basis Set: AUG-CC-PVTZ
    Blend: AUG-CC-PVTZ
  Basis Set: (AUG-CC-PVTZ AUX)
    Blend: AUG-CC-PVTZ-JKFIT

    Orbital Energies [Eh]
    ---------------------

    Doubly Occupied:

       1A    -15.539460     2A    -11.275398     3A    -11.249109
       4A    -11.231251     5A    -11.223343     6A    -11.219729
       7A    -11.200582     8A     -1.214870     9A     -1.053176
      10A     -0.987188    11A     -0.965770    12A     -0.882593
      13A     -0.823971    14A     -0.705351    15A     -0.648980
      16A     -0.624396    17A     -0.612899    18A     -0.591327
      19A     -0.578879    20A     -0.556944    21A     -0.549491
      22A     -0.524127    23A     -0.517404    24A     -0.505512
      25A     -0.486086    26A     -0.434428    27A     -0.380618
      28A     -0.376943

  @DF-RHF Final Energy:  -289.28629425206327

   => Energetics <=

    Nuclear Repulsion Energy =            304.9684276250384869
    One-Electron Energy =                -994.5897912635007287
    Two-Electron Energy =                 400.3350693863990273
    Total Energy =                       -289.2862942520632714
  Basis Set: (AUG-CC-PVTZ AUX)
    Blend: AUG-CC-PVTZ-RI
    Molecular point group: c1

    Geometry (in Angstrom), charge = 0, multiplicity = 1:

       Center              X                  Y                   Z               Mass
    ------------   -----------------  -----------------  -----------------  -----------------
         N            0.608500413074    -0.397822511827    -0.256609058083    14.003074004430
         C           -1.756411586926    -0.526073511827    -0.603949058083    12.000000000000
         C           -0.508131586926     0.245169488173    -0.263527058083    12.000000000000
         C            1.822120413074     0.335624488173     0.108486941917    12.000000000000
         C           -2.668569586926    -0.698327511827     0.614855941917    12.000000000000
         C           -0.665739586926     1.709901488173     0.081175941917    12.000000000000
         C            3.147415813074    -0.757802811827     0.197991641917    12.000000000000
         H           -1.446253586926    -1.502214511827    -0.986169058083     1.007825032230
         H           -2.301565586926    -0.005602511827    -1.402524058083     1.007825032230
         H            2.028949413074     1.114739488173    -0.639975058083     1.007825032230
         H            1.695153413074     0.852656488173     1.070894941917     1.007825032230
         H           -3.561999586926    -1.272524511827     0.353549941917     1.007825032230
         H           -2.996811586926     0.266217488173     1.013502941917     1.007825032230
         H           -2.139439586926    -1.233252511827     1.408490941917     1.007825032230
         H           -0.436424586926     1.889676488173     1.137909941917     1.007825032230
         H           -1.682724586926     2.058194488173    -0.111173058083     1.007825032230
         H            0.027046413074     2.321996488173    -0.505832058083     1.007825032230
         H            3.918329413074    -0.107563511827     0.449828941917     1.007825032230
         H            2.800250413074    -1.396817511827     0.942231941917     1.007825032230
         H            3.133931413074    -1.131177511827    -0.773151058083     1.007825032230

  Basis Set: AUG-CC-PVTZ
    Blend: AUG-CC-PVTZ
  Basis Set: (AUG-CC-PVTZ AUX)
    Blend: AUG-CC-PVTZ-JKFIT
	 Reference Energy          =    -289.2862942520632714 [Eh]
	 Singles Energy            =      -0.0000000000000000 [Eh]
	 Same-Spin Energy          =      -0.3065650515445729 [Eh]
	 Opposite-Spin Energy      =      -1.0938874288540461 [Eh]
	 Correlation Energy        =      -1.4004524803986189 [Eh]
	 Total Energy              =    -290.6867467324618701 [Eh]

	 ================> DF-SCS-MP2 Energies <==================
	-----------------------------------------------------------
	 SCS Same-Spin Scale       =       0.3333333333333333 [-]
	 SCS Opposite-Spin Scale   =       1.2000000000000000 [-]
	 SCS Same-Spin Energy      =      -0.1021883505148576 [Eh]
	 SCS Opposite-Spin Energy  =      -1.3126649146248552 [Eh]
	 SCS Correlation Energy    =      -1.4148532651397128 [Eh]
	 SCS Total Energy          =    -290.7011475172029691 [Eh]
	-----------------------------------------------------------

  Dipole Moment: [D]
     X:    -0.9007      Y:     1.8108      Z:     0.3737     Total:     2.0567

*** Psi4 exiting successfully. Buy a developer a beer!
