                               Psi4 1.4a3.dev225

  ==> Input File <==

--------------------------------------------------------------------------
#psi4
#
memory 32 gb

molecule  {
0 1
  N        0.6335420    -0.4278790    -0.2728430
  C       -1.7313700    -0.5561300    -0.6201830
  C       -0.4830900     0.2151130    -0.2797610
  C        1.8471620     0.3055680     0.0922530
  C       -2.6732971    -0.7340057     0.6383988
  C       -0.6406980     1.6798450     0.0649420
  C        3.0183950    -0.6607510     0.1713530
  H       -1.4212120    -1.5322710    -1.0024030
  H       -2.2765240    -0.0356590    -1.4187580
  H        2.0539910     1.0846830    -0.6562090
  H        1.7201950     0.8226000     1.0546610
  H       -3.5369580    -1.3025810     0.3373160
  H       -2.9717700     0.2361610     0.9972690
  H       -2.1143980    -1.2633090     1.3922570
  H       -0.4113830     1.8596200     1.1216760
  H       -1.6576830     2.0281380    -0.1274070
  H        0.0520880     2.2919400    -0.5220660
  H        3.9433710    -0.1376200     0.4335950
  H        2.8252920    -1.4268740     0.9259980
  H        3.1589730    -1.1612340    -0.7893850
units angstrom
no_reorient  #important for SAPT in psi4, default
symmetry c1  #important for SAPT in psi4, default
}

set PROPERTIES_ORIGIN ["COM"]
properties('MP2/aug-cc-pvtz', properties = ['dipole'])
--------------------------------------------------------------------------

    Molecular point group: c1
  Charge       = 0
  Multiplicity = 1
  Basis Set: AUG-CC-PVTZ
    Blend: AUG-CC-PVTZ
  Basis Set: (AUG-CC-PVTZ AUX)
    Blend: AUG-CC-PVTZ-JKFIT

    Orbital Energies [Eh]
    ---------------------

    Doubly Occupied:

       1A    -15.538225     2A    -11.275519     3A    -11.241834
       4A    -11.231565     5A    -11.225327     6A    -11.218391
       7A    -11.202215     8A     -1.216777     9A     -1.054724
      10A     -0.995301    11A     -0.971427    12A     -0.880660
      13A     -0.817622    14A     -0.707615    15A     -0.650831
      16A     -0.626889    17A     -0.615301    18A     -0.590960
      19A     -0.575394    20A     -0.556151    21A     -0.534807
      22A     -0.511415    23A     -0.507897    24A     -0.493435
      25A     -0.490262    26A     -0.478687    27A     -0.385100
      28A     -0.378858

  @DF-RHF Final Energy:  -289.31240917256855

   => Energetics <=

    Nuclear Repulsion Energy =            306.9466259194431927
    One-Electron Energy =                -998.5716912185395131
    Two-Electron Energy =                 402.3126561265278269
    Total Energy =                       -289.3124091725685503
  Basis Set: (AUG-CC-PVTZ AUX)
    Blend: AUG-CC-PVTZ-RI
    Molecular point group: c1

    Geometry (in Angstrom), charge = 0, multiplicity = 1:

       Center              X                  Y                   Z               Mass
    ------------   -----------------  -----------------  -----------------  -----------------
         N            0.630759456156    -0.412532588519    -0.260165547800    14.003074004430
         C           -1.734152543844    -0.540783588519    -0.607505547800    12.000000000000
         C           -0.485872543844     0.230459411481    -0.267083547800    12.000000000000
         C            1.844379456156     0.320914411481     0.104930452200    12.000000000000
         C           -2.676079643844    -0.718659288519     0.651076252200    12.000000000000
         C           -0.643480543844     1.695191411481     0.077619452200    12.000000000000
         C            3.015612456156    -0.645404588519     0.184030452200    12.000000000000
         H           -1.423994543844    -1.516924588519    -0.989725547800     1.007825032230
         H           -2.279306543844    -0.020312588519    -1.406080547800     1.007825032230
         H            2.051208456156     1.100029411481    -0.643531547800     1.007825032230
         H            1.717412456156     0.837946411481     1.067338452200     1.007825032230
         H           -3.539740543844    -1.287234588519     0.349993452200     1.007825032230
         H           -2.974552543844     0.251507411481     1.009946452200     1.007825032230
         H           -2.117180543844    -1.247962588519     1.404934452200     1.007825032230
         H           -0.414165543844     1.874966411481     1.134353452200     1.007825032230
         H           -1.660465543844     2.043484411481    -0.114729547800     1.007825032230
         H            0.049305456156     2.307286411481    -0.509388547800     1.007825032230
         H            3.940588456156    -0.122273588519     0.446272452200     1.007825032230
         H            2.822509456156    -1.411527588519     0.938675452200     1.007825032230
         H            3.156190456156    -1.145887588519    -0.776707547800     1.007825032230

  Basis Set: AUG-CC-PVTZ
    Blend: AUG-CC-PVTZ
  Basis Set: (AUG-CC-PVTZ AUX)
    Blend: AUG-CC-PVTZ-JKFIT
	 Reference Energy          =    -289.3124091725685503 [Eh]
	 Singles Energy            =      -0.0000000000000000 [Eh]
	 Same-Spin Energy          =      -0.3061441374926872 [Eh]
	 Opposite-Spin Energy      =      -1.0921909890180310 [Eh]
	 Correlation Energy        =      -1.3983351265107182 [Eh]
	 Total Energy              =    -290.7107442990792947 [Eh]

	 ================> DF-SCS-MP2 Energies <==================
	-----------------------------------------------------------
	 SCS Same-Spin Scale       =       0.3333333333333333 [-]
	 SCS Opposite-Spin Scale   =       1.2000000000000000 [-]
	 SCS Same-Spin Energy      =      -0.1020480458308957 [Eh]
	 SCS Opposite-Spin Energy  =      -1.3106291868216371 [Eh]
	 SCS Correlation Energy    =      -1.4126772326525328 [Eh]
	 SCS Total Energy          =    -290.7250864052210773 [Eh]
	-----------------------------------------------------------

  Dipole Moment: [D]
     X:    -0.8359      Y:     1.7575      Z:     0.3840     Total:     1.9837

*** Psi4 exiting successfully. Buy a developer a beer!
