                               Psi4 1.4a3.dev225

  ==> Input File <==

--------------------------------------------------------------------------
#psi4
#
memory 32 gb

molecule  {
0 1
  N        0.6335420    -0.4278790    -0.2728430
  C       -1.7313700    -0.5561300    -0.6201830
  C       -0.4830900     0.2151130    -0.2797610
  C        1.8471620     0.3055680     0.0922530
  C       -2.6435280    -0.7283840     0.5986220
  C       -0.6406980     1.6798450     0.0649420
  C        3.0183950    -0.6607510     0.1713530
  H       -1.4212120    -1.5322710    -1.0024030
  H       -2.2765240    -0.0356590    -1.4187580
  H        2.0539910     1.0846830    -0.6562090
  H        1.7225038     0.8131981     1.0371603
  H       -3.5369580    -1.3025810     0.3373160
  H       -2.9717700     0.2361610     0.9972690
  H       -2.1143980    -1.2633090     1.3922570
  H       -0.4113830     1.8596200     1.1216760
  H       -1.6576830     2.0281380    -0.1274070
  H        0.0520880     2.2919400    -0.5220660
  H        3.9433710    -0.1376200     0.4335950
  H        2.8252920    -1.4268740     0.9259980
  H        3.1589730    -1.1612340    -0.7893850
units angstrom
no_reorient  #important for SAPT in psi4, default
symmetry c1  #important for SAPT in psi4, default
}

set PROPERTIES_ORIGIN ["COM"]
properties('MP2/aug-cc-pvtz', properties = ['dipole'])
--------------------------------------------------------------------------

    Molecular point group: c1
  Charge       = 0
  Multiplicity = 1
  Basis Set: AUG-CC-PVTZ
    Blend: AUG-CC-PVTZ
  Basis Set: (AUG-CC-PVTZ AUX)
    Blend: AUG-CC-PVTZ-JKFIT

    Orbital Energies [Eh]
    ---------------------

    Doubly Occupied:

       1A    -15.538443     2A    -11.275538     3A    -11.239541
       4A    -11.231682     5A    -11.223475     6A    -11.219831
       7A    -11.202149     8A     -1.217328     9A     -1.059520
      10A     -0.998416    11A     -0.971846    12A     -0.877389
      13A     -0.818255    14A     -0.709426    15A     -0.652022
      16A     -0.628126    17A     -0.616231    18A     -0.590411
      19A     -0.575758    20A     -0.551975    21A     -0.535550
      22A     -0.515078    23A     -0.511615    24A     -0.493758
      25A     -0.485985    26A     -0.477358    27A     -0.385369
      28A     -0.380773

  @DF-RHF Final Energy:  -289.31413842872087

   => Energetics <=

    Nuclear Repulsion Energy =            307.6909803932458658
    One-Electron Energy =               -1000.0445429080223221
    Two-Electron Energy =                 403.0394240860556465
    Total Energy =                       -289.3141384287208666
  Basis Set: (AUG-CC-PVTZ AUX)
    Blend: AUG-CC-PVTZ-RI
    Molecular point group: c1

    Geometry (in Angstrom), charge = 0, multiplicity = 1:

       Center              X                  Y                   Z               Mass
    ------------   -----------------  -----------------  -----------------  -----------------
         N            0.627131417266    -0.413117675519    -0.255171246349    14.003074004430
         C           -1.737780582734    -0.541368675519    -0.602511246349    12.000000000000
         C           -0.489500582734     0.229874324481    -0.262089246349    12.000000000000
         C            1.840751417266     0.320329324481     0.109924753651    12.000000000000
         C           -2.649938582734    -0.713622675519     0.616293753651    12.000000000000
         C           -0.647108582734     1.694606324481     0.082613753651    12.000000000000
         C            3.011984417266    -0.645989675519     0.189024753651    12.000000000000
         H           -1.427622582734    -1.517509675519    -0.984731246349     1.007825032230
         H           -2.282934582734    -0.020897675519    -1.401086246349     1.007825032230
         H            2.047580417266     1.099444324481    -0.638537246349     1.007825032230
         H            1.716093217266     0.827959424481     1.054832053651     1.007825032230
         H           -3.543368582734    -1.287819675519     0.354987753651     1.007825032230
         H           -2.978180582734     0.250922324481     1.014940753651     1.007825032230
         H           -2.120808582734    -1.248547675519     1.409928753651     1.007825032230
         H           -0.417793582734     1.874381324481     1.139347753651     1.007825032230
         H           -1.664093582734     2.042899324481    -0.109735246349     1.007825032230
         H            0.045677417266     2.306701324481    -0.504394246349     1.007825032230
         H            3.936960417266    -0.122858675519     0.451266753651     1.007825032230
         H            2.818881417266    -1.412112675519     0.943669753651     1.007825032230
         H            3.152562417266    -1.146472675519    -0.771713246349     1.007825032230

  Basis Set: AUG-CC-PVTZ
    Blend: AUG-CC-PVTZ
  Basis Set: (AUG-CC-PVTZ AUX)
    Blend: AUG-CC-PVTZ-JKFIT
	 Reference Energy          =    -289.3141384287208666 [Eh]
	 Singles Energy            =      -0.0000000000000000 [Eh]
	 Same-Spin Energy          =      -0.3063139533482020 [Eh]
	 Opposite-Spin Energy      =      -1.0921500102020316 [Eh]
	 Correlation Energy        =      -1.3984639635502336 [Eh]
	 Total Energy              =    -290.7126023922710942 [Eh]

	 ================> DF-SCS-MP2 Energies <==================
	-----------------------------------------------------------
	 SCS Same-Spin Scale       =       0.3333333333333333 [-]
	 SCS Opposite-Spin Scale   =       1.2000000000000000 [-]
	 SCS Same-Spin Energy      =      -0.1021046511160673 [Eh]
	 SCS Opposite-Spin Energy  =      -1.3105800122424378 [Eh]
	 SCS Correlation Energy    =      -1.4126846633585051 [Eh]
	 SCS Total Energy          =    -290.7268230920793712 [Eh]
	-----------------------------------------------------------

  Dipole Moment: [D]
     X:    -0.8196      Y:     1.7704      Z:     0.3923     Total:     1.9899

*** Psi4 exiting successfully. Buy a developer a beer!
