                               Psi4 1.4a3.dev225

  ==> Input File <==

--------------------------------------------------------------------------
#psi4
#
memory 32 gb

molecule  {
0 1
  N        0.6335420    -0.4278790    -0.2728430
  C       -1.7594022    -0.5122921    -0.6126497
  C       -0.4830900     0.2151130    -0.2797610
  C        1.8471620     0.3055680     0.0922530
  C       -2.6435280    -0.7283840     0.5986220
  C       -0.6406980     1.6798450     0.0649420
  C        3.0183950    -0.6607510     0.1713530
  H       -1.4212120    -1.5322710    -1.0024030
  H       -2.2765240    -0.0356590    -1.4187580
  H        2.0539910     1.0846830    -0.6562090
  H        1.7201950     0.8226000     1.0546610
  H       -3.5369580    -1.3025810     0.3373160
  H       -2.9717700     0.2361610     0.9972690
  H       -2.1143980    -1.2633090     1.3922570
  H       -0.4113830     1.8596200     1.1216760
  H       -1.6576830     2.0281380    -0.1274070
  H        0.0520880     2.2919400    -0.5220660
  H        3.9433710    -0.1376200     0.4335950
  H        2.8252920    -1.4268740     0.9259980
  H        3.1589730    -1.1612340    -0.7893850
units angstrom
no_reorient  #important for SAPT in psi4, default
symmetry c1  #important for SAPT in psi4, default
}

set PROPERTIES_ORIGIN ["COM"]
properties('MP2/aug-cc-pvtz', properties = ['dipole'])
--------------------------------------------------------------------------

    Molecular point group: c1
  Charge       = 0
  Multiplicity = 1
  Basis Set: AUG-CC-PVTZ
    Blend: AUG-CC-PVTZ
  Basis Set: (AUG-CC-PVTZ AUX)
    Blend: AUG-CC-PVTZ-JKFIT

    Orbital Energies [Eh]
    ---------------------

    Doubly Occupied:

       1A    -15.539896     2A    -11.276243     3A    -11.242837
       4A    -11.230423     5A    -11.224400     6A    -11.219577
       7A    -11.202681     8A     -1.217399     9A     -1.061787
      10A     -0.999806    11A     -0.971391    12A     -0.876910
      13A     -0.817858    14A     -0.708643    15A     -0.649440
      16A     -0.629122    17A     -0.618140    18A     -0.589841
      19A     -0.576378    20A     -0.552871    21A     -0.536292
      22A     -0.520992    23A     -0.511532    24A     -0.494058
      25A     -0.481486    26A     -0.469757    27A     -0.385393
      28A     -0.382089

  @DF-RHF Final Energy:  -289.31055077589929

   => Energetics <=

    Nuclear Repulsion Energy =            307.6839906410993990
    One-Electron Energy =               -1000.0145961705433137
    Two-Electron Energy =                 403.0200547535446276
    Total Energy =                       -289.3105507758992871
  Basis Set: (AUG-CC-PVTZ AUX)
    Blend: AUG-CC-PVTZ-RI
    Molecular point group: c1

    Geometry (in Angstrom), charge = 0, multiplicity = 1:

       Center              X                  Y                   Z               Mass
    ------------   -----------------  -----------------  -----------------  -----------------
         N            0.630549145453    -0.418521351964    -0.256261377646    14.003074004430
         C           -1.762395054547    -0.502934451964    -0.596068077646    12.000000000000
         C           -0.486082854547     0.224470648036    -0.263179377646    12.000000000000
         C            1.844169145453     0.314925648036     0.108834622354    12.000000000000
         C           -2.646520854547    -0.719026351964     0.615203622354    12.000000000000
         C           -0.643690854547     1.689202648036     0.081523622354    12.000000000000
         C            3.015402145453    -0.651393351964     0.187934622354    12.000000000000
         H           -1.424204854547    -1.522913351964    -0.985821377646     1.007825032230
         H           -2.279516854547    -0.026301351964    -1.402176377646     1.007825032230
         H            2.050998145453     1.094040648036    -0.639627377646     1.007825032230
         H            1.717202145453     0.831957648036     1.071242622354     1.007825032230
         H           -3.539950854547    -1.293223351964     0.353897622354     1.007825032230
         H           -2.974762854547     0.245518648036     1.013850622354     1.007825032230
         H           -2.117390854547    -1.253951351964     1.408838622354     1.007825032230
         H           -0.414375854547     1.868977648036     1.138257622354     1.007825032230
         H           -1.660675854547     2.037495648036    -0.110825377646     1.007825032230
         H            0.049095145453     2.301297648036    -0.505484377646     1.007825032230
         H            3.940378145453    -0.128262351964     0.450176622354     1.007825032230
         H            2.822299145453    -1.417516351964     0.942579622354     1.007825032230
         H            3.155980145453    -1.151876351964    -0.772803377646     1.007825032230

  Basis Set: AUG-CC-PVTZ
    Blend: AUG-CC-PVTZ
  Basis Set: (AUG-CC-PVTZ AUX)
    Blend: AUG-CC-PVTZ-JKFIT
	 Reference Energy          =    -289.3105507758992871 [Eh]
	 Singles Energy            =      -0.0000000000000000 [Eh]
	 Same-Spin Energy          =      -0.3065555434282761 [Eh]
	 Opposite-Spin Energy      =      -1.0926444661519898 [Eh]
	 Correlation Energy        =      -1.3992000095802659 [Eh]
	 Total Energy              =    -290.7097507854795708 [Eh]

	 ================> DF-SCS-MP2 Energies <==================
	-----------------------------------------------------------
	 SCS Same-Spin Scale       =       0.3333333333333333 [-]
	 SCS Opposite-Spin Scale   =       1.2000000000000000 [-]
	 SCS Same-Spin Energy      =      -0.1021851811427587 [Eh]
	 SCS Opposite-Spin Energy  =      -1.3111733593823878 [Eh]
	 SCS Correlation Energy    =      -1.4133585405251465 [Eh]
	 SCS Total Energy          =    -290.7239093164244537 [Eh]
	-----------------------------------------------------------

  Dipole Moment: [D]
     X:    -0.8094      Y:     1.7699      Z:     0.3826     Total:     1.9834

*** Psi4 exiting successfully. Buy a developer a beer!
