                               Psi4 1.4a3.dev225

  ==> Input File <==

--------------------------------------------------------------------------
#psi4
#
memory 32 gb

molecule  {
0 1
  N        0.6335420    -0.4278790    -0.2728430
  C       -1.7313700    -0.5561300    -0.6201830
  C       -0.4830900     0.2151130    -0.2797610
  C        1.8471620     0.3055680     0.0922530
  C       -2.6435280    -0.7283840     0.5986220
  C       -0.6406980     1.6798450     0.0649420
  C        3.0370345    -0.6127269     0.3219352
  H       -1.4212120    -1.5322710    -1.0024030
  H       -2.2765240    -0.0356590    -1.4187580
  H        2.0539910     1.0846830    -0.6562090
  H        1.7201950     0.8226000     1.0546610
  H       -3.5369580    -1.3025810     0.3373160
  H       -2.9717700     0.2361610     0.9972690
  H       -2.1143980    -1.2633090     1.3922570
  H       -0.4113830     1.8596200     1.1216760
  H       -1.6576830     2.0281380    -0.1274070
  H        0.0520880     2.2919400    -0.5220660
  H        3.9433710    -0.1376200     0.4335950
  H        2.8252920    -1.4268740     0.9259980
  H        3.1589730    -1.1612340    -0.7893850
units angstrom
no_reorient  #important for SAPT in psi4, default
symmetry c1  #important for SAPT in psi4, default
}

set PROPERTIES_ORIGIN ["COM"]
properties('MP2/aug-cc-pvtz', properties = ['dipole'])
--------------------------------------------------------------------------

    Molecular point group: c1
  Charge       = 0
  Multiplicity = 1
  Basis Set: AUG-CC-PVTZ
    Blend: AUG-CC-PVTZ
  Basis Set: (AUG-CC-PVTZ AUX)
    Blend: AUG-CC-PVTZ-JKFIT

    Orbital Energies [Eh]
    ---------------------

    Doubly Occupied:

       1A    -15.540613     2A    -11.277260     3A    -11.244135
       4A    -11.231873     5A    -11.224189     6A    -11.220352
       7A    -11.207080     8A     -1.218122     9A     -1.059804
      10A     -0.999948    11A     -0.973158    12A     -0.879065
      13A     -0.819398    14A     -0.709543    15A     -0.654108
      16A     -0.628568    17A     -0.616935    18A     -0.590741
      19A     -0.578180    20A     -0.553980    21A     -0.548102
      22A     -0.525733    23A     -0.516900    24A     -0.487900
      25A     -0.484754    26A     -0.447694    27A     -0.385431
      28A     -0.379589

  @DF-RHF Final Energy:  -289.29098208325667

   => Energetics <=

    Nuclear Repulsion Energy =            307.3651572947479167
    One-Electron Energy =                -999.3059700877801106
    Two-Electron Energy =                 402.6498307097754719
    Total Energy =                       -289.2909820832566652
  Basis Set: (AUG-CC-PVTZ AUX)
    Blend: AUG-CC-PVTZ-RI
    Molecular point group: c1

    Geometry (in Angstrom), charge = 0, multiplicity = 1:

       Center              X                  Y                   Z               Mass
    ------------   -----------------  -----------------  -----------------  -----------------
         N            0.624897951936    -0.419028233571    -0.273582302667    14.003074004430
         C           -1.740014048064    -0.547279233571    -0.620922302667    12.000000000000
         C           -0.491734048064     0.223963766429    -0.280500302667    12.000000000000
         C            1.838517951936     0.314418766429     0.091513697333    12.000000000000
         C           -2.652172048064    -0.719533233571     0.597882697333    12.000000000000
         C           -0.649342048064     1.688695766429     0.064202697333    12.000000000000
         C            3.028390451936    -0.603876133571     0.321195897333    12.000000000000
         H           -1.429856048064    -1.523420233571    -1.003142302667     1.007825032230
         H           -2.285168048064    -0.026808233571    -1.419497302667     1.007825032230
         H            2.045346951936     1.093533766429    -0.656948302667     1.007825032230
         H            1.711550951936     0.831450766429     1.053921697333     1.007825032230
         H           -3.545602048064    -1.293730233571     0.336576697333     1.007825032230
         H           -2.980414048064     0.245011766429     0.996529697333     1.007825032230
         H           -2.123042048064    -1.254458233571     1.391517697333     1.007825032230
         H           -0.420027048064     1.868470766429     1.120936697333     1.007825032230
         H           -1.666327048064     2.036988766429    -0.128146302667     1.007825032230
         H            0.043443951936     2.300790766429    -0.522805302667     1.007825032230
         H            3.934726951936    -0.128769233571     0.432855697333     1.007825032230
         H            2.816647951936    -1.418023233571     0.925258697333     1.007825032230
         H            3.150328951936    -1.152383233571    -0.790124302667     1.007825032230

  Basis Set: AUG-CC-PVTZ
    Blend: AUG-CC-PVTZ
  Basis Set: (AUG-CC-PVTZ AUX)
    Blend: AUG-CC-PVTZ-JKFIT
	 Reference Energy          =    -289.2909820832566652 [Eh]
	 Singles Energy            =      -0.0000000000000000 [Eh]
	 Same-Spin Energy          =      -0.3066839144360026 [Eh]
	 Opposite-Spin Energy      =      -1.0933221640994093 [Eh]
	 Correlation Energy        =      -1.4000060785354118 [Eh]
	 Total Energy              =    -290.6909881617920632 [Eh]

	 ================> DF-SCS-MP2 Energies <==================
	-----------------------------------------------------------
	 SCS Same-Spin Scale       =       0.3333333333333333 [-]
	 SCS Opposite-Spin Scale   =       1.2000000000000000 [-]
	 SCS Same-Spin Energy      =      -0.1022279714786675 [Eh]
	 SCS Opposite-Spin Energy  =      -1.3119865969192912 [Eh]
	 SCS Correlation Energy    =      -1.4142145683979588 [Eh]
	 SCS Total Energy          =    -290.7051966516546031 [Eh]
	-----------------------------------------------------------

  Dipole Moment: [D]
     X:    -0.8495      Y:     1.8060      Z:     0.4541     Total:     2.0469

*** Psi4 exiting successfully. Buy a developer a beer!
