                               Psi4 1.4a3.dev225

  ==> Input File <==

--------------------------------------------------------------------------
#psi4
#
memory 32 gb

molecule  {
0 1
  N        0.6335420    -0.4278790    -0.2728430
  C       -1.7313700    -0.5561300    -0.6201830
  C       -0.4830900     0.2151130    -0.2797610
  C        1.8471620     0.3055680     0.0922530
  C       -2.6435280    -0.7283840     0.5986220
  C       -0.6406980     1.6798450     0.0649420
  C        3.0183950    -0.6607510     0.1713530
  H       -1.4212120    -1.5322710    -1.0024030
  H       -2.2765240    -0.0356590    -1.4187580
  H        2.0445897     1.0492686    -0.6221879
  H        1.7201950     0.8226000     1.0546610
  H       -3.5369580    -1.3025810     0.3373160
  H       -2.9717700     0.2361610     0.9972690
  H       -2.1143980    -1.2633090     1.3922570
  H       -0.4113830     1.8596200     1.1216760
  H       -1.6576830     2.0281380    -0.1274070
  H        0.0520880     2.2919400    -0.5220660
  H        3.9433710    -0.1376200     0.4335950
  H        2.8252920    -1.4268740     0.9259980
  H        3.1589730    -1.1612340    -0.7893850
units angstrom
no_reorient  #important for SAPT in psi4, default
symmetry c1  #important for SAPT in psi4, default
}

set PROPERTIES_ORIGIN ["COM"]
properties('MP2/aug-cc-pvtz', properties = ['dipole'])
--------------------------------------------------------------------------

    Molecular point group: c1
  Charge       = 0
  Multiplicity = 1
  Basis Set: AUG-CC-PVTZ
    Blend: AUG-CC-PVTZ
  Basis Set: (AUG-CC-PVTZ AUX)
    Blend: AUG-CC-PVTZ-JKFIT

    Orbital Energies [Eh]
    ---------------------

    Doubly Occupied:

       1A    -15.538147     2A    -11.275313     3A    -11.235729
       4A    -11.231697     5A    -11.223343     6A    -11.219726
       7A    -11.201856     8A     -1.217343     9A     -1.059884
      10A     -0.998835    11A     -0.971969    12A     -0.877487
      13A     -0.820345    14A     -0.710178    15A     -0.652113
      16A     -0.629786    17A     -0.617386    18A     -0.589919
      19A     -0.576219    20A     -0.551936    21A     -0.535393
      22A     -0.515073    23A     -0.511994    24A     -0.494988
      25A     -0.485935    26A     -0.476950    27A     -0.385279
      28A     -0.381186

  @DF-RHF Final Energy:  -289.31324326397674

   => Energetics <=

    Nuclear Repulsion Energy =            307.8362183406223380
    One-Electron Energy =               -1000.3269102186586679
    Two-Electron Energy =                 403.1774486140596423
    Total Energy =                       -289.3132432639767444
  Basis Set: (AUG-CC-PVTZ AUX)
    Blend: AUG-CC-PVTZ-RI
    Molecular point group: c1

    Geometry (in Angstrom), charge = 0, multiplicity = 1:

       Center              X                  Y                   Z               Mass
    ------------   -----------------  -----------------  -----------------  -----------------
         N            0.627250500620    -0.412853146972    -0.255695186260    14.003074004430
         C           -1.737661499380    -0.541104146972    -0.603035186260    12.000000000000
         C           -0.489381499380     0.230138853028    -0.262613186260    12.000000000000
         C            1.840870500620     0.320593853028     0.109400813740    12.000000000000
         C           -2.649819499380    -0.713358146972     0.615769813740    12.000000000000
         C           -0.646989499380     1.694870853028     0.082089813740    12.000000000000
         C            3.012103500620    -0.645725146972     0.188500813740    12.000000000000
         H           -1.427503499380    -1.517245146972    -0.985255186260     1.007825032230
         H           -2.282815499380    -0.020633146972    -1.401610186260     1.007825032230
         H            2.038298200620     1.064294453028    -0.605040086260     1.007825032230
         H            1.713903500620     0.837625853028     1.071808813740     1.007825032230
         H           -3.543249499380    -1.287555146972     0.354463813740     1.007825032230
         H           -2.978061499380     0.251186853028     1.014416813740     1.007825032230
         H           -2.120689499380    -1.248283146972     1.409404813740     1.007825032230
         H           -0.417674499380     1.874645853028     1.138823813740     1.007825032230
         H           -1.663974499380     2.043163853028    -0.110259186260     1.007825032230
         H            0.045796500620     2.306965853028    -0.504918186260     1.007825032230
         H            3.937079500620    -0.122594146972     0.450742813740     1.007825032230
         H            2.819000500620    -1.411848146972     0.943145813740     1.007825032230
         H            3.152681500620    -1.146208146972    -0.772237186260     1.007825032230

  Basis Set: AUG-CC-PVTZ
    Blend: AUG-CC-PVTZ
  Basis Set: (AUG-CC-PVTZ AUX)
    Blend: AUG-CC-PVTZ-JKFIT
	 Reference Energy          =    -289.3132432639767444 [Eh]
	 Singles Energy            =      -0.0000000000000000 [Eh]
	 Same-Spin Energy          =      -0.3062840579044759 [Eh]
	 Opposite-Spin Energy      =      -1.0919918776843238 [Eh]
	 Correlation Energy        =      -1.3982759355887997 [Eh]
	 Total Energy              =    -290.7115191995655437 [Eh]

	 ================> DF-SCS-MP2 Energies <==================
	-----------------------------------------------------------
	 SCS Same-Spin Scale       =       0.3333333333333333 [-]
	 SCS Opposite-Spin Scale   =       1.2000000000000000 [-]
	 SCS Same-Spin Energy      =      -0.1020946859681586 [Eh]
	 SCS Opposite-Spin Energy  =      -1.3103902532211886 [Eh]
	 SCS Correlation Energy    =      -1.4124849391893473 [Eh]
	 SCS Total Energy          =    -290.7257282031661134 [Eh]
	-----------------------------------------------------------

  Dipole Moment: [D]
     X:    -0.8103      Y:     1.7899      Z:     0.3643     Total:     1.9983

*** Psi4 exiting successfully. Buy a developer a beer!
