                               Psi4 1.4a3.dev225

  ==> Input File <==

--------------------------------------------------------------------------
#psi4
#
memory 32 gb

molecule  {
0 1
  N        0.6335420    -0.4278790    -0.2728430
  C       -1.7313700    -0.5561300    -0.6201830
  C       -0.4830900     0.2151130    -0.2797610
  C        1.8471620     0.3055680     0.0922530
  C       -2.6435280    -0.7283840     0.5986220
  C       -0.6406980     1.6798450     0.0649420
  C        3.0183950    -0.6607510     0.1713530
  H       -1.4212120    -1.5322710    -1.0024030
  H       -2.2765240    -0.0356590    -1.4187580
  H        2.0539910     1.0846830    -0.6562090
  H        1.7201950     0.8226000     1.0546610
  H       -3.5369580    -1.3025810     0.3373160
  H       -2.9717700     0.2361610     0.9972690
  H       -2.1143980    -1.2633090     1.3922570
  H       -0.4113830     1.8596200     1.1216760
  H       -1.6576830     2.0281380    -0.1274070
  H        0.0520880     2.2919400    -0.5220660
  H        3.9433710    -0.1376200     0.4335950
  H        2.7899438    -1.5671156     1.0641385
  H        3.1589730    -1.1612340    -0.7893850
units angstrom
no_reorient  #important for SAPT in psi4, default
symmetry c1  #important for SAPT in psi4, default
}

set PROPERTIES_ORIGIN ["COM"]
properties('MP2/aug-cc-pvtz', properties = ['dipole'])
--------------------------------------------------------------------------

    Molecular point group: c1
  Charge       = 0
  Multiplicity = 1
  Basis Set: AUG-CC-PVTZ
    Blend: AUG-CC-PVTZ
  Basis Set: (AUG-CC-PVTZ AUX)
    Blend: AUG-CC-PVTZ-JKFIT

    Orbital Energies [Eh]
    ---------------------

    Doubly Occupied:

       1A    -15.539357     2A    -11.276314     3A    -11.244968
       4A    -11.232293     5A    -11.225853     6A    -11.223900
       7A    -11.220053     8A     -1.218102     9A     -1.059212
      10A     -0.995782    11A     -0.970700    12A     -0.874749
      13A     -0.811054    14A     -0.709033    15A     -0.652650
      16A     -0.627071    17A     -0.612407    18A     -0.591064
      19A     -0.572964    20A     -0.551548    21A     -0.537073
      22A     -0.515592    23A     -0.510225    24A     -0.486691
      25A     -0.479349    26A     -0.464819    27A     -0.386195
      28A     -0.381202

  @DF-RHF Final Energy:  -289.29427077495325

   => Energetics <=

    Nuclear Repulsion Energy =            306.9003346451519860
    One-Electron Energy =                -998.4487683199065486
    Two-Electron Energy =                 402.2541628998012584
    Total Energy =                       -289.2942707749532474
  Basis Set: (AUG-CC-PVTZ AUX)
    Blend: AUG-CC-PVTZ-RI
    Molecular point group: c1

    Geometry (in Angstrom), charge = 0, multiplicity = 1:

       Center              X                  Y                   Z               Mass
    ------------   -----------------  -----------------  -----------------  -----------------
         N            0.627514362063    -0.411787129212    -0.256754006198    14.003074004430
         C           -1.737397637937    -0.540038129212    -0.604094006198    12.000000000000
         C           -0.489117637937     0.231204870788    -0.263672006198    12.000000000000
         C            1.841134362063     0.321659870788     0.108341993802    12.000000000000
         C           -2.649555637937    -0.712292129212     0.614710993802    12.000000000000
         C           -0.646725637937     1.695936870788     0.081030993802    12.000000000000
         C            3.012367362063    -0.644659129212     0.187441993802    12.000000000000
         H           -1.427239637937    -1.516179129212    -0.986314006198     1.007825032230
         H           -2.282551637937    -0.019567129212    -1.402669006198     1.007825032230
         H            2.047963362063     1.100774870788    -0.640120006198     1.007825032230
         H            1.714167362063     0.838691870788     1.070749993802     1.007825032230
         H           -3.542985637937    -1.286489129212     0.353404993802     1.007825032230
         H           -2.977797637937     0.252252870788     1.013357993802     1.007825032230
         H           -2.120425637937    -1.247217129212     1.408345993802     1.007825032230
         H           -0.417410637937     1.875711870788     1.137764993802     1.007825032230
         H           -1.663710637937     2.044229870788    -0.111318006198     1.007825032230
         H            0.046060362063     2.308031870788    -0.505977006198     1.007825032230
         H            3.937343362063    -0.121528129212     0.449683993802     1.007825032230
         H            2.783916162063    -1.551023729212     1.080227493802     1.007825032230
         H            3.152945362063    -1.145142129212    -0.773296006198     1.007825032230

  Basis Set: AUG-CC-PVTZ
    Blend: AUG-CC-PVTZ
  Basis Set: (AUG-CC-PVTZ AUX)
    Blend: AUG-CC-PVTZ-JKFIT
	 Reference Energy          =    -289.2942707749532474 [Eh]
	 Singles Energy            =      -0.0000000000000000 [Eh]
	 Same-Spin Energy          =      -0.3062119516666609 [Eh]
	 Opposite-Spin Energy      =      -1.0936919579883737 [Eh]
	 Correlation Energy        =      -1.3999039096550345 [Eh]
	 Total Energy              =    -290.6941746846082992 [Eh]

	 ================> DF-SCS-MP2 Energies <==================
	-----------------------------------------------------------
	 SCS Same-Spin Scale       =       0.3333333333333333 [-]
	 SCS Opposite-Spin Scale   =       1.2000000000000000 [-]
	 SCS Same-Spin Energy      =      -0.1020706505555536 [Eh]
	 SCS Opposite-Spin Energy  =      -1.3124303495860483 [Eh]
	 SCS Correlation Energy    =      -1.4145010001416018 [Eh]
	 SCS Total Energy          =    -290.7087717750948741 [Eh]
	-----------------------------------------------------------

  Dipole Moment: [D]
     X:    -0.8524      Y:     1.8705      Z:     0.2827     Total:     2.0749

*** Psi4 exiting successfully. Buy a developer a beer!
