                               Psi4 1.4a3.dev225

  ==> Input File <==

--------------------------------------------------------------------------
#psi4
#
memory 32 gb

molecule  {
0 1
  N        0.6335420    -0.4278790    -0.2728430
  C       -1.6926995    -0.5818865    -0.5937088
  C       -0.4830900     0.2151130    -0.2797610
  C        1.8471620     0.3055680     0.0922530
  C       -2.6435280    -0.7283840     0.5986220
  C       -0.6406980     1.6798450     0.0649420
  C        3.0183950    -0.6607510     0.1713530
  H       -1.4212120    -1.5322710    -1.0024030
  H       -2.2765240    -0.0356590    -1.4187580
  H        2.0539910     1.0846830    -0.6562090
  H        1.7201950     0.8226000     1.0546610
  H       -3.5369580    -1.3025810     0.3373160
  H       -2.9717700     0.2361610     0.9972690
  H       -2.1143980    -1.2633090     1.3922570
  H       -0.4113830     1.8596200     1.1216760
  H       -1.6576830     2.0281380    -0.1274070
  H        0.0520880     2.2919400    -0.5220660
  H        3.9433710    -0.1376200     0.4335950
  H        2.8252920    -1.4268740     0.9259980
  H        3.1589730    -1.1612340    -0.7893850
units angstrom
no_reorient  #important for SAPT in psi4, default
symmetry c1  #important for SAPT in psi4, default
}

set PROPERTIES_ORIGIN ["COM"]
properties('MP2/aug-cc-pvtz', properties = ['dipole'])
--------------------------------------------------------------------------

    Molecular point group: c1
  Charge       = 0
  Multiplicity = 1
  Basis Set: AUG-CC-PVTZ
    Blend: AUG-CC-PVTZ
  Basis Set: (AUG-CC-PVTZ AUX)
    Blend: AUG-CC-PVTZ-JKFIT

    Orbital Energies [Eh]
    ---------------------

    Doubly Occupied:

       1A    -15.538329     2A    -11.274752     3A    -11.241615
       4A    -11.232684     5A    -11.224836     6A    -11.220286
       7A    -11.202289     8A     -1.218959     9A     -1.060622
      10A     -0.997917    11A     -0.972529    12A     -0.879761
      13A     -0.815489    14A     -0.710002    15A     -0.654368
      16A     -0.627073    17A     -0.613980    18A     -0.589856
      19A     -0.575327    20A     -0.552998    21A     -0.538401
      22A     -0.513767    23A     -0.510504    24A     -0.492964
      25A     -0.486716    26A     -0.475977    27A     -0.386951
      28A     -0.378766

  @DF-RHF Final Energy:  -289.31087684384875

   => Energetics <=

    Nuclear Repulsion Energy =            308.0119297715598350
    One-Electron Energy =               -1000.6701797098652378
    Two-Electron Energy =                 403.3473730944566569
    Total Energy =                       -289.3108768438487459
  Basis Set: (AUG-CC-PVTZ AUX)
    Blend: AUG-CC-PVTZ-RI
    Molecular point group: c1

    Geometry (in Angstrom), charge = 0, multiplicity = 1:

       Center              X                  Y                   Z               Mass
    ------------   -----------------  -----------------  -----------------  -----------------
         N            0.622472519451    -0.410094587520    -0.258554816524    14.003074004430
         C           -1.703768980549    -0.564102087520    -0.579420616524    12.000000000000
         C           -0.494159480549     0.232897412480    -0.265472816524    12.000000000000
         C            1.836092519451     0.323352412480     0.106541183476    12.000000000000
         C           -2.654597480549    -0.710599587520     0.612910183476    12.000000000000
         C           -0.651767480549     1.697629412480     0.079230183476    12.000000000000
         C            3.007325519451    -0.642966587520     0.185641183476    12.000000000000
         H           -1.432281480549    -1.514486587520    -0.988114816524     1.007825032230
         H           -2.287593480549    -0.017874587520    -1.404469816524     1.007825032230
         H            2.042921519451     1.102467412480    -0.641920816524     1.007825032230
         H            1.709125519451     0.840384412480     1.068949183476     1.007825032230
         H           -3.548027480549    -1.284796587520     0.351604183476     1.007825032230
         H           -2.982839480549     0.253945412480     1.011557183476     1.007825032230
         H           -2.125467480549    -1.245524587520     1.406545183476     1.007825032230
         H           -0.422452480549     1.877404412480     1.135964183476     1.007825032230
         H           -1.668752480549     2.045922412480    -0.113118816524     1.007825032230
         H            0.041018519451     2.309724412480    -0.507777816524     1.007825032230
         H            3.932301519451    -0.119835587520     0.447883183476     1.007825032230
         H            2.814222519451    -1.409089587520     0.940286183476     1.007825032230
         H            3.147903519451    -1.143449587520    -0.775096816524     1.007825032230

  Basis Set: AUG-CC-PVTZ
    Blend: AUG-CC-PVTZ
  Basis Set: (AUG-CC-PVTZ AUX)
    Blend: AUG-CC-PVTZ-JKFIT
	 Reference Energy          =    -289.3108768438487459 [Eh]
	 Singles Energy            =      -0.0000000000000000 [Eh]
	 Same-Spin Energy          =      -0.3065450188618592 [Eh]
	 Opposite-Spin Energy      =      -1.0925657543163236 [Eh]
	 Correlation Energy        =      -1.3991107731781829 [Eh]
	 Total Energy              =    -290.7099876170269113 [Eh]

	 ================> DF-SCS-MP2 Energies <==================
	-----------------------------------------------------------
	 SCS Same-Spin Scale       =       0.3333333333333333 [-]
	 SCS Opposite-Spin Scale   =       1.2000000000000000 [-]
	 SCS Same-Spin Energy      =      -0.1021816729539531 [Eh]
	 SCS Opposite-Spin Energy  =      -1.3110789051795884 [Eh]
	 SCS Correlation Energy    =      -1.4132605781335414 [Eh]
	 SCS Total Energy          =    -290.7241374219822774 [Eh]
	-----------------------------------------------------------

  Dipole Moment: [D]
     X:    -0.8298      Y:     1.7436      Z:     0.4022     Total:     1.9725

*** Psi4 exiting successfully. Buy a developer a beer!
