                               Psi4 1.4a3.dev225

  ==> Input File <==

--------------------------------------------------------------------------
#psi4
#
memory 32 gb

molecule  {
0 1
  N        0.6335420    -0.4278790    -0.2728430
  C       -1.7313700    -0.5561300    -0.6201830
  C       -0.4830900     0.2151130    -0.2797610
  C        1.8471620     0.3055680     0.0922530
  C       -2.6435280    -0.7283840     0.5986220
  C       -0.6406980     1.6798450     0.0649420
  C        3.0183950    -0.6607510     0.1713530
  H       -1.4212120    -1.5322710    -1.0024030
  H       -2.2765240    -0.0356590    -1.4187580
  H        2.0539910     1.0846830    -0.6562090
  H        1.7086510     0.8696093     1.1421645
  H       -3.5369580    -1.3025810     0.3373160
  H       -2.9717700     0.2361610     0.9972690
  H       -2.1143980    -1.2633090     1.3922570
  H       -0.4113830     1.8596200     1.1216760
  H       -1.6576830     2.0281380    -0.1274070
  H        0.0520880     2.2919400    -0.5220660
  H        3.9433710    -0.1376200     0.4335950
  H        2.8252920    -1.4268740     0.9259980
  H        3.1589730    -1.1612340    -0.7893850
units angstrom
no_reorient  #important for SAPT in psi4, default
symmetry c1  #important for SAPT in psi4, default
}

set PROPERTIES_ORIGIN ["COM"]
properties('MP2/aug-cc-pvtz', properties = ['dipole'])
--------------------------------------------------------------------------

    Molecular point group: c1
  Charge       = 0
  Multiplicity = 1
  Basis Set: AUG-CC-PVTZ
    Blend: AUG-CC-PVTZ
  Basis Set: (AUG-CC-PVTZ AUX)
    Blend: AUG-CC-PVTZ-JKFIT

    Orbital Energies [Eh]
    ---------------------

    Doubly Occupied:

       1A    -15.540081     2A    -11.276795     3A    -11.254097
       4A    -11.231552     5A    -11.224116     6A    -11.220238
       7A    -11.203534     8A     -1.217753     9A     -1.058820
      10A     -0.997499    11A     -0.971440    12A     -0.877316
      13A     -0.812571    14A     -0.705665    15A     -0.651063
      16A     -0.624883    17A     -0.613592    18A     -0.588674
      19A     -0.574396    20A     -0.552172    21A     -0.536205
      22A     -0.515714    23A     -0.510247    24A     -0.489197
      25A     -0.486474    26A     -0.476937    27A     -0.385724
      28A     -0.379223

  @DF-RHF Final Energy:  -289.30759426406013

   => Energetics <=

    Nuclear Repulsion Energy =            307.1871593971818015
    One-Electron Energy =                -999.0375513166718520
    Two-Electron Energy =                 402.5427976554298652
    Total Energy =                       -289.3075942640601284
  Basis Set: (AUG-CC-PVTZ AUX)
    Blend: AUG-CC-PVTZ-RI
    Molecular point group: c1

    Geometry (in Angstrom), charge = 0, multiplicity = 1:

       Center              X                  Y                   Z               Mass
    ------------   -----------------  -----------------  -----------------  -----------------
         N            0.627272290349    -0.413691337136    -0.256239064072    14.003074004430
         C           -1.737639709651    -0.541942337136    -0.603579064072    12.000000000000
         C           -0.489359709651     0.229300662864    -0.263157064072    12.000000000000
         C            1.840892290349     0.319755662864     0.108856935928    12.000000000000
         C           -2.649797709651    -0.714196337136     0.615225935928    12.000000000000
         C           -0.646967709651     1.694032662864     0.081545935928    12.000000000000
         C            3.012125290349    -0.646563337136     0.187956935928    12.000000000000
         H           -1.427481709651    -1.518083337136    -0.985799064072     1.007825032230
         H           -2.282793709651    -0.021471337136    -1.402154064072     1.007825032230
         H            2.047721290349     1.098870662864    -0.639605064072     1.007825032230
         H            1.702381290349     0.883796962864     1.158768435928     1.007825032230
         H           -3.543227709651    -1.288393337136     0.353919935928     1.007825032230
         H           -2.978039709651     0.250348662864     1.013872935928     1.007825032230
         H           -2.120667709651    -1.249121337136     1.408860935928     1.007825032230
         H           -0.417652709651     1.873807662864     1.138279935928     1.007825032230
         H           -1.663952709651     2.042325662864    -0.110803064072     1.007825032230
         H            0.045818290349     2.306127662864    -0.505462064072     1.007825032230
         H            3.937101290349    -0.123432337136     0.450198935928     1.007825032230
         H            2.819022290349    -1.412686337136     0.942601935928     1.007825032230
         H            3.152703290349    -1.147046337136    -0.772781064072     1.007825032230

  Basis Set: AUG-CC-PVTZ
    Blend: AUG-CC-PVTZ
  Basis Set: (AUG-CC-PVTZ AUX)
    Blend: AUG-CC-PVTZ-JKFIT
	 Reference Energy          =    -289.3075942640601284 [Eh]
	 Singles Energy            =      -0.0000000000000000 [Eh]
	 Same-Spin Energy          =      -0.3065088382043017 [Eh]
	 Opposite-Spin Energy      =      -1.0930581828117680 [Eh]
	 Correlation Energy        =      -1.3995670210160698 [Eh]
	 Total Energy              =    -290.7071612850762108 [Eh]

	 ================> DF-SCS-MP2 Energies <==================
	-----------------------------------------------------------
	 SCS Same-Spin Scale       =       0.3333333333333333 [-]
	 SCS Opposite-Spin Scale   =       1.2000000000000000 [-]
	 SCS Same-Spin Energy      =      -0.1021696127347672 [Eh]
	 SCS Opposite-Spin Energy  =      -1.3116698193741216 [Eh]
	 SCS Correlation Energy    =      -1.4138394321088890 [Eh]
	 SCS Total Energy          =    -290.7214336961690151 [Eh]
	-----------------------------------------------------------

  Dipole Moment: [D]
     X:    -0.8363      Y:     1.7034      Z:     0.3103     Total:     1.9228

*** Psi4 exiting successfully. Buy a developer a beer!
