                               Psi4 1.4a3.dev225

  ==> Input File <==

--------------------------------------------------------------------------
#psi4
#
memory 32 gb

molecule  {
0 1
  N        0.6335420    -0.4278790    -0.2728430
  C       -1.7313700    -0.5561300    -0.6201830
  C       -0.4830900     0.2151130    -0.2797610
  C        1.8471620     0.3055680     0.0922530
  C       -2.6435280    -0.7283840     0.5986220
  C       -0.6406980     1.6798450     0.0649420
  C        3.0029888    -0.6480402     0.1703125
  H       -1.4212120    -1.5322710    -1.0024030
  H       -2.2765240    -0.0356590    -1.4187580
  H        2.0539910     1.0846830    -0.6562090
  H        1.7201950     0.8226000     1.0546610
  H       -3.5369580    -1.3025810     0.3373160
  H       -2.9717700     0.2361610     0.9972690
  H       -2.1143980    -1.2633090     1.3922570
  H       -0.4113830     1.8596200     1.1216760
  H       -1.6576830     2.0281380    -0.1274070
  H        0.0520880     2.2919400    -0.5220660
  H        3.9433710    -0.1376200     0.4335950
  H        2.8252920    -1.4268740     0.9259980
  H        3.1589730    -1.1612340    -0.7893850
units angstrom
no_reorient  #important for SAPT in psi4, default
symmetry c1  #important for SAPT in psi4, default
}

set PROPERTIES_ORIGIN ["COM"]
properties('MP2/aug-cc-pvtz', properties = ['dipole'])
--------------------------------------------------------------------------

    Molecular point group: c1
  Charge       = 0
  Multiplicity = 1
  Basis Set: AUG-CC-PVTZ
    Blend: AUG-CC-PVTZ
  Basis Set: (AUG-CC-PVTZ AUX)
    Blend: AUG-CC-PVTZ-JKFIT

    Orbital Energies [Eh]
    ---------------------

    Doubly Occupied:

       1A    -15.538670     2A    -11.275815     3A    -11.241186
       4A    -11.231739     5A    -11.223627     6A    -11.219934
       7A    -11.203216     8A     -1.217782     9A     -1.060450
      10A     -0.999921    11A     -0.972273    12A     -0.876855
      13A     -0.816040    14A     -0.709160    15A     -0.652198
      16A     -0.627986    17A     -0.616520    18A     -0.590251
      19A     -0.575596    20A     -0.552286    21A     -0.536047
      22A     -0.516240    23A     -0.509358    24A     -0.489506
      25A     -0.485889    26A     -0.479624    27A     -0.385769
      28A     -0.380658

  @DF-RHF Final Energy:  -289.31350454841112

   => Energetics <=

    Nuclear Repulsion Energy =            307.8830337182894255
    One-Electron Energy =               -1000.4238854107364887
    Two-Electron Energy =                 403.2273471440359458
    Total Energy =                       -289.3135045484111174
  Basis Set: (AUG-CC-PVTZ AUX)
    Blend: AUG-CC-PVTZ-RI
    Molecular point group: c1

    Geometry (in Angstrom), charge = 0, multiplicity = 1:

       Center              X                  Y                   Z               Mass
    ------------   -----------------  -----------------  -----------------  -----------------
         N            0.629020339574    -0.414752359925    -0.255223228126    14.003074004430
         C           -1.735891660426    -0.543003359925    -0.602563228126    12.000000000000
         C           -0.487611660426     0.228239640075    -0.262141228126    12.000000000000
         C            1.842640339574     0.318694640075     0.109872771874    12.000000000000
         C           -2.648049660426    -0.715257359925     0.616241771874    12.000000000000
         C           -0.645219660426     1.692971640075     0.082561771874    12.000000000000
         C            2.998467139574    -0.634913559925     0.187932271874    12.000000000000
         H           -1.425733660426    -1.519144359925    -0.984783228126     1.007825032230
         H           -2.281045660426    -0.022532359925    -1.401138228126     1.007825032230
         H            2.049469339574     1.097809640075    -0.638589228126     1.007825032230
         H            1.715673339574     0.835726640075     1.072280771874     1.007825032230
         H           -3.541479660426    -1.289454359925     0.354935771874     1.007825032230
         H           -2.976291660426     0.249287640075     1.014888771874     1.007825032230
         H           -2.118919660426    -1.250182359925     1.409876771874     1.007825032230
         H           -0.415904660426     1.872746640075     1.139295771874     1.007825032230
         H           -1.662204660426     2.041264640075    -0.109787228126     1.007825032230
         H            0.047566339574     2.305066640075    -0.504446228126     1.007825032230
         H            3.938849339574    -0.124493359925     0.451214771874     1.007825032230
         H            2.820770339574    -1.413747359925     0.943617771874     1.007825032230
         H            3.154451339574    -1.148107359925    -0.771765228126     1.007825032230

  Basis Set: AUG-CC-PVTZ
    Blend: AUG-CC-PVTZ
  Basis Set: (AUG-CC-PVTZ AUX)
    Blend: AUG-CC-PVTZ-JKFIT
	 Reference Energy          =    -289.3135045484111174 [Eh]
	 Singles Energy            =      -0.0000000000000000 [Eh]
	 Same-Spin Energy          =      -0.3064617631518807 [Eh]
	 Opposite-Spin Energy      =      -1.0923836725753790 [Eh]
	 Correlation Energy        =      -1.3988454357272597 [Eh]
	 Total Energy              =    -290.7123499841383705 [Eh]

	 ================> DF-SCS-MP2 Energies <==================
	-----------------------------------------------------------
	 SCS Same-Spin Scale       =       0.3333333333333333 [-]
	 SCS Opposite-Spin Scale   =       1.2000000000000000 [-]
	 SCS Same-Spin Energy      =      -0.1021539210506269 [Eh]
	 SCS Opposite-Spin Energy  =      -1.3108604070904548 [Eh]
	 SCS Correlation Energy    =      -1.4130143281410816 [Eh]
	 SCS Total Energy          =    -290.7265188765521771 [Eh]
	-----------------------------------------------------------

  Dipole Moment: [D]
     X:    -0.8216      Y:     1.7596      Z:     0.3807     Total:     1.9789

*** Psi4 exiting successfully. Buy a developer a beer!
