                               Psi4 1.4a3.dev225

  ==> Input File <==

--------------------------------------------------------------------------
#psi4
#
memory 32 gb

molecule  {
0 1
  N        0.6335420    -0.4278790    -0.2728430
  C       -1.7313700    -0.5561300    -0.6201830
  C       -0.4830900     0.2151130    -0.2797610
  C        1.8471620     0.3055680     0.0922530
  C       -2.6435280    -0.7283840     0.5986220
  C       -0.6406980     1.6798450     0.0649420
  C        3.0183950    -0.6607510     0.1713530
  H       -1.4212120    -1.5322710    -1.0024030
  H       -2.2765240    -0.0356590    -1.4187580
  H        2.0539910     1.0846830    -0.6562090
  H        1.7201950     0.8226000     1.0546610
  H       -3.4552699    -1.2500810     0.3612077
  H       -2.9717700     0.2361610     0.9972690
  H       -2.1143980    -1.2633090     1.3922570
  H       -0.4113830     1.8596200     1.1216760
  H       -1.6576830     2.0281380    -0.1274070
  H        0.0520880     2.2919400    -0.5220660
  H        3.9433710    -0.1376200     0.4335950
  H        2.8252920    -1.4268740     0.9259980
  H        3.1589730    -1.1612340    -0.7893850
units angstrom
no_reorient  #important for SAPT in psi4, default
symmetry c1  #important for SAPT in psi4, default
}

set PROPERTIES_ORIGIN ["COM"]
properties('MP2/aug-cc-pvtz', properties = ['dipole'])
--------------------------------------------------------------------------

    Molecular point group: c1
  Charge       = 0
  Multiplicity = 1
  Basis Set: AUG-CC-PVTZ
    Blend: AUG-CC-PVTZ
  Basis Set: (AUG-CC-PVTZ AUX)
    Blend: AUG-CC-PVTZ-JKFIT

    Orbital Energies [Eh]
    ---------------------

    Doubly Occupied:

       1A    -15.537897     2A    -11.275125     3A    -11.241556
       4A    -11.231187     5A    -11.222782     6A    -11.207411
       7A    -11.202007     8A     -1.216703     9A     -1.060773
      10A     -1.001124    11A     -0.971493    12A     -0.883889
      13A     -0.818314    14A     -0.708157    15A     -0.652170
      16A     -0.629408    17A     -0.616698    18A     -0.589545
      19A     -0.576555    20A     -0.562580    21A     -0.536504
      22A     -0.514967    23A     -0.510867    24A     -0.492688
      25A     -0.485461    26A     -0.479700    27A     -0.384928
      28A     -0.380029

  @DF-RHF Final Energy:  -289.30798932665226

   => Energetics <=

    Nuclear Repulsion Energy =            308.0710194932162267
    One-Electron Energy =               -1000.7769781541977636
    Two-Electron Energy =                 403.3979693343292752
    Total Energy =                       -289.3079893266522618
  Basis Set: (AUG-CC-PVTZ AUX)
    Blend: AUG-CC-PVTZ-RI
    Molecular point group: c1

    Geometry (in Angstrom), charge = 0, multiplicity = 1:

       Center              X                  Y                   Z               Mass
    ------------   -----------------  -----------------  -----------------  -----------------
         N            0.626324186476    -0.413747173634    -0.255592177496    14.003074004430
         C           -1.738587813524    -0.541998173634    -0.602932177496    12.000000000000
         C           -0.490307813524     0.229244826366    -0.262510177496    12.000000000000
         C            1.839944186476     0.319699826366     0.109503822504    12.000000000000
         C           -2.650745813524    -0.714252173634     0.615872822504    12.000000000000
         C           -0.647915813524     1.693976826366     0.082192822504    12.000000000000
         C            3.011177186476    -0.646619173634     0.188603822504    12.000000000000
         H           -1.428429813524    -1.518139173634    -0.985152177496     1.007825032230
         H           -2.283741813524    -0.021527173634    -1.401507177496     1.007825032230
         H            2.046773186476     1.098814826366    -0.638958177496     1.007825032230
         H            1.712977186476     0.836731826366     1.071911822504     1.007825032230
         H           -3.462487713524    -1.235949173634     0.378458522504     1.007825032230
         H           -2.978987813524     0.250292826366     1.014519822504     1.007825032230
         H           -2.121615813524    -1.249177173634     1.409507822504     1.007825032230
         H           -0.418600813524     1.873751826366     1.138926822504     1.007825032230
         H           -1.664900813524     2.042269826366    -0.110156177496     1.007825032230
         H            0.044870186476     2.306071826366    -0.504815177496     1.007825032230
         H            3.936153186476    -0.123488173634     0.450845822504     1.007825032230
         H            2.818074186476    -1.412742173634     0.943248822504     1.007825032230
         H            3.151755186476    -1.147102173634    -0.772134177496     1.007825032230

  Basis Set: AUG-CC-PVTZ
    Blend: AUG-CC-PVTZ
  Basis Set: (AUG-CC-PVTZ AUX)
    Blend: AUG-CC-PVTZ-JKFIT
	 Reference Energy          =    -289.3079893266522618 [Eh]
	 Singles Energy            =      -0.0000000000000000 [Eh]
	 Same-Spin Energy          =      -0.3064027525262106 [Eh]
	 Opposite-Spin Energy      =      -1.0918266287735259 [Eh]
	 Correlation Energy        =      -1.3982293812997364 [Eh]
	 Total Energy              =    -290.7062187079520186 [Eh]

	 ================> DF-SCS-MP2 Energies <==================
	-----------------------------------------------------------
	 SCS Same-Spin Scale       =       0.3333333333333333 [-]
	 SCS Opposite-Spin Scale   =       1.2000000000000000 [-]
	 SCS Same-Spin Energy      =      -0.1021342508420702 [Eh]
	 SCS Opposite-Spin Energy  =      -1.3101919545282310 [Eh]
	 SCS Correlation Energy    =      -1.4123262053703012 [Eh]
	 SCS Total Energy          =    -290.7203155320225392 [Eh]
	-----------------------------------------------------------

  Dipole Moment: [D]
     X:    -0.8872      Y:     1.7306      Z:     0.3827     Total:     1.9821

*** Psi4 exiting successfully. Buy a developer a beer!
