                               Psi4 1.4a3.dev225

  ==> Input File <==

--------------------------------------------------------------------------
#psi4
#
memory 32 gb

molecule  {
0 1
  N        0.6335420    -0.4278790    -0.2728430
  C       -1.7313700    -0.5561300    -0.6201830
  C       -0.4830900     0.2151130    -0.2797610
  C        1.8471620     0.3055680     0.0922530
  C       -2.6554356    -0.7306327     0.6145327
  C       -0.6406980     1.6798450     0.0649420
  C        3.0183950    -0.6607510     0.1713530
  H       -1.4212120    -1.5322710    -1.0024030
  H       -2.2765240    -0.0356590    -1.4187580
  H        2.0539910     1.0846830    -0.6562090
  H        1.7201950     0.8226000     1.0546610
  H       -3.5369580    -1.3025810     0.3373160
  H       -2.9717700     0.2361610     0.9972690
  H       -2.1143980    -1.2633090     1.3922570
  H       -0.4113830     1.8596200     1.1216760
  H       -1.6576830     2.0281380    -0.1274070
  H        0.0520880     2.2919400    -0.5220660
  H        3.9433710    -0.1376200     0.4335950
  H        2.8252920    -1.4268740     0.9259980
  H        3.1589730    -1.1612340    -0.7893850
units angstrom
no_reorient  #important for SAPT in psi4, default
symmetry c1  #important for SAPT in psi4, default
}

set PROPERTIES_ORIGIN ["COM"]
properties('MP2/aug-cc-pvtz', properties = ['dipole'])
--------------------------------------------------------------------------

    Molecular point group: c1
  Charge       = 0
  Multiplicity = 1
  Basis Set: AUG-CC-PVTZ
    Blend: AUG-CC-PVTZ
  Basis Set: (AUG-CC-PVTZ AUX)
    Blend: AUG-CC-PVTZ-JKFIT

    Orbital Energies [Eh]
    ---------------------

    Doubly Occupied:

       1A    -15.538498     2A    -11.275626     3A    -11.241953
       4A    -11.231619     5A    -11.224289     6A    -11.219194
       7A    -11.202296     8A     -1.217107     9A     -1.057348
      10A     -0.997007    11A     -0.971618    12A     -0.878680
      13A     -0.817323    14A     -0.708218    15A     -0.651362
      16A     -0.627176    17A     -0.615618    18A     -0.590336
      19A     -0.575461    20A     -0.553467    21A     -0.534782
      22A     -0.512932    23A     -0.511059    24A     -0.492990
      25A     -0.488300    26A     -0.478148    27A     -0.385262
      28A     -0.379945

  @DF-RHF Final Energy:  -289.31389916916925

   => Energetics <=

    Nuclear Repulsion Energy =            307.3376515318747124
    One-Electron Energy =                -999.3478653020879392
    Two-Electron Energy =                 402.6963146010439800
    Total Energy =                       -289.3138991691692468
  Basis Set: (AUG-CC-PVTZ AUX)
    Blend: AUG-CC-PVTZ-RI
    Molecular point group: c1

    Geometry (in Angstrom), charge = 0, multiplicity = 1:

       Center              X                  Y                   Z               Mass
    ------------   -----------------  -----------------  -----------------  -----------------
         N            0.628596715287    -0.412941004662    -0.257275746280    14.003074004430
         C           -1.736315284713    -0.541192004662    -0.604615746280    12.000000000000
         C           -0.488035284713     0.230050995338    -0.264193746280    12.000000000000
         C            1.842216715287     0.320505995338     0.107820253720    12.000000000000
         C           -2.660380884713    -0.715694704662     0.630099953720    12.000000000000
         C           -0.645643284713     1.694782995338     0.080509253720    12.000000000000
         C            3.013449715287    -0.645813004662     0.186920253720    12.000000000000
         H           -1.426157284713    -1.517333004662    -0.986835746280     1.007825032230
         H           -2.281469284713    -0.020721004662    -1.403190746280     1.007825032230
         H            2.049045715287     1.099620995338    -0.640641746280     1.007825032230
         H            1.715249715287     0.837537995338     1.070228253720     1.007825032230
         H           -3.541903284713    -1.287643004662     0.352883253720     1.007825032230
         H           -2.976715284713     0.251098995338     1.012836253720     1.007825032230
         H           -2.119343284713    -1.248371004662     1.407824253720     1.007825032230
         H           -0.416328284713     1.874557995338     1.137243253720     1.007825032230
         H           -1.662628284713     2.043075995338    -0.111839746280     1.007825032230
         H            0.047142715287     2.306877995338    -0.506498746280     1.007825032230
         H            3.938425715287    -0.122682004662     0.449162253720     1.007825032230
         H            2.820346715287    -1.411936004662     0.941565253720     1.007825032230
         H            3.154027715287    -1.146296004662    -0.773817746280     1.007825032230

  Basis Set: AUG-CC-PVTZ
    Blend: AUG-CC-PVTZ
  Basis Set: (AUG-CC-PVTZ AUX)
    Blend: AUG-CC-PVTZ-JKFIT
	 Reference Energy          =    -289.3138991691692468 [Eh]
	 Singles Energy            =      -0.0000000000000000 [Eh]
	 Same-Spin Energy          =      -0.3062438539490852 [Eh]
	 Opposite-Spin Energy      =      -1.0922106767871029 [Eh]
	 Correlation Energy        =      -1.3984545307361880 [Eh]
	 Total Energy              =    -290.7123536999054068 [Eh]

	 ================> DF-SCS-MP2 Energies <==================
	-----------------------------------------------------------
	 SCS Same-Spin Scale       =       0.3333333333333333 [-]
	 SCS Opposite-Spin Scale   =       1.2000000000000000 [-]
	 SCS Same-Spin Energy      =      -0.1020812846496950 [Eh]
	 SCS Opposite-Spin Energy  =      -1.3106528121445236 [Eh]
	 SCS Correlation Energy    =      -1.4127340967942186 [Eh]
	 SCS Total Energy          =    -290.7266332659634713 [Eh]
	-----------------------------------------------------------

  Dipole Moment: [D]
     X:    -0.8281      Y:     1.7592      Z:     0.3825     Total:     1.9817

*** Psi4 exiting successfully. Buy a developer a beer!
