                               Psi4 1.4a3.dev225

  ==> Input File <==

--------------------------------------------------------------------------
#psi4
#
memory 32 gb

molecule  {
0 1
  N        0.6335420    -0.4278790    -0.2728430
  C       -1.8400739    -0.6401737    -0.7028655
  C       -0.4830900     0.2151130    -0.2797610
  C        1.8471620     0.3055680     0.0922530
  C       -2.6435280    -0.7283840     0.5986220
  C       -0.6406980     1.6798450     0.0649420
  C        3.0183950    -0.6607510     0.1713530
  H       -1.4212120    -1.5322710    -1.0024030
  H       -2.2765240    -0.0356590    -1.4187580
  H        2.0539910     1.0846830    -0.6562090
  H        1.7201950     0.8226000     1.0546610
  H       -3.5369580    -1.3025810     0.3373160
  H       -2.9717700     0.2361610     0.9972690
  H       -2.1143980    -1.2633090     1.3922570
  H       -0.4113830     1.8596200     1.1216760
  H       -1.6576830     2.0281380    -0.1274070
  H        0.0520880     2.2919400    -0.5220660
  H        3.9433710    -0.1376200     0.4335950
  H        2.8252920    -1.4268740     0.9259980
  H        3.1589730    -1.1612340    -0.7893850
units angstrom
no_reorient  #important for SAPT in psi4, default
symmetry c1  #important for SAPT in psi4, default
}

set PROPERTIES_ORIGIN ["COM"]
properties('MP2/aug-cc-pvtz', properties = ['dipole'])
--------------------------------------------------------------------------

    Molecular point group: c1
  Charge       = 0
  Multiplicity = 1
  Basis Set: AUG-CC-PVTZ
    Blend: AUG-CC-PVTZ
  Basis Set: (AUG-CC-PVTZ AUX)
    Blend: AUG-CC-PVTZ-JKFIT

    Orbital Energies [Eh]
    ---------------------

    Doubly Occupied:

       1A    -15.536786     2A    -11.279046     3A    -11.241361
       4A    -11.232049     5A    -11.223505     6A    -11.219686
       7A    -11.201720     8A     -1.211024     9A     -1.050612
      10A     -1.000272    11A     -0.970377    12A     -0.869182
      13A     -0.821624    14A     -0.704833    15A     -0.652839
      16A     -0.624386    17A     -0.615462    18A     -0.594280
      19A     -0.574088    20A     -0.551054    21A     -0.529667
      22A     -0.524810    23A     -0.512927    24A     -0.508586
      25A     -0.492801    26A     -0.453212    27A     -0.382210
      28A     -0.371616

  @DF-RHF Final Energy:  -289.29316955774561

   => Energetics <=

    Nuclear Repulsion Energy =            305.4607640115270897
    One-Electron Energy =                -995.6078347093879302
    Two-Electron Energy =                 400.8539011401152266
    Total Energy =                       -289.2931695577456139
  Basis Set: (AUG-CC-PVTZ AUX)
    Blend: AUG-CC-PVTZ-RI
    Molecular point group: c1

    Geometry (in Angstrom), charge = 0, multiplicity = 1:

       Center              X                  Y                   Z               Mass
    ------------   -----------------  -----------------  -----------------  -----------------
         N            0.640317193072    -0.403036943449    -0.245337692756    14.003074004430
         C           -1.833298706928    -0.615331643449    -0.675360192756    12.000000000000
         C           -0.476314806928     0.239955056551    -0.252255692756    12.000000000000
         C            1.853937193072     0.330410056551     0.119758307244    12.000000000000
         C           -2.636752806928    -0.703541943449     0.626127307244    12.000000000000
         C           -0.633922806928     1.704687056551     0.092447307244    12.000000000000
         C            3.025170193072    -0.635908943449     0.198858307244    12.000000000000
         H           -1.414436806928    -1.507428943449    -0.974897692756     1.007825032230
         H           -2.269748806928    -0.010816943449    -1.391252692756     1.007825032230
         H            2.060766193072     1.109525056551    -0.628703692756     1.007825032230
         H            1.726970193072     0.847442056551     1.082166307244     1.007825032230
         H           -3.530182806928    -1.277738943449     0.364821307244     1.007825032230
         H           -2.964994806928     0.261003056551     1.024774307244     1.007825032230
         H           -2.107622806928    -1.238466943449     1.419762307244     1.007825032230
         H           -0.404607806928     1.884462056551     1.149181307244     1.007825032230
         H           -1.650907806928     2.052980056551    -0.099901692756     1.007825032230
         H            0.058863193072     2.316782056551    -0.494560692756     1.007825032230
         H            3.950146193072    -0.112777943449     0.461100307244     1.007825032230
         H            2.832067193072    -1.402031943449     0.953503307244     1.007825032230
         H            3.165748193072    -1.136391943449    -0.761879692756     1.007825032230

  Basis Set: AUG-CC-PVTZ
    Blend: AUG-CC-PVTZ
  Basis Set: (AUG-CC-PVTZ AUX)
    Blend: AUG-CC-PVTZ-JKFIT
	 Reference Energy          =    -289.2931695577456139 [Eh]
	 Singles Energy            =      -0.0000000000000000 [Eh]
	 Same-Spin Energy          =      -0.3062392416854779 [Eh]
	 Opposite-Spin Energy      =      -1.0930645253549334 [Eh]
	 Correlation Energy        =      -1.3993037670404114 [Eh]
	 Total Energy              =    -290.6924733247860217 [Eh]

	 ================> DF-SCS-MP2 Energies <==================
	-----------------------------------------------------------
	 SCS Same-Spin Scale       =       0.3333333333333333 [-]
	 SCS Opposite-Spin Scale   =       1.2000000000000000 [-]
	 SCS Same-Spin Energy      =      -0.1020797472284926 [Eh]
	 SCS Opposite-Spin Energy  =      -1.3116774304259200 [Eh]
	 SCS Correlation Energy    =      -1.4137571776544127 [Eh]
	 SCS Total Energy          =    -290.7069267354000317 [Eh]
	-----------------------------------------------------------

  Dipole Moment: [D]
     X:    -0.7688      Y:     1.8058      Z:     0.3773     Total:     1.9986

*** Psi4 exiting successfully. Buy a developer a beer!
