                               Psi4 1.4a3.dev225

  ==> Input File <==

--------------------------------------------------------------------------
#psi4
#
memory 32 gb

molecule  {
0 1
  N        0.6335420    -0.4278790    -0.2728430
  C       -1.7313700    -0.5561300    -0.6201830
  C       -0.4830900     0.2151130    -0.2797610
  C        1.8471620     0.3055680     0.0922530
  C       -2.6435280    -0.7283840     0.5986220
  C       -0.6406980     1.6798450     0.0649420
  C        3.0260470    -0.6458957     0.2217252
  H       -1.4212120    -1.5322710    -1.0024030
  H       -2.2765240    -0.0356590    -1.4187580
  H        2.0539910     1.0846830    -0.6562090
  H        1.7201950     0.8226000     1.0546610
  H       -3.5369580    -1.3025810     0.3373160
  H       -2.9717700     0.2361610     0.9972690
  H       -2.1143980    -1.2633090     1.3922570
  H       -0.4113830     1.8596200     1.1216760
  H       -1.6576830     2.0281380    -0.1274070
  H        0.0520880     2.2919400    -0.5220660
  H        3.9433710    -0.1376200     0.4335950
  H        2.8252920    -1.4268740     0.9259980
  H        3.1589730    -1.1612340    -0.7893850
units angstrom
no_reorient  #important for SAPT in psi4, default
symmetry c1  #important for SAPT in psi4, default
}

set PROPERTIES_ORIGIN ["COM"]
properties('MP2/aug-cc-pvtz', properties = ['dipole'])
--------------------------------------------------------------------------

    Molecular point group: c1
  Charge       = 0
  Multiplicity = 1
  Basis Set: AUG-CC-PVTZ
    Blend: AUG-CC-PVTZ
  Basis Set: (AUG-CC-PVTZ AUX)
    Blend: AUG-CC-PVTZ-JKFIT

    Orbital Energies [Eh]
    ---------------------

    Doubly Occupied:

       1A    -15.539240     2A    -11.276122     3A    -11.242318
       4A    -11.231648     5A    -11.223708     6A    -11.219988
       7A    -11.202934     8A     -1.217463     9A     -1.059326
      10A     -0.998491    11A     -0.972069    12A     -0.877694
      13A     -0.817339    14A     -0.708702    15A     -0.652242
      16A     -0.627078    17A     -0.616111    18A     -0.589621
      19A     -0.575347    20A     -0.552374    21A     -0.540229
      22A     -0.516287    23A     -0.514893    24A     -0.486748
      25A     -0.485792    26A     -0.475222    27A     -0.385124
      28A     -0.380626

  @DF-RHF Final Energy:  -289.31118874186393

   => Energetics <=

    Nuclear Repulsion Energy =            307.5175257154798487
    One-Electron Energy =                -999.6879584975677062
    Two-Electron Energy =                 402.8592440402238708
    Total Energy =                       -289.3111887418639299
  Basis Set: (AUG-CC-PVTZ AUX)
    Blend: AUG-CC-PVTZ-RI
    Molecular point group: c1

    Geometry (in Angstrom), charge = 0, multiplicity = 1:

       Center              X                  Y                   Z               Mass
    ------------   -----------------  -----------------  -----------------  -----------------
         N            0.626228361773    -0.415012024443    -0.261448480622    14.003074004430
         C           -1.738683638227    -0.543263024443    -0.608788480622    12.000000000000
         C           -0.490403638227     0.227979975557    -0.268366480622    12.000000000000
         C            1.839848361773     0.318434975557     0.103647519378    12.000000000000
         C           -2.650841638227    -0.715517024443     0.610016519378    12.000000000000
         C           -0.648011638227     1.692711975557     0.076336519378    12.000000000000
         C            3.018733361773    -0.633028724443     0.233119719378    12.000000000000
         H           -1.428525638227    -1.519404024443    -0.991008480622     1.007825032230
         H           -2.283837638227    -0.022792024443    -1.407363480622     1.007825032230
         H            2.046677361773     1.097549975557    -0.644814480622     1.007825032230
         H            1.712881361773     0.835466975557     1.066055519378     1.007825032230
         H           -3.544271638227    -1.289714024443     0.348710519378     1.007825032230
         H           -2.979083638227     0.249027975557     1.008663519378     1.007825032230
         H           -2.121711638227    -1.250442024443     1.403651519378     1.007825032230
         H           -0.418696638227     1.872486975557     1.133070519378     1.007825032230
         H           -1.664996638227     2.041004975557    -0.116012480622     1.007825032230
         H            0.044774361773     2.304806975557    -0.510671480622     1.007825032230
         H            3.936057361773    -0.124753024443     0.444989519378     1.007825032230
         H            2.817978361773    -1.414007024443     0.937392519378     1.007825032230
         H            3.151659361773    -1.148367024443    -0.777990480622     1.007825032230

  Basis Set: AUG-CC-PVTZ
    Blend: AUG-CC-PVTZ
  Basis Set: (AUG-CC-PVTZ AUX)
    Blend: AUG-CC-PVTZ-JKFIT
	 Reference Energy          =    -289.3111887418639299 [Eh]
	 Singles Energy            =      -0.0000000000000000 [Eh]
	 Same-Spin Energy          =      -0.3063790949539673 [Eh]
	 Opposite-Spin Energy      =      -1.0923909986942060 [Eh]
	 Correlation Energy        =      -1.3987700936481733 [Eh]
	 Total Energy              =    -290.7099588355121114 [Eh]

	 ================> DF-SCS-MP2 Energies <==================
	-----------------------------------------------------------
	 SCS Same-Spin Scale       =       0.3333333333333333 [-]
	 SCS Opposite-Spin Scale   =       1.2000000000000000 [-]
	 SCS Same-Spin Energy      =      -0.1021263649846558 [Eh]
	 SCS Opposite-Spin Energy  =      -1.3108691984330472 [Eh]
	 SCS Correlation Energy    =      -1.4129955634177029 [Eh]
	 SCS Total Energy          =    -290.7241843052816535 [Eh]
	-----------------------------------------------------------

  Dipole Moment: [D]
     X:    -0.8213      Y:     1.7704      Z:     0.4027     Total:     1.9928

*** Psi4 exiting successfully. Buy a developer a beer!
