                               Psi4 1.4a3.dev225

  ==> Input File <==

--------------------------------------------------------------------------
#psi4
#
memory 32 gb

molecule  {
0 1
  N        0.6335420    -0.4278790    -0.2728430
  C       -1.7313700    -0.5561300    -0.6201830
  C       -0.4830900     0.2151130    -0.2797610
  C        1.8471620     0.3055680     0.0922530
  C       -2.6435280    -0.7283840     0.5986220
  C       -0.6406980     1.6798450     0.0649420
  C        3.0183950    -0.6607510     0.1713530
  H       -1.4212120    -1.5322710    -1.0024030
  H       -2.2765240    -0.0356590    -1.4187580
  H        2.0915964     1.2263406    -0.7922933
  H        1.7201950     0.8226000     1.0546610
  H       -3.5369580    -1.3025810     0.3373160
  H       -2.9717700     0.2361610     0.9972690
  H       -2.1143980    -1.2633090     1.3922570
  H       -0.4113830     1.8596200     1.1216760
  H       -1.6576830     2.0281380    -0.1274070
  H        0.0520880     2.2919400    -0.5220660
  H        3.9433710    -0.1376200     0.4335950
  H        2.8252920    -1.4268740     0.9259980
  H        3.1589730    -1.1612340    -0.7893850
units angstrom
no_reorient  #important for SAPT in psi4, default
symmetry c1  #important for SAPT in psi4, default
}

set PROPERTIES_ORIGIN ["COM"]
properties('MP2/aug-cc-pvtz', properties = ['dipole'])
--------------------------------------------------------------------------

    Molecular point group: c1
  Charge       = 0
  Multiplicity = 1
  Basis Set: AUG-CC-PVTZ
    Blend: AUG-CC-PVTZ
  Basis Set: (AUG-CC-PVTZ AUX)
    Blend: AUG-CC-PVTZ-JKFIT

    Orbital Energies [Eh]
    ---------------------

    Doubly Occupied:

       1A    -15.541528     2A    -11.278208     3A    -11.265462
       4A    -11.231613     5A    -11.224888     6A    -11.220895
       7A    -11.205032     8A     -1.218653     9A     -1.058933
      10A     -0.997502    11A     -0.971645    12A     -0.877836
      13A     -0.809491    14A     -0.705528    15A     -0.652202
      16A     -0.624205    17A     -0.606176    18A     -0.591402
      19A     -0.572426    20A     -0.552500    21A     -0.537100
      22A     -0.516241    23A     -0.510631    24A     -0.487734
      25A     -0.481584    26A     -0.478410    27A     -0.386970
      28A     -0.376360

  @DF-RHF Final Energy:  -289.29473303792565

   => Energetics <=

    Nuclear Repulsion Energy =            306.7817692541516408
    One-Electron Energy =                -998.1906946768532407
    Two-Electron Energy =                 402.1141923847759472
    Total Energy =                       -289.2947330379256528
  Basis Set: (AUG-CC-PVTZ AUX)
    Blend: AUG-CC-PVTZ-RI
    Molecular point group: c1

    Geometry (in Angstrom), charge = 0, multiplicity = 1:

       Center              X                  Y                   Z               Mass
    ------------   -----------------  -----------------  -----------------  -----------------
         N            0.626772476052    -0.414653842752    -0.253965335826    14.003074004430
         C           -1.738139523948    -0.542904842752    -0.601305335826    12.000000000000
         C           -0.489859523948     0.228338157248    -0.260883335826    12.000000000000
         C            1.840392476052     0.318793157248     0.111130664174    12.000000000000
         C           -2.650297523948    -0.715158842752     0.617499664174    12.000000000000
         C           -0.647467523948     1.693070157248     0.083819664174    12.000000000000
         C            3.011625476052    -0.647525842752     0.190230664174    12.000000000000
         H           -1.427981523948    -1.519045842752    -0.983525335826     1.007825032230
         H           -2.283293523948    -0.022433842752    -1.399880335826     1.007825032230
         H            2.084826876052     1.239565757248    -0.773415635826     1.007825032230
         H            1.713425476052     0.835825157248     1.073538664174     1.007825032230
         H           -3.543727523948    -1.289355842752     0.356193664174     1.007825032230
         H           -2.978539523948     0.249386157248     1.016146664174     1.007825032230
         H           -2.121167523948    -1.250083842752     1.411134664174     1.007825032230
         H           -0.418152523948     1.872845157248     1.140553664174     1.007825032230
         H           -1.664452523948     2.041363157248    -0.108529335826     1.007825032230
         H            0.045318476052     2.305165157248    -0.503188335826     1.007825032230
         H            3.936601476052    -0.124394842752     0.452472664174     1.007825032230
         H            2.818522476052    -1.413648842752     0.944875664174     1.007825032230
         H            3.152203476052    -1.148008842752    -0.770507335826     1.007825032230

  Basis Set: AUG-CC-PVTZ
    Blend: AUG-CC-PVTZ
  Basis Set: (AUG-CC-PVTZ AUX)
    Blend: AUG-CC-PVTZ-JKFIT
	 Reference Energy          =    -289.2947330379256528 [Eh]
	 Singles Energy            =      -0.0000000000000000 [Eh]
	 Same-Spin Energy          =      -0.3066153443517944 [Eh]
	 Opposite-Spin Energy      =      -1.0938375725034746 [Eh]
	 Correlation Energy        =      -1.4004529168552691 [Eh]
	 Total Energy              =    -290.6951859547809249 [Eh]

	 ================> DF-SCS-MP2 Energies <==================
	-----------------------------------------------------------
	 SCS Same-Spin Scale       =       0.3333333333333333 [-]
	 SCS Opposite-Spin Scale   =       1.2000000000000000 [-]
	 SCS Same-Spin Energy      =      -0.1022051147839315 [Eh]
	 SCS Opposite-Spin Energy  =      -1.3126050870041694 [Eh]
	 SCS Correlation Energy    =      -1.4148102017881010 [Eh]
	 SCS Total Energy          =    -290.7095432397137529 [Eh]
	-----------------------------------------------------------

  Dipole Moment: [D]
     X:    -0.8958      Y:     1.5998      Z:     0.4778     Total:     1.8948

*** Psi4 exiting successfully. Buy a developer a beer!
