                               Psi4 1.4a3.dev225

  ==> Input File <==

--------------------------------------------------------------------------
#psi4
#
memory 32 gb

molecule  {
0 1
  N        0.6335420    -0.4278790    -0.2728430
  C       -1.7665509    -0.5839800    -0.6492754
  C       -0.4830900     0.2151130    -0.2797610
  C        1.8471620     0.3055680     0.0922530
  C       -2.6435280    -0.7283840     0.5986220
  C       -0.6406980     1.6798450     0.0649420
  C        3.0183950    -0.6607510     0.1713530
  H       -1.4212120    -1.5322710    -1.0024030
  H       -2.2765240    -0.0356590    -1.4187580
  H        2.0539910     1.0846830    -0.6562090
  H        1.7201950     0.8226000     1.0546610
  H       -3.5369580    -1.3025810     0.3373160
  H       -2.9717700     0.2361610     0.9972690
  H       -2.1143980    -1.2633090     1.3922570
  H       -0.4113830     1.8596200     1.1216760
  H       -1.6576830     2.0281380    -0.1274070
  H        0.0520880     2.2919400    -0.5220660
  H        3.9433710    -0.1376200     0.4335950
  H        2.8252920    -1.4268740     0.9259980
  H        3.1589730    -1.1612340    -0.7893850
units angstrom
no_reorient  #important for SAPT in psi4, default
symmetry c1  #important for SAPT in psi4, default
}

set PROPERTIES_ORIGIN ["COM"]
properties('MP2/aug-cc-pvtz', properties = ['dipole'])
--------------------------------------------------------------------------

    Molecular point group: c1
  Charge       = 0
  Multiplicity = 1
  Basis Set: AUG-CC-PVTZ
    Blend: AUG-CC-PVTZ
  Basis Set: (AUG-CC-PVTZ AUX)
    Blend: AUG-CC-PVTZ-JKFIT

    Orbital Energies [Eh]
    ---------------------

    Doubly Occupied:

       1A    -15.538018     2A    -11.277217     3A    -11.241821
       4A    -11.231836     5A    -11.222727     6A    -11.219408
       7A    -11.202147     8A     -1.214973     9A     -1.055850
      10A     -0.998807    11A     -0.971298    12A     -0.873809
      13A     -0.818584    14A     -0.707557    15A     -0.651036
      16A     -0.626358    17A     -0.615482    18A     -0.591634
      19A     -0.575051    20A     -0.551268    21A     -0.532842
      22A     -0.518894    23A     -0.511152    24A     -0.496275
      25A     -0.492696    26A     -0.469681    27A     -0.382581
      28A     -0.380626

  @DF-RHF Final Energy:  -289.31190039293864

   => Energetics <=

    Nuclear Repulsion Energy =            306.8743155263193216
    One-Electron Energy =                -998.4331741612094220
    Two-Electron Energy =                 402.2469582419515177
    Total Energy =                       -289.3119003929386395
  Basis Set: (AUG-CC-PVTZ AUX)
    Blend: AUG-CC-PVTZ-RI
    Molecular point group: c1

    Geometry (in Angstrom), charge = 0, multiplicity = 1:

       Center              X                  Y                   Z               Mass
    ------------   -----------------  -----------------  -----------------  -----------------
         N            0.631414738245    -0.409841098283    -0.251826593432    14.003074004430
         C           -1.768678161755    -0.565942098283    -0.628258993432    12.000000000000
         C           -0.485217261755     0.233150901717    -0.258744593432    12.000000000000
         C            1.845034738245     0.323605901717     0.113269406568    12.000000000000
         C           -2.645655261755    -0.710346098283     0.619638406568    12.000000000000
         C           -0.642825261755     1.697882901717     0.085958406568    12.000000000000
         C            3.016267738245    -0.642713098283     0.192369406568    12.000000000000
         H           -1.423339261755    -1.514233098283    -0.981386593432     1.007825032230
         H           -2.278651261755    -0.017621098283    -1.397741593432     1.007825032230
         H            2.051863738245     1.102720901717    -0.635192593432     1.007825032230
         H            1.718067738245     0.840637901717     1.075677406568     1.007825032230
         H           -3.539085261755    -1.284543098283     0.358332406568     1.007825032230
         H           -2.973897261755     0.254198901717     1.018285406568     1.007825032230
         H           -2.116525261755    -1.245271098283     1.413273406568     1.007825032230
         H           -0.413510261755     1.877657901717     1.142692406568     1.007825032230
         H           -1.659810261755     2.046175901717    -0.106390593432     1.007825032230
         H            0.049960738245     2.309977901717    -0.501049593432     1.007825032230
         H            3.941243738245    -0.119582098283     0.454611406568     1.007825032230
         H            2.823164738245    -1.408836098283     0.947014406568     1.007825032230
         H            3.156845738245    -1.143196098283    -0.768368593432     1.007825032230

  Basis Set: AUG-CC-PVTZ
    Blend: AUG-CC-PVTZ
  Basis Set: (AUG-CC-PVTZ AUX)
    Blend: AUG-CC-PVTZ-JKFIT
	 Reference Energy          =    -289.3119003929386395 [Eh]
	 Singles Energy            =      -0.0000000000000000 [Eh]
	 Same-Spin Energy          =      -0.3060866832550833 [Eh]
	 Opposite-Spin Energy      =      -1.0921176380024069 [Eh]
	 Correlation Energy        =      -1.3982043212574902 [Eh]
	 Total Energy              =    -290.7101047141961203 [Eh]

	 ================> DF-SCS-MP2 Energies <==================
	-----------------------------------------------------------
	 SCS Same-Spin Scale       =       0.3333333333333333 [-]
	 SCS Opposite-Spin Scale   =       1.2000000000000000 [-]
	 SCS Same-Spin Energy      =      -0.1020288944183611 [Eh]
	 SCS Opposite-Spin Energy  =      -1.3105411656028882 [Eh]
	 SCS Correlation Energy    =      -1.4125700600212494 [Eh]
	 SCS Total Energy          =    -290.7244704529599062 [Eh]
	-----------------------------------------------------------

  Dipole Moment: [D]
     X:    -0.8064      Y:     1.7755      Z:     0.3746     Total:     1.9857

*** Psi4 exiting successfully. Buy a developer a beer!
