                               Psi4 1.4a3.dev225

  ==> Input File <==

--------------------------------------------------------------------------
#psi4
#
memory 32 gb

molecule  {
0 1
  N        0.6335420    -0.4278790    -0.2728430
  C       -1.7313700    -0.5561300    -0.6201830
  C       -0.4914275     0.2171929    -0.2549157
  C        1.8471620     0.3055680     0.0922530
  C       -2.6435280    -0.7283840     0.5986220
  C       -0.6406980     1.6798450     0.0649420
  C        3.0183950    -0.6607510     0.1713530
  H       -1.4212120    -1.5322710    -1.0024030
  H       -2.2765240    -0.0356590    -1.4187580
  H        2.0539910     1.0846830    -0.6562090
  H        1.7201950     0.8226000     1.0546610
  H       -3.5369580    -1.3025810     0.3373160
  H       -2.9717700     0.2361610     0.9972690
  H       -2.1143980    -1.2633090     1.3922570
  H       -0.4113830     1.8596200     1.1216760
  H       -1.6576830     2.0281380    -0.1274070
  H        0.0520880     2.2919400    -0.5220660
  H        3.9433710    -0.1376200     0.4335950
  H        2.8252920    -1.4268740     0.9259980
  H        3.1589730    -1.1612340    -0.7893850
units angstrom
no_reorient  #important for SAPT in psi4, default
symmetry c1  #important for SAPT in psi4, default
}

set PROPERTIES_ORIGIN ["COM"]
properties('MP2/aug-cc-pvtz', properties = ['dipole'])
--------------------------------------------------------------------------

    Molecular point group: c1
  Charge       = 0
  Multiplicity = 1
  Basis Set: AUG-CC-PVTZ
    Blend: AUG-CC-PVTZ
  Basis Set: (AUG-CC-PVTZ AUX)
    Blend: AUG-CC-PVTZ-JKFIT

    Orbital Energies [Eh]
    ---------------------

    Doubly Occupied:

       1A    -15.539201     2A    -11.276515     3A    -11.241536
       4A    -11.231991     5A    -11.223844     6A    -11.219631
       7A    -11.202108     8A     -1.214765     9A     -1.060028
      10A     -0.998084    11A     -0.972590    12A     -0.876670
      13A     -0.816174    14A     -0.709650    15A     -0.652043
      16A     -0.627029    17A     -0.616481    18A     -0.590476
      19A     -0.575722    20A     -0.552951    21A     -0.534773
      22A     -0.515280    23A     -0.511009    24A     -0.492894
      25A     -0.486348    26A     -0.476454    27A     -0.386353
      28A     -0.378048

  @DF-RHF Final Energy:  -289.31288477972640

   => Energetics <=

    Nuclear Repulsion Energy =            307.6022258248258936
    One-Electron Energy =                -999.8729252045277462
    Two-Electron Energy =                 402.9578145999755066
    Total Energy =                       -289.3128847797264029
  Basis Set: (AUG-CC-PVTZ AUX)
    Blend: AUG-CC-PVTZ-RI
    Molecular point group: c1

    Geometry (in Angstrom), charge = 0, multiplicity = 1:

       Center              X                  Y                   Z               Mass
    ------------   -----------------  -----------------  -----------------  -----------------
         N            0.628164433498    -0.413465128623    -0.258357582887    14.003074004430
         C           -1.736747566502    -0.541716128623    -0.605697582887    12.000000000000
         C           -0.496805066502     0.231606771377    -0.240430282887    12.000000000000
         C            1.841784433498     0.319981871377     0.106738417113    12.000000000000
         C           -2.648905566502    -0.713970128623     0.613107417113    12.000000000000
         C           -0.646075566502     1.694258871377     0.079427417113    12.000000000000
         C            3.013017433498    -0.646337128623     0.185838417113    12.000000000000
         H           -1.426589566502    -1.517857128623    -0.987917582887     1.007825032230
         H           -2.281901566502    -0.021245128623    -1.404272582887     1.007825032230
         H            2.048613433498     1.099096871377    -0.641723582887     1.007825032230
         H            1.714817433498     0.837013871377     1.069146417113     1.007825032230
         H           -3.542335566502    -1.288167128623     0.351801417113     1.007825032230
         H           -2.977147566502     0.250574871377     1.011754417113     1.007825032230
         H           -2.119775566502    -1.248895128623     1.406742417113     1.007825032230
         H           -0.416760566502     1.874033871377     1.136161417113     1.007825032230
         H           -1.663060566502     2.042551871377    -0.112921582887     1.007825032230
         H            0.046710433498     2.306353871377    -0.507580582887     1.007825032230
         H            3.937993433498    -0.123206128623     0.448080417113     1.007825032230
         H            2.819914433498    -1.412460128623     0.940483417113     1.007825032230
         H            3.153595433498    -1.146820128623    -0.774899582887     1.007825032230

  Basis Set: AUG-CC-PVTZ
    Blend: AUG-CC-PVTZ
  Basis Set: (AUG-CC-PVTZ AUX)
    Blend: AUG-CC-PVTZ-JKFIT
	 Reference Energy          =    -289.3128847797264029 [Eh]
	 Singles Energy            =      -0.0000000000000000 [Eh]
	 Same-Spin Energy          =      -0.3066064226629584 [Eh]
	 Opposite-Spin Energy      =      -1.0927686569999180 [Eh]
	 Correlation Energy        =      -1.3993750796628763 [Eh]
	 Total Energy              =    -290.7122598593892917 [Eh]

	 ================> DF-SCS-MP2 Energies <==================
	-----------------------------------------------------------
	 SCS Same-Spin Scale       =       0.3333333333333333 [-]
	 SCS Opposite-Spin Scale   =       1.2000000000000000 [-]
	 SCS Same-Spin Energy      =      -0.1022021408876528 [Eh]
	 SCS Opposite-Spin Energy  =      -1.3113223883999015 [Eh]
	 SCS Correlation Energy    =      -1.4135245292875542 [Eh]
	 SCS Total Energy          =    -290.7264093090139454 [Eh]
	-----------------------------------------------------------

  Dipole Moment: [D]
     X:    -0.8349      Y:     1.7818      Z:     0.3754     Total:     2.0032

*** Psi4 exiting successfully. Buy a developer a beer!
