                               Psi4 1.4a3.dev225

  ==> Input File <==

--------------------------------------------------------------------------
#psi4
#
memory 32 gb

molecule  {
0 1
  N        0.6335420    -0.4278790    -0.2728430
  C       -1.7858794    -0.4675680    -0.6047108
  C       -0.4830900     0.2151130    -0.2797610
  C        1.8471620     0.3055680     0.0922530
  C       -2.6435280    -0.7283840     0.5986220
  C       -0.6406980     1.6798450     0.0649420
  C        3.0183950    -0.6607510     0.1713530
  H       -1.4212120    -1.5322710    -1.0024030
  H       -2.2765240    -0.0356590    -1.4187580
  H        2.0539910     1.0846830    -0.6562090
  H        1.7201950     0.8226000     1.0546610
  H       -3.5369580    -1.3025810     0.3373160
  H       -2.9717700     0.2361610     0.9972690
  H       -2.1143980    -1.2633090     1.3922570
  H       -0.4113830     1.8596200     1.1216760
  H       -1.6576830     2.0281380    -0.1274070
  H        0.0520880     2.2919400    -0.5220660
  H        3.9433710    -0.1376200     0.4335950
  H        2.8252920    -1.4268740     0.9259980
  H        3.1589730    -1.1612340    -0.7893850
units angstrom
no_reorient  #important for SAPT in psi4, default
symmetry c1  #important for SAPT in psi4, default
}

set PROPERTIES_ORIGIN ["COM"]
properties('MP2/aug-cc-pvtz', properties = ['dipole'])
--------------------------------------------------------------------------

    Molecular point group: c1
  Charge       = 0
  Multiplicity = 1
  Basis Set: AUG-CC-PVTZ
    Blend: AUG-CC-PVTZ
  Basis Set: (AUG-CC-PVTZ AUX)
    Blend: AUG-CC-PVTZ-JKFIT

    Orbital Energies [Eh]
    ---------------------

    Doubly Occupied:

       1A    -15.541184     2A    -11.277138     3A    -11.243667
       4A    -11.229370     5A    -11.226038     6A    -11.219703
       7A    -11.203041     8A     -1.217632     9A     -1.064465
      10A     -1.001398    11A     -0.971273    12A     -0.876844
      13A     -0.819071    14A     -0.709863    15A     -0.648106
      16A     -0.630760    17A     -0.619772    18A     -0.589388
      19A     -0.577645    20A     -0.554461    21A     -0.537559
      22A     -0.526595    23A     -0.511803    24A     -0.494787
      25A     -0.482776    26A     -0.454152    27A     -0.385303
      28A     -0.383331

  @DF-RHF Final Energy:  -289.30145649182509

   => Energetics <=

    Nuclear Repulsion Energy =            307.7662428872870350
    One-Electron Energy =               -1000.1411492622748938
    Two-Electron Energy =                 403.0734498831627661
    Total Energy =                       -289.3014564918250926
  Basis Set: (AUG-CC-PVTZ AUX)
    Blend: AUG-CC-PVTZ-RI
    Molecular point group: c1

    Geometry (in Angstrom), charge = 0, multiplicity = 1:

       Center              X                  Y                   Z               Mass
    ------------   -----------------  -----------------  -----------------  -----------------
         N            0.633755109260    -0.423936722391    -0.257222650970    14.003074004430
         C           -1.785666290740    -0.463625722391    -0.589090450970    12.000000000000
         C           -0.482876890740     0.219055277609    -0.264140650970    12.000000000000
         C            1.847375109260     0.309510277609     0.107873349030    12.000000000000
         C           -2.643314890740    -0.724441722391     0.614242349030    12.000000000000
         C           -0.640484890740     1.683787277609     0.080562349030    12.000000000000
         C            3.018608109260    -0.656808722391     0.186973349030    12.000000000000
         H           -1.420998890740    -1.528328722391    -0.986782650970     1.007825032230
         H           -2.276310890740    -0.031716722391    -1.403137650970     1.007825032230
         H            2.054204109260     1.088625277609    -0.640588650970     1.007825032230
         H            1.720408109260     0.826542277609     1.070281349030     1.007825032230
         H           -3.536744890740    -1.298638722391     0.352936349030     1.007825032230
         H           -2.971556890740     0.240103277609     1.012889349030     1.007825032230
         H           -2.114184890740    -1.259366722391     1.407877349030     1.007825032230
         H           -0.411169890740     1.863562277609     1.137296349030     1.007825032230
         H           -1.657469890740     2.032080277609    -0.111786650970     1.007825032230
         H            0.052301109260     2.295882277609    -0.506445650970     1.007825032230
         H            3.943584109260    -0.133677722391     0.449215349030     1.007825032230
         H            2.825505109260    -1.422931722391     0.941618349030     1.007825032230
         H            3.159186109260    -1.157291722391    -0.773764650970     1.007825032230

  Basis Set: AUG-CC-PVTZ
    Blend: AUG-CC-PVTZ
  Basis Set: (AUG-CC-PVTZ AUX)
    Blend: AUG-CC-PVTZ-JKFIT
	 Reference Energy          =    -289.3014564918250926 [Eh]
	 Singles Energy            =      -0.0000000000000000 [Eh]
	 Same-Spin Energy          =      -0.3068837900723722 [Eh]
	 Opposite-Spin Energy      =      -1.0933436274054720 [Eh]
	 Correlation Energy        =      -1.4002274174778442 [Eh]
	 Total Energy              =    -290.7016839093029148 [Eh]

	 ================> DF-SCS-MP2 Energies <==================
	-----------------------------------------------------------
	 SCS Same-Spin Scale       =       0.3333333333333333 [-]
	 SCS Opposite-Spin Scale   =       1.2000000000000000 [-]
	 SCS Same-Spin Energy      =      -0.1022945966907907 [Eh]
	 SCS Opposite-Spin Energy  =      -1.3120123528865664 [Eh]
	 SCS Correlation Energy    =      -1.4143069495773570 [Eh]
	 SCS Total Energy          =    -290.7157634414024301 [Eh]
	-----------------------------------------------------------

  Dipole Moment: [D]
     X:    -0.7943      Y:     1.7848      Z:     0.3928     Total:     1.9927

*** Psi4 exiting successfully. Buy a developer a beer!
