                               Psi4 1.4a3.dev225

  ==> Input File <==

--------------------------------------------------------------------------
#psi4
#
memory 32 gb

molecule  {
0 1
  N        0.6335420    -0.4278790    -0.2728430
  C       -1.6382943    -0.6817979    -0.6402603
  C       -0.4830900     0.2151130    -0.2797610
  C        1.8471620     0.3055680     0.0922530
  C       -2.6435280    -0.7283840     0.5986220
  C       -0.6406980     1.6798450     0.0649420
  C        3.0183950    -0.6607510     0.1713530
  H       -1.4212120    -1.5322710    -1.0024030
  H       -2.2765240    -0.0356590    -1.4187580
  H        2.0539910     1.0846830    -0.6562090
  H        1.7201950     0.8226000     1.0546610
  H       -3.5369580    -1.3025810     0.3373160
  H       -2.9717700     0.2361610     0.9972690
  H       -2.1143980    -1.2633090     1.3922570
  H       -0.4113830     1.8596200     1.1216760
  H       -1.6576830     2.0281380    -0.1274070
  H        0.0520880     2.2919400    -0.5220660
  H        3.9433710    -0.1376200     0.4335950
  H        2.8252920    -1.4268740     0.9259980
  H        3.1589730    -1.1612340    -0.7893850
units angstrom
no_reorient  #important for SAPT in psi4, default
symmetry c1  #important for SAPT in psi4, default
}

set PROPERTIES_ORIGIN ["COM"]
properties('MP2/aug-cc-pvtz', properties = ['dipole'])
--------------------------------------------------------------------------

    Molecular point group: c1
  Charge       = 0
  Multiplicity = 1
  Basis Set: AUG-CC-PVTZ
    Blend: AUG-CC-PVTZ
  Basis Set: (AUG-CC-PVTZ AUX)
    Blend: AUG-CC-PVTZ-JKFIT

    Orbital Energies [Eh]
    ---------------------

    Doubly Occupied:

       1A    -15.535634     2A    -11.276538     3A    -11.239867
       4A    -11.236354     5A    -11.225775     6A    -11.223140
       7A    -11.201601     8A     -1.218395     9A     -1.053723
      10A     -0.993816    11A     -0.974127    12A     -0.881004
      13A     -0.818691    14A     -0.718554    15A     -0.658537
      16A     -0.624927    17A     -0.610687    18A     -0.588005
      19A     -0.573898    20A     -0.553215    21A     -0.534273
      22A     -0.531307    23A     -0.510056    24A     -0.495362
      25A     -0.480556    26A     -0.467742    27A     -0.384670
      28A     -0.374203

  @DF-RHF Final Energy:  -289.28266386073369

   => Energetics <=

    Nuclear Repulsion Energy =            307.3999052595890475
    One-Electron Energy =                -999.3958264952217405
    Two-Electron Energy =                 402.7132573748990580
    Total Energy =                       -289.2826638607336918
  Basis Set: (AUG-CC-PVTZ AUX)
    Blend: AUG-CC-PVTZ-RI
    Molecular point group: c1

    Geometry (in Angstrom), charge = 0, multiplicity = 1:

       Center              X                  Y                   Z               Mass
    ------------   -----------------  -----------------  -----------------  -----------------
         N            0.615884923251    -0.397996921141    -0.252918177297    14.003074004430
         C           -1.655951376749    -0.651915821141    -0.620335477297    12.000000000000
         C           -0.500747076749     0.244995078859    -0.259836177297    12.000000000000
         C            1.829504923251     0.335450078859     0.112177822703    12.000000000000
         C           -2.661185076749    -0.698501921141     0.618546822703    12.000000000000
         C           -0.658355076749     1.709727078859     0.084866822703    12.000000000000
         C            3.000737923251    -0.630868921141     0.191277822703    12.000000000000
         H           -1.438869076749    -1.502388921141    -0.982478177297     1.007825032230
         H           -2.294181076749    -0.005776921141    -1.398833177297     1.007825032230
         H            2.036333923251     1.114565078859    -0.636284177297     1.007825032230
         H            1.702537923251     0.852482078859     1.074585822703     1.007825032230
         H           -3.554615076749    -1.272698921141     0.357240822703     1.007825032230
         H           -2.989427076749     0.266043078859     1.017193822703     1.007825032230
         H           -2.132055076749    -1.233426921141     1.412181822703     1.007825032230
         H           -0.429040076749     1.889502078859     1.141600822703     1.007825032230
         H           -1.675340076749     2.058020078859    -0.107482177297     1.007825032230
         H            0.034430923251     2.321822078859    -0.502141177297     1.007825032230
         H            3.925713923251    -0.107737921141     0.453519822703     1.007825032230
         H            2.807634923251    -1.396991921141     0.945922822703     1.007825032230
         H            3.141315923251    -1.131351921141    -0.769460177297     1.007825032230

  Basis Set: AUG-CC-PVTZ
    Blend: AUG-CC-PVTZ
  Basis Set: (AUG-CC-PVTZ AUX)
    Blend: AUG-CC-PVTZ-JKFIT
	 Reference Energy          =    -289.2826638607336918 [Eh]
	 Singles Energy            =      -0.0000000000000000 [Eh]
	 Same-Spin Energy          =      -0.3064580007495121 [Eh]
	 Opposite-Spin Energy      =      -1.0933853318660340 [Eh]
	 Correlation Energy        =      -1.3998433326155462 [Eh]
	 Total Energy              =    -290.6825071933492382 [Eh]

	 ================> DF-SCS-MP2 Energies <==================
	-----------------------------------------------------------
	 SCS Same-Spin Scale       =       0.3333333333333333 [-]
	 SCS Opposite-Spin Scale   =       1.2000000000000000 [-]
	 SCS Same-Spin Energy      =      -0.1021526669165040 [Eh]
	 SCS Opposite-Spin Energy  =      -1.3120623982392408 [Eh]
	 SCS Correlation Energy    =      -1.4142150651557448 [Eh]
	 SCS Total Energy          =    -290.6968789258894503 [Eh]
	-----------------------------------------------------------

  Dipole Moment: [D]
     X:    -0.8368      Y:     1.7650      Z:     0.4250     Total:     1.9991

*** Psi4 exiting successfully. Buy a developer a beer!
