                               Psi4 1.4a3.dev225

  ==> Input File <==

--------------------------------------------------------------------------
#psi4
#
memory 32 gb

molecule  {
0 1
  N        0.6335420    -0.4278790    -0.2728430
  C       -1.7313700    -0.5561300    -0.6201830
  C       -0.4830900     0.2151130    -0.2797610
  C        1.8471620     0.3055680     0.0922530
  C       -2.6435280    -0.7283840     0.5986220
  C       -0.6406980     1.6798450     0.0649420
  C        3.0183950    -0.6607510     0.1713530
  H       -1.4212120    -1.5322710    -1.0024030
  H       -2.2765240    -0.0356590    -1.4187580
  H        2.0539910     1.0846830    -0.6562090
  H        1.7178862     0.8320019     1.0721617
  H       -3.5369580    -1.3025810     0.3373160
  H       -2.9717700     0.2361610     0.9972690
  H       -2.1143980    -1.2633090     1.3922570
  H       -0.4113830     1.8596200     1.1216760
  H       -1.6576830     2.0281380    -0.1274070
  H        0.0520880     2.2919400    -0.5220660
  H        3.9433710    -0.1376200     0.4335950
  H        2.8252920    -1.4268740     0.9259980
  H        3.1589730    -1.1612340    -0.7893850
units angstrom
no_reorient  #important for SAPT in psi4, default
symmetry c1  #important for SAPT in psi4, default
}

set PROPERTIES_ORIGIN ["COM"]
properties('MP2/aug-cc-pvtz', properties = ['dipole'])
--------------------------------------------------------------------------

    Molecular point group: c1
  Charge       = 0
  Multiplicity = 1
  Basis Set: AUG-CC-PVTZ
    Blend: AUG-CC-PVTZ
  Basis Set: (AUG-CC-PVTZ AUX)
    Blend: AUG-CC-PVTZ-JKFIT

    Orbital Energies [Eh]
    ---------------------

    Doubly Occupied:

       1A    -15.538940     2A    -11.275904     3A    -11.244508
       4A    -11.231637     5A    -11.223664     6A    -11.219951
       7A    -11.202566     8A     -1.217385     9A     -1.059170
      10A     -0.997988    11A     -0.971664    12A     -0.877294
      13A     -0.815998    14A     -0.707943    15A     -0.651549
      16A     -0.626759    17A     -0.615528    18A     -0.589836
      19A     -0.575357    20A     -0.552030    21A     -0.535742
      22A     -0.515264    23A     -0.510998    24A     -0.492343
      25A     -0.486134    26A     -0.477369    27A     -0.385388
      28A     -0.380389

  @DF-RHF Final Energy:  -289.31350036333697

   => Energetics <=

    Nuclear Repulsion Energy =            307.5156107142718156
    One-Electron Energy =                -999.6996261083965010
    Two-Electron Energy =                 402.8705150307877147
    Total Energy =                       -289.3135003633369706
  Basis Set: (AUG-CC-PVTZ AUX)
    Blend: AUG-CC-PVTZ-RI
    Molecular point group: c1

    Geometry (in Angstrom), charge = 0, multiplicity = 1:

       Center              X                  Y                   Z               Mass
    ------------   -----------------  -----------------  -----------------  -----------------
         N            0.627178374961    -0.413308896736    -0.255527185590    14.003074004430
         C           -1.737733625039    -0.541559896736    -0.602867185590    12.000000000000
         C           -0.489453625039     0.229683103264    -0.262445185590    12.000000000000
         C            1.840798374961     0.320138103264     0.109568814410    12.000000000000
         C           -2.649891625039    -0.713813896736     0.615937814410    12.000000000000
         C           -0.647061625039     1.694415103264     0.082257814410    12.000000000000
         C            3.012031374961    -0.646180896736     0.188668814410    12.000000000000
         H           -1.427575625039    -1.517700896736    -0.985087185590     1.007825032230
         H           -2.282887625039    -0.021088896736    -1.401442185590     1.007825032230
         H            2.047627374961     1.099253103264    -0.638893185590     1.007825032230
         H            1.711522574961     0.846572003264     1.089477514410     1.007825032230
         H           -3.543321625039    -1.288010896736     0.354631814410     1.007825032230
         H           -2.978133625039     0.250731103264     1.014584814410     1.007825032230
         H           -2.120761625039    -1.248738896736     1.409572814410     1.007825032230
         H           -0.417746625039     1.874190103264     1.138991814410     1.007825032230
         H           -1.664046625039     2.042708103264    -0.110091185590     1.007825032230
         H            0.045724374961     2.306510103264    -0.504750185590     1.007825032230
         H            3.937007374961    -0.123049896736     0.450910814410     1.007825032230
         H            2.818928374961    -1.412303896736     0.943313814410     1.007825032230
         H            3.152609374961    -1.146663896736    -0.772069185590     1.007825032230

  Basis Set: AUG-CC-PVTZ
    Blend: AUG-CC-PVTZ
  Basis Set: (AUG-CC-PVTZ AUX)
    Blend: AUG-CC-PVTZ-JKFIT
	 Reference Energy          =    -289.3135003633369706 [Eh]
	 Singles Energy            =      -0.0000000000000000 [Eh]
	 Same-Spin Energy          =      -0.3063751915704074 [Eh]
	 Opposite-Spin Energy      =      -1.0924244709669644 [Eh]
	 Correlation Energy        =      -1.3987996625373718 [Eh]
	 Total Energy              =    -290.7123000258743559 [Eh]

	 ================> DF-SCS-MP2 Energies <==================
	-----------------------------------------------------------
	 SCS Same-Spin Scale       =       0.3333333333333333 [-]
	 SCS Opposite-Spin Scale   =       1.2000000000000000 [-]
	 SCS Same-Spin Energy      =      -0.1021250638568025 [Eh]
	 SCS Opposite-Spin Energy  =      -1.3109093651603572 [Eh]
	 SCS Correlation Energy    =      -1.4130344290171597 [Eh]
	 SCS Total Energy          =    -290.7265347923541299 [Eh]
	-----------------------------------------------------------

  Dipole Moment: [D]
     X:    -0.8244      Y:     1.7501      Z:     0.3681     Total:     1.9692

*** Psi4 exiting successfully. Buy a developer a beer!
