                               Psi4 1.4a3.dev225

  ==> Input File <==

--------------------------------------------------------------------------
#psi4
#
memory 32 gb

molecule  {
0 1
  N        0.6335420    -0.4278790    -0.2728430
  C       -1.7313700    -0.5561300    -0.6201830
  C       -0.4830900     0.2151130    -0.2797610
  C        1.8471620     0.3055680     0.0922530
  C       -2.6435280    -0.7283840     0.5986220
  C       -0.6406980     1.6798450     0.0649420
  C        3.0338012    -0.6734618     0.1723935
  H       -1.4212120    -1.5322710    -1.0024030
  H       -2.2765240    -0.0356590    -1.4187580
  H        2.0539910     1.0846830    -0.6562090
  H        1.7201950     0.8226000     1.0546610
  H       -3.5369580    -1.3025810     0.3373160
  H       -2.9717700     0.2361610     0.9972690
  H       -2.1143980    -1.2633090     1.3922570
  H       -0.4113830     1.8596200     1.1216760
  H       -1.6576830     2.0281380    -0.1274070
  H        0.0520880     2.2919400    -0.5220660
  H        3.9433710    -0.1376200     0.4335950
  H        2.8252920    -1.4268740     0.9259980
  H        3.1589730    -1.1612340    -0.7893850
units angstrom
no_reorient  #important for SAPT in psi4, default
symmetry c1  #important for SAPT in psi4, default
}

set PROPERTIES_ORIGIN ["COM"]
properties('MP2/aug-cc-pvtz', properties = ['dipole'])
--------------------------------------------------------------------------

    Molecular point group: c1
  Charge       = 0
  Multiplicity = 1
  Basis Set: AUG-CC-PVTZ
    Blend: AUG-CC-PVTZ
  Basis Set: (AUG-CC-PVTZ AUX)
    Blend: AUG-CC-PVTZ-JKFIT

    Orbital Energies [Eh]
    ---------------------

    Doubly Occupied:

       1A    -15.538711     2A    -11.275626     3A    -11.242854
       4A    -11.231586     5A    -11.223512     6A    -11.219849
       7A    -11.201607     8A     -1.216949     9A     -1.058336
      10A     -0.996567    11A     -0.971204    12A     -0.877825
      13A     -0.818033    14A     -0.708187    15A     -0.651364
      16A     -0.626904    17A     -0.615357    18A     -0.590042
      19A     -0.575607    20A     -0.551802    21A     -0.535975
      22A     -0.515112    23A     -0.511934    24A     -0.496592
      25A     -0.486116    26A     -0.474429    27A     -0.384923
      28A     -0.380532

  @DF-RHF Final Energy:  -289.31383077045143

   => Energetics <=

    Nuclear Repulsion Energy =            307.3255956249747669
    One-Electron Energy =                -999.3237827355484342
    Two-Electron Energy =                 402.6843563401222355
    Total Energy =                       -289.3138307704514318
  Basis Set: (AUG-CC-PVTZ AUX)
    Blend: AUG-CC-PVTZ-RI
    Molecular point group: c1

    Geometry (in Angstrom), charge = 0, multiplicity = 1:

       Center              X                  Y                   Z               Mass
    ------------   -----------------  -----------------  -----------------  -----------------
         N            0.625289452653    -0.411674212330    -0.255475203813    14.003074004430
         C           -1.739622547347    -0.539925212330    -0.602815203813    12.000000000000
         C           -0.491342547347     0.231317787670    -0.262393203813    12.000000000000
         C            1.838909452653     0.321772787670     0.109620796187    12.000000000000
         C           -2.651780547347    -0.712179212330     0.615989796187    12.000000000000
         C           -0.648950547347     1.696049787670     0.082309796187    12.000000000000
         C            3.025548652653    -0.657257012330     0.189761296187    12.000000000000
         H           -1.429464547347    -1.516066212330    -0.985035203813     1.007825032230
         H           -2.284776547347    -0.019454212330    -1.401390203813     1.007825032230
         H            2.045738452653     1.100887787670    -0.638841203813     1.007825032230
         H            1.711942452653     0.838804787670     1.072028796187     1.007825032230
         H           -3.545210547347    -1.286376212330     0.354683796187     1.007825032230
         H           -2.980022547347     0.252365787670     1.014636796187     1.007825032230
         H           -2.122650547347    -1.247104212330     1.409624796187     1.007825032230
         H           -0.419635547347     1.875824787670     1.139043796187     1.007825032230
         H           -1.665935547347     2.044342787670    -0.110039203813     1.007825032230
         H            0.043835452653     2.308144787670    -0.504698203813     1.007825032230
         H            3.935118452653    -0.121415212330     0.450962796187     1.007825032230
         H            2.817039452653    -1.410669212330     0.943365796187     1.007825032230
         H            3.150720452653    -1.145029212330    -0.772017203813     1.007825032230

  Basis Set: AUG-CC-PVTZ
    Blend: AUG-CC-PVTZ
  Basis Set: (AUG-CC-PVTZ AUX)
    Blend: AUG-CC-PVTZ-JKFIT
	 Reference Energy          =    -289.3138307704514318 [Eh]
	 Singles Energy            =      -0.0000000000000000 [Eh]
	 Same-Spin Energy          =      -0.3062543216593709 [Eh]
	 Opposite-Spin Energy      =      -1.0922327949610848 [Eh]
	 Correlation Energy        =      -1.3984871166204558 [Eh]
	 Total Energy              =    -290.7123178870718903 [Eh]

	 ================> DF-SCS-MP2 Energies <==================
	-----------------------------------------------------------
	 SCS Same-Spin Scale       =       0.3333333333333333 [-]
	 SCS Opposite-Spin Scale   =       1.2000000000000000 [-]
	 SCS Same-Spin Energy      =      -0.1020847738864570 [Eh]
	 SCS Opposite-Spin Energy  =      -1.3106793539533017 [Eh]
	 SCS Correlation Energy    =      -1.4127641278397587 [Eh]
	 SCS Total Energy          =    -290.7265948982911823 [Eh]
	-----------------------------------------------------------

  Dipole Moment: [D]
     X:    -0.8234      Y:     1.7620      Z:     0.3803     Total:     1.9817

*** Psi4 exiting successfully. Buy a developer a beer!
