                               Psi4 1.4a3.dev225

  ==> Input File <==

--------------------------------------------------------------------------
#psi4
#
memory 32 gb

molecule  {
0 1
  N        0.6335420    -0.4278790    -0.2728430
  C       -1.6188794    -0.6339033    -0.5364365
  C       -0.4830900     0.2151130    -0.2797610
  C        1.8471620     0.3055680     0.0922530
  C       -2.6435280    -0.7283840     0.5986220
  C       -0.6406980     1.6798450     0.0649420
  C        3.0183950    -0.6607510     0.1713530
  H       -1.4212120    -1.5322710    -1.0024030
  H       -2.2765240    -0.0356590    -1.4187580
  H        2.0539910     1.0846830    -0.6562090
  H        1.7201950     0.8226000     1.0546610
  H       -3.5369580    -1.3025810     0.3373160
  H       -2.9717700     0.2361610     0.9972690
  H       -2.1143980    -1.2633090     1.3922570
  H       -0.4113830     1.8596200     1.1216760
  H       -1.6576830     2.0281380    -0.1274070
  H        0.0520880     2.2919400    -0.5220660
  H        3.9433710    -0.1376200     0.4335950
  H        2.8252920    -1.4268740     0.9259980
  H        3.1589730    -1.1612340    -0.7893850
units angstrom
no_reorient  #important for SAPT in psi4, default
symmetry c1  #important for SAPT in psi4, default
}

set PROPERTIES_ORIGIN ["COM"]
properties('MP2/aug-cc-pvtz', properties = ['dipole'])
--------------------------------------------------------------------------

    Molecular point group: c1
  Charge       = 0
  Multiplicity = 1
  Basis Set: AUG-CC-PVTZ
    Blend: AUG-CC-PVTZ
  Basis Set: (AUG-CC-PVTZ AUX)
    Blend: AUG-CC-PVTZ-JKFIT

    Orbital Energies [Eh]
    ---------------------

    Doubly Occupied:

       1A    -15.537894     2A    -11.273952     3A    -11.241009
       4A    -11.234940     5A    -11.230011     6A    -11.222184
       7A    -11.202325     8A     -1.223014     9A     -1.063645
      10A     -0.998140    11A     -0.974379    12A     -0.885177
      13A     -0.813582    14A     -0.715633    15A     -0.658290
      16A     -0.627701    17A     -0.613507    18A     -0.590036
      19A     -0.573770    20A     -0.555243    21A     -0.543846
      22A     -0.519157    23A     -0.510480    24A     -0.495376
      25A     -0.488575    26A     -0.457850    27A     -0.390152
      28A     -0.371823

  @DF-RHF Final Energy:  -289.28926099903242

   => Energetics <=

    Nuclear Repulsion Energy =            308.7780839163991118
    One-Electron Energy =               -1002.1113062499186981
    Two-Electron Energy =                 404.0439613344872214
    Total Energy =                       -289.2892609990324218
  Basis Set: (AUG-CC-PVTZ AUX)
    Blend: AUG-CC-PVTZ-RI
    Molecular point group: c1

    Geometry (in Angstrom), charge = 0, multiplicity = 1:

       Center              X                  Y                   Z               Mass
    ------------   -----------------  -----------------  -----------------  -----------------
         N            0.613534090584    -0.403796188213    -0.265489572500    14.003074004430
         C           -1.638887309416    -0.609820488213    -0.529083072500    12.000000000000
         C           -0.503097909416     0.239195811787    -0.272407572500    12.000000000000
         C            1.827154090584     0.329650811787     0.099606427500    12.000000000000
         C           -2.663535909416    -0.704301188213     0.605975427500    12.000000000000
         C           -0.660705909416     1.703927811787     0.072295427500    12.000000000000
         C            2.998387090584    -0.636668188213     0.178706427500    12.000000000000
         H           -1.441219909416    -1.508188188213    -0.995049572500     1.007825032230
         H           -2.296531909416    -0.011576188213    -1.411404572500     1.007825032230
         H            2.033983090584     1.108765811787    -0.648855572500     1.007825032230
         H            1.700187090584     0.846682811787     1.062014427500     1.007825032230
         H           -3.556965909416    -1.278498188213     0.344669427500     1.007825032230
         H           -2.991777909416     0.260243811787     1.004622427500     1.007825032230
         H           -2.134405909416    -1.239226188213     1.399610427500     1.007825032230
         H           -0.431390909416     1.883702811787     1.129029427500     1.007825032230
         H           -1.677690909416     2.052220811787    -0.120053572500     1.007825032230
         H            0.032080090584     2.316022811787    -0.514712572500     1.007825032230
         H            3.923363090584    -0.113537188213     0.440948427500     1.007825032230
         H            2.805284090584    -1.402791188213     0.933351427500     1.007825032230
         H            3.138965090584    -1.137151188213    -0.782031572500     1.007825032230

  Basis Set: AUG-CC-PVTZ
    Blend: AUG-CC-PVTZ
  Basis Set: (AUG-CC-PVTZ AUX)
    Blend: AUG-CC-PVTZ-JKFIT
	 Reference Energy          =    -289.2892609990324218 [Eh]
	 Singles Energy            =      -0.0000000000000000 [Eh]
	 Same-Spin Energy          =      -0.3072911386852817 [Eh]
	 Opposite-Spin Energy      =      -1.0940321162323103 [Eh]
	 Correlation Energy        =      -1.4013232549175920 [Eh]
	 Total Energy              =    -290.6905842539500213 [Eh]

	 ================> DF-SCS-MP2 Energies <==================
	-----------------------------------------------------------
	 SCS Same-Spin Scale       =       0.3333333333333333 [-]
	 SCS Opposite-Spin Scale   =       1.2000000000000000 [-]
	 SCS Same-Spin Energy      =      -0.1024303795617606 [Eh]
	 SCS Opposite-Spin Energy  =      -1.3128385394787723 [Eh]
	 SCS Correlation Energy    =      -1.4152689190405328 [Eh]
	 SCS Total Energy          =    -290.7045299180729785 [Eh]
	-----------------------------------------------------------

  Dipole Moment: [D]
     X:    -0.8246      Y:     1.7066      Z:     0.4788     Total:     1.9549

*** Psi4 exiting successfully. Buy a developer a beer!
