                               Psi4 1.4a3.dev225

  ==> Input File <==

--------------------------------------------------------------------------
#psi4
#
memory 32 gb

molecule  {
0 1
  N        0.6335420    -0.4278790    -0.2728430
  C       -1.7313700    -0.5561300    -0.6201830
  C       -0.4830900     0.2151130    -0.2797610
  C        1.8471620     0.3055680     0.0922530
  C       -2.6435280    -0.7283840     0.5986220
  C       -0.6406980     1.6798450     0.0649420
  C        3.0183950    -0.6607510     0.1713530
  H       -1.4212120    -1.5322710    -1.0024030
  H       -2.2765240    -0.0356590    -1.4187580
  H        2.0539910     1.0846830    -0.6562090
  H        1.7201950     0.8226000     1.0546610
  H       -3.6186461    -1.3550810     0.3134243
  H       -2.9717700     0.2361610     0.9972690
  H       -2.1143980    -1.2633090     1.3922570
  H       -0.4113830     1.8596200     1.1216760
  H       -1.6576830     2.0281380    -0.1274070
  H        0.0520880     2.2919400    -0.5220660
  H        3.9433710    -0.1376200     0.4335950
  H        2.8252920    -1.4268740     0.9259980
  H        3.1589730    -1.1612340    -0.7893850
units angstrom
no_reorient  #important for SAPT in psi4, default
symmetry c1  #important for SAPT in psi4, default
}

set PROPERTIES_ORIGIN ["COM"]
properties('MP2/aug-cc-pvtz', properties = ['dipole'])
--------------------------------------------------------------------------

    Molecular point group: c1
  Charge       = 0
  Multiplicity = 1
  Basis Set: AUG-CC-PVTZ
    Blend: AUG-CC-PVTZ
  Basis Set: (AUG-CC-PVTZ AUX)
    Blend: AUG-CC-PVTZ-JKFIT

    Orbital Energies [Eh]
    ---------------------

    Doubly Occupied:

       1A    -15.539679     2A    -11.276528     3A    -11.242655
       4A    -11.232282     5A    -11.231880     6A    -11.224552
       7A    -11.202796     8A     -1.218181     9A     -1.058890
      10A     -0.996522    11A     -0.972206    12A     -0.872809
      13A     -0.816182    14A     -0.709320    15A     -0.651969
      16A     -0.626649    17A     -0.615457    18A     -0.591059
      19A     -0.575717    20A     -0.544454    21A     -0.532116
      22A     -0.514726    23A     -0.511809    24A     -0.493579
      25A     -0.486978    26A     -0.473320    27A     -0.385930
      28A     -0.381315

  @DF-RHF Final Energy:  -289.30757237963331

   => Energetics <=

    Nuclear Repulsion Energy =            307.1895474759232911
    One-Electron Energy =                -999.0351213880783234
    Two-Electron Energy =                 402.5380015325217187
    Total Energy =                       -289.3075723796333136
  Basis Set: (AUG-CC-PVTZ AUX)
    Blend: AUG-CC-PVTZ-RI
    Molecular point group: c1

    Geometry (in Angstrom), charge = 0, multiplicity = 1:

       Center              X                  Y                   Z               Mass
    ------------   -----------------  -----------------  -----------------  -----------------
         N            0.627985605751    -0.412679398622    -0.255106254443    14.003074004430
         C           -1.736926394249    -0.540930398622    -0.602446254443    12.000000000000
         C           -0.488646394249     0.230312601378    -0.262024254443    12.000000000000
         C            1.841605605751     0.320767601378     0.109989745557    12.000000000000
         C           -2.649084394249    -0.713184398622     0.616358745557    12.000000000000
         C           -0.646254394249     1.695044601378     0.082678745557    12.000000000000
         C            3.012838605751    -0.645551398622     0.189089745557    12.000000000000
         H           -1.426768394249    -1.517071398622    -0.984666254443     1.007825032230
         H           -2.282080394249    -0.020459398622    -1.401021254443     1.007825032230
         H            2.048434605751     1.099882601378    -0.638472254443     1.007825032230
         H            1.714638605751     0.837799601378     1.072397745557     1.007825032230
         H           -3.624202494249    -1.339881398622     0.331161045557     1.007825032230
         H           -2.977326394249     0.251360601378     1.015005745557     1.007825032230
         H           -2.119954394249    -1.248109398622     1.409993745557     1.007825032230
         H           -0.416939394249     1.874819601378     1.139412745557     1.007825032230
         H           -1.663239394249     2.043337601378    -0.109670254443     1.007825032230
         H            0.046531605751     2.307139601378    -0.504329254443     1.007825032230
         H            3.937814605751    -0.122420398622     0.451331745557     1.007825032230
         H            2.819735605751    -1.411674398622     0.943734745557     1.007825032230
         H            3.153416605751    -1.146034398622    -0.771648254443     1.007825032230

  Basis Set: AUG-CC-PVTZ
    Blend: AUG-CC-PVTZ
  Basis Set: (AUG-CC-PVTZ AUX)
    Blend: AUG-CC-PVTZ-JKFIT
	 Reference Energy          =    -289.3075723796333136 [Eh]
	 Singles Energy            =      -0.0000000000000000 [Eh]
	 Same-Spin Energy          =      -0.3063068048895543 [Eh]
	 Opposite-Spin Energy      =      -1.0929688154330059 [Eh]
	 Correlation Energy        =      -1.3992756203225603 [Eh]
	 Total Energy              =    -290.7068479999558690 [Eh]

	 ================> DF-SCS-MP2 Energies <==================
	-----------------------------------------------------------
	 SCS Same-Spin Scale       =       0.3333333333333333 [-]
	 SCS Opposite-Spin Scale   =       1.2000000000000000 [-]
	 SCS Same-Spin Energy      =      -0.1021022682965181 [Eh]
	 SCS Opposite-Spin Energy  =      -1.3115625785196070 [Eh]
	 SCS Correlation Energy    =      -1.4136648468161250 [Eh]
	 SCS Total Energy          =    -290.7212372264494320 [Eh]
	-----------------------------------------------------------

  Dipole Moment: [D]
     X:    -0.7382      Y:     1.8001      Z:     0.3797     Total:     1.9823

*** Psi4 exiting successfully. Buy a developer a beer!
