                               Psi4 1.4a3.dev225

  ==> Input File <==

--------------------------------------------------------------------------
#psi4
#
memory 32 gb

molecule  {
0 1
  N        0.6335420    -0.4278790    -0.2728430
  C       -1.7313700    -0.5561300    -0.6201830
  C       -0.4830900     0.2151130    -0.2797610
  C        1.8471620     0.3055680     0.0922530
  C       -2.6435280    -0.7283840     0.5986220
  C       -0.6406980     1.6798450     0.0649420
  C        3.0569106    -0.6925281     0.1739542
  H       -1.4212120    -1.5322710    -1.0024030
  H       -2.2765240    -0.0356590    -1.4187580
  H        2.0539910     1.0846830    -0.6562090
  H        1.7201950     0.8226000     1.0546610
  H       -3.5369580    -1.3025810     0.3373160
  H       -2.9717700     0.2361610     0.9972690
  H       -2.1143980    -1.2633090     1.3922570
  H       -0.4113830     1.8596200     1.1216760
  H       -1.6576830     2.0281380    -0.1274070
  H        0.0520880     2.2919400    -0.5220660
  H        3.9433710    -0.1376200     0.4335950
  H        2.8252920    -1.4268740     0.9259980
  H        3.1589730    -1.1612340    -0.7893850
units angstrom
no_reorient  #important for SAPT in psi4, default
symmetry c1  #important for SAPT in psi4, default
}

set PROPERTIES_ORIGIN ["COM"]
properties('MP2/aug-cc-pvtz', properties = ['dipole'])
--------------------------------------------------------------------------

    Molecular point group: c1
  Charge       = 0
  Multiplicity = 1
  Basis Set: AUG-CC-PVTZ
    Blend: AUG-CC-PVTZ
  Basis Set: (AUG-CC-PVTZ AUX)
    Blend: AUG-CC-PVTZ-JKFIT

    Orbital Energies [Eh]
    ---------------------

    Doubly Occupied:

       1A    -15.538769     2A    -11.275514     3A    -11.244017
       4A    -11.231488     5A    -11.223442     6A    -11.219797
       7A    -11.200721     8A     -1.216424     9A     -1.057053
      10A     -0.994371    11A     -0.970350    12A     -0.878591
      13A     -0.819325    14A     -0.707547    15A     -0.650819
      16A     -0.626246    17A     -0.614655    18A     -0.589997
      19A     -0.575805    20A     -0.551633    21A     -0.537700
      22A     -0.516848    23A     -0.510634    24A     -0.501570
      25A     -0.486129    26A     -0.468957    27A     -0.384176
      28A     -0.380433

  @DF-RHF Final Energy:  -289.31218374022444

   => Energetics <=

    Nuclear Repulsion Energy =            306.9174579067123432
    One-Electron Energy =                -998.5132626407944372
    Two-Electron Energy =                 402.2836209938576530
    Total Energy =                       -289.3121837402244410
  Basis Set: (AUG-CC-PVTZ AUX)
    Blend: AUG-CC-PVTZ-RI
    Molecular point group: c1

    Geometry (in Angstrom), charge = 0, multiplicity = 1:

       Center              X                  Y                   Z               Mass
    ------------   -----------------  -----------------  -----------------  -----------------
         N            0.622491275354    -0.409365589525    -0.255664179525    14.003074004430
         C           -1.742420724646    -0.537616589525    -0.603004179525    12.000000000000
         C           -0.494140724646     0.233626410475    -0.262582179525    12.000000000000
         C            1.836111275354     0.324081410475     0.109431820475    12.000000000000
         C           -2.654578724646    -0.709870589525     0.615800820475    12.000000000000
         C           -0.651748724646     1.698358410475     0.082120820475    12.000000000000
         C            3.045859875354    -0.674014689525     0.191133020475    12.000000000000
         H           -1.432262724646    -1.513757589525    -0.985224179525     1.007825032230
         H           -2.287574724646    -0.017145589525    -1.401579179525     1.007825032230
         H            2.042940275354     1.103196410475    -0.639030179525     1.007825032230
         H            1.709144275354     0.841113410475     1.071839820475     1.007825032230
         H           -3.548008724646    -1.284067589525     0.354494820475     1.007825032230
         H           -2.982820724646     0.254674410475     1.014447820475     1.007825032230
         H           -2.125448724646    -1.244795589525     1.409435820475     1.007825032230
         H           -0.422433724646     1.878133410475     1.138854820475     1.007825032230
         H           -1.668733724646     2.046651410475    -0.110228179525     1.007825032230
         H            0.041037275354     2.310453410475    -0.504887179525     1.007825032230
         H            3.932320275354    -0.119106589525     0.450773820475     1.007825032230
         H            2.814241275354    -1.408360589525     0.943176820475     1.007825032230
         H            3.147922275354    -1.142720589525    -0.772206179525     1.007825032230

  Basis Set: AUG-CC-PVTZ
    Blend: AUG-CC-PVTZ
  Basis Set: (AUG-CC-PVTZ AUX)
    Blend: AUG-CC-PVTZ-JKFIT
	 Reference Energy          =    -289.3121837402244410 [Eh]
	 Singles Energy            =      -0.0000000000000000 [Eh]
	 Same-Spin Energy          =      -0.3061708615059556 [Eh]
	 Opposite-Spin Energy      =      -1.0922494795509727 [Eh]
	 Correlation Energy        =      -1.3984203410569283 [Eh]
	 Total Energy              =    -290.7106040812813603 [Eh]

	 ================> DF-SCS-MP2 Energies <==================
	-----------------------------------------------------------
	 SCS Same-Spin Scale       =       0.3333333333333333 [-]
	 SCS Opposite-Spin Scale   =       1.2000000000000000 [-]
	 SCS Same-Spin Energy      =      -0.1020569538353185 [Eh]
	 SCS Opposite-Spin Energy  =      -1.3106993754611673 [Eh]
	 SCS Correlation Energy    =      -1.4127563292964858 [Eh]
	 SCS Total Energy          =    -290.7249400695209260 [Eh]
	-----------------------------------------------------------

  Dipole Moment: [D]
     X:    -0.8278      Y:     1.7655      Z:     0.3798     Total:     1.9866

*** Psi4 exiting successfully. Buy a developer a beer!
