                               Psi4 1.4a3.dev225

  ==> Input File <==

--------------------------------------------------------------------------
#psi4
#
memory 32 gb

molecule  {
0 1
  N        0.6335420    -0.4278790    -0.2728430
  C       -1.7313700    -0.5561300    -0.6201830
  C       -0.4830900     0.2151130    -0.2797610
  C        1.8471620     0.3055680     0.0922530
  C       -2.6236102    -0.7407412     0.6114888
  C       -0.6406980     1.6798450     0.0649420
  C        3.0183950    -0.6607510     0.1713530
  H       -1.4212120    -1.5322710    -1.0024030
  H       -2.2765240    -0.0356590    -1.4187580
  H        2.0539910     1.0846830    -0.6562090
  H        1.7201950     0.8226000     1.0546610
  H       -3.5369580    -1.3025810     0.3373160
  H       -2.9717700     0.2361610     0.9972690
  H       -2.1143980    -1.2633090     1.3922570
  H       -0.4113830     1.8596200     1.1216760
  H       -1.6576830     2.0281380    -0.1274070
  H        0.0520880     2.2919400    -0.5220660
  H        3.9433710    -0.1376200     0.4335950
  H        2.8252920    -1.4268740     0.9259980
  H        3.1589730    -1.1612340    -0.7893850
units angstrom
no_reorient  #important for SAPT in psi4, default
symmetry c1  #important for SAPT in psi4, default
}

set PROPERTIES_ORIGIN ["COM"]
properties('MP2/aug-cc-pvtz', properties = ['dipole'])
--------------------------------------------------------------------------

    Molecular point group: c1
  Charge       = 0
  Multiplicity = 1
  Basis Set: AUG-CC-PVTZ
    Blend: AUG-CC-PVTZ
  Basis Set: (AUG-CC-PVTZ AUX)
    Blend: AUG-CC-PVTZ-JKFIT

    Orbital Energies [Eh]
    ---------------------

    Doubly Occupied:

       1A    -15.538487     2A    -11.275497     3A    -11.241939
       4A    -11.231569     5A    -11.223616     6A    -11.220054
       7A    -11.202311     8A     -1.217261     9A     -1.059420
      10A     -0.998094    11A     -0.971692    12A     -0.877254
      13A     -0.817200    14A     -0.708658    15A     -0.651406
      16A     -0.627558    17A     -0.616836    18A     -0.590347
      19A     -0.575893    20A     -0.548318    21A     -0.534693
      22A     -0.519895    23A     -0.511284    24A     -0.493490
      25A     -0.485372    26A     -0.476141    27A     -0.385116
      28A     -0.380494

  @DF-RHF Final Energy:  -289.31324358328430

   => Energetics <=

    Nuclear Repulsion Energy =            307.6845064312062163
    One-Electron Energy =               -1000.0357120156537576
    Two-Electron Energy =                 403.0379620011632937
    Total Energy =                       -289.3132435832843043
  Basis Set: (AUG-CC-PVTZ AUX)
    Blend: AUG-CC-PVTZ-RI
    Molecular point group: c1

    Geometry (in Angstrom), charge = 0, multiplicity = 1:

       Center              X                  Y                   Z               Mass
    ------------   -----------------  -----------------  -----------------  -----------------
         N            0.624743170330    -0.411717027613    -0.256907178862    14.003074004430
         C           -1.740168829670    -0.539968027613    -0.604247178862    12.000000000000
         C           -0.491888829670     0.231274972387    -0.263825178862    12.000000000000
         C            1.838363170330     0.321729972387     0.108188821138    12.000000000000
         C           -2.632409029670    -0.724579227613     0.627424621138    12.000000000000
         C           -0.649496829670     1.696006972387     0.080877821138    12.000000000000
         C            3.009596170330    -0.644589027613     0.187288821138    12.000000000000
         H           -1.430010829670    -1.516109027613    -0.986467178862     1.007825032230
         H           -2.285322829670    -0.019497027613    -1.402822178862     1.007825032230
         H            2.045192170330     1.100844972387    -0.640273178862     1.007825032230
         H            1.711396170330     0.838761972387     1.070596821138     1.007825032230
         H           -3.545756829670    -1.286419027613     0.353251821138     1.007825032230
         H           -2.980568829670     0.252322972387     1.013204821138     1.007825032230
         H           -2.123196829670    -1.247147027613     1.408192821138     1.007825032230
         H           -0.420181829670     1.875781972387     1.137611821138     1.007825032230
         H           -1.666481829670     2.044299972387    -0.111471178862     1.007825032230
         H            0.043289170330     2.308101972387    -0.506130178862     1.007825032230
         H            3.934572170330    -0.121458027613     0.449530821138     1.007825032230
         H            2.816493170330    -1.410712027613     0.941933821138     1.007825032230
         H            3.150174170330    -1.145072027613    -0.773449178862     1.007825032230

  Basis Set: AUG-CC-PVTZ
    Blend: AUG-CC-PVTZ
  Basis Set: (AUG-CC-PVTZ AUX)
    Blend: AUG-CC-PVTZ-JKFIT
	 Reference Energy          =    -289.3132435832843043 [Eh]
	 Singles Energy            =      -0.0000000000000000 [Eh]
	 Same-Spin Energy          =      -0.3063634799616770 [Eh]
	 Opposite-Spin Energy      =      -1.0923289095740145 [Eh]
	 Correlation Energy        =      -1.3986923895356915 [Eh]
	 Total Energy              =    -290.7119359728200152 [Eh]

	 ================> DF-SCS-MP2 Energies <==================
	-----------------------------------------------------------
	 SCS Same-Spin Scale       =       0.3333333333333333 [-]
	 SCS Opposite-Spin Scale   =       1.2000000000000000 [-]
	 SCS Same-Spin Energy      =      -0.1021211599872257 [Eh]
	 SCS Opposite-Spin Energy  =      -1.3107946914888173 [Eh]
	 SCS Correlation Energy    =      -1.4129158514760429 [Eh]
	 SCS Total Energy          =    -290.7261594347603477 [Eh]
	-----------------------------------------------------------

  Dipole Moment: [D]
     X:    -0.8196      Y:     1.7546      Z:     0.3825     Total:     1.9740

*** Psi4 exiting successfully. Buy a developer a beer!
