                               Psi4 1.4a3.dev225

  ==> Input File <==

--------------------------------------------------------------------------
#psi4
#
memory 32 gb

molecule  {
0 1
  N        0.6335420    -0.4278790    -0.2728430
  C       -1.7225633    -0.7161574    -0.6256589
  C       -0.4830900     0.2151130    -0.2797610
  C        1.8471620     0.3055680     0.0922530
  C       -2.6435280    -0.7283840     0.5986220
  C       -0.6406980     1.6798450     0.0649420
  C        3.0183950    -0.6607510     0.1713530
  H       -1.4212120    -1.5322710    -1.0024030
  H       -2.2765240    -0.0356590    -1.4187580
  H        2.0539910     1.0846830    -0.6562090
  H        1.7201950     0.8226000     1.0546610
  H       -3.5369580    -1.3025810     0.3373160
  H       -2.9717700     0.2361610     0.9972690
  H       -2.1143980    -1.2633090     1.3922570
  H       -0.4113830     1.8596200     1.1216760
  H       -1.6576830     2.0281380    -0.1274070
  H        0.0520880     2.2919400    -0.5220660
  H        3.9433710    -0.1376200     0.4335950
  H        2.8252920    -1.4268740     0.9259980
  H        3.1589730    -1.1612340    -0.7893850
units angstrom
no_reorient  #important for SAPT in psi4, default
symmetry c1  #important for SAPT in psi4, default
}

set PROPERTIES_ORIGIN ["COM"]
properties('MP2/aug-cc-pvtz', properties = ['dipole'])
--------------------------------------------------------------------------

    Molecular point group: c1
  Charge       = 0
  Multiplicity = 1
  Basis Set: AUG-CC-PVTZ
    Blend: AUG-CC-PVTZ
  Basis Set: (AUG-CC-PVTZ AUX)
    Blend: AUG-CC-PVTZ-JKFIT

    Orbital Energies [Eh]
    ---------------------

    Doubly Occupied:

       1A    -15.536021     2A    -11.278511     3A    -11.240266
       4A    -11.235405     5A    -11.226100     6A    -11.220566
       7A    -11.201643     8A     -1.214461     9A     -1.053505
      10A     -0.999967    11A     -0.972818    12A     -0.875114
      13A     -0.819375    14A     -0.712605    15A     -0.656175
      16A     -0.624204    17A     -0.607692    18A     -0.592099
      19A     -0.574933    20A     -0.555154    21A     -0.544772
      22A     -0.528457    23A     -0.510300    24A     -0.494432
      25A     -0.483624    26A     -0.459385    27A     -0.380403
      28A     -0.377177

  @DF-RHF Final Energy:  -289.28201111772751

   => Energetics <=

    Nuclear Repulsion Energy =            306.6081241119088645
    One-Electron Energy =                -997.8299408830516768
    Two-Electron Energy =                 401.9398056534153056
    Total Energy =                       -289.2820111177275066
  Basis Set: (AUG-CC-PVTZ AUX)
    Blend: AUG-CC-PVTZ-RI
    Molecular point group: c1

    Geometry (in Angstrom), charge = 0, multiplicity = 1:

       Center              X                  Y                   Z               Mass
    ------------   -----------------  -----------------  -----------------  -----------------
         N            0.626088546142    -0.393836537361    -0.254686172400    14.003074004430
         C           -1.730016753858    -0.682114937361    -0.607502072400    12.000000000000
         C           -0.490543453858     0.249155462639    -0.261604172400    12.000000000000
         C            1.839708546142     0.339610462639     0.110409827600    12.000000000000
         C           -2.650981453858    -0.694341537361     0.616778827600    12.000000000000
         C           -0.648151453858     1.713887462639     0.083098827600    12.000000000000
         C            3.010941546142    -0.626708537361     0.189509827600    12.000000000000
         H           -1.428665453858    -1.498228537361    -0.984246172400     1.007825032230
         H           -2.283977453858    -0.001616537361    -1.400601172400     1.007825032230
         H            2.046537546142     1.118725462639    -0.638052172400     1.007825032230
         H            1.712741546142     0.856642462639     1.072817827600     1.007825032230
         H           -3.544411453858    -1.268538537361     0.355472827600     1.007825032230
         H           -2.979223453858     0.270203462639     1.015425827600     1.007825032230
         H           -2.121851453858    -1.229266537361     1.410413827600     1.007825032230
         H           -0.418836453858     1.893662462639     1.139832827600     1.007825032230
         H           -1.665136453858     2.062180462639    -0.109250172400     1.007825032230
         H            0.044634546142     2.325982462639    -0.503909172400     1.007825032230
         H            3.935917546142    -0.103577537361     0.451751827600     1.007825032230
         H            2.817838546142    -1.392831537361     0.944154827600     1.007825032230
         H            3.151519546142    -1.127191537361    -0.771228172400     1.007825032230

  Basis Set: AUG-CC-PVTZ
    Blend: AUG-CC-PVTZ
  Basis Set: (AUG-CC-PVTZ AUX)
    Blend: AUG-CC-PVTZ-JKFIT
	 Reference Energy          =    -289.2820111177275066 [Eh]
	 Singles Energy            =      -0.0000000000000000 [Eh]
	 Same-Spin Energy          =      -0.3063175185563304 [Eh]
	 Opposite-Spin Energy      =      -1.0932976479793508 [Eh]
	 Correlation Energy        =      -1.3996151665356811 [Eh]
	 Total Energy              =    -290.6816262842631886 [Eh]

	 ================> DF-SCS-MP2 Energies <==================
	-----------------------------------------------------------
	 SCS Same-Spin Scale       =       0.3333333333333333 [-]
	 SCS Opposite-Spin Scale   =       1.2000000000000000 [-]
	 SCS Same-Spin Energy      =      -0.1021058395187768 [Eh]
	 SCS Opposite-Spin Energy  =      -1.3119571775752210 [Eh]
	 SCS Correlation Energy    =      -1.4140630170939978 [Eh]
	 SCS Total Energy          =    -290.6960741348215151 [Eh]
	-----------------------------------------------------------

  Dipole Moment: [D]
     X:    -0.7982      Y:     1.7768      Z:     0.4469     Total:     1.9985

*** Psi4 exiting successfully. Buy a developer a beer!
