                               Psi4 1.4a3.dev225

  ==> Input File <==

--------------------------------------------------------------------------
#psi4
#
memory 32 gb

molecule  {
0 1
  N        0.6335420    -0.4278790    -0.2728430
  C       -1.7313700    -0.5561300    -0.6201830
  C       -0.3964318     0.1652125    -0.2792241
  C        1.8471620     0.3055680     0.0922530
  C       -2.6435280    -0.7283840     0.5986220
  C       -0.6406980     1.6798450     0.0649420
  C        3.0183950    -0.6607510     0.1713530
  H       -1.4212120    -1.5322710    -1.0024030
  H       -2.2765240    -0.0356590    -1.4187580
  H        2.0539910     1.0846830    -0.6562090
  H        1.7201950     0.8226000     1.0546610
  H       -3.5369580    -1.3025810     0.3373160
  H       -2.9717700     0.2361610     0.9972690
  H       -2.1143980    -1.2633090     1.3922570
  H       -0.4113830     1.8596200     1.1216760
  H       -1.6576830     2.0281380    -0.1274070
  H        0.0520880     2.2919400    -0.5220660
  H        3.9433710    -0.1376200     0.4335950
  H        2.8252920    -1.4268740     0.9259980
  H        3.1589730    -1.1612340    -0.7893850
units angstrom
no_reorient  #important for SAPT in psi4, default
symmetry c1  #important for SAPT in psi4, default
}

set PROPERTIES_ORIGIN ["COM"]
properties('MP2/aug-cc-pvtz', properties = ['dipole'])
--------------------------------------------------------------------------

    Molecular point group: c1
  Charge       = 0
  Multiplicity = 1
  Basis Set: AUG-CC-PVTZ
    Blend: AUG-CC-PVTZ
  Basis Set: (AUG-CC-PVTZ AUX)
    Blend: AUG-CC-PVTZ-JKFIT

    Orbital Energies [Eh]
    ---------------------

    Doubly Occupied:

       1A    -15.531082     2A    -11.265717     3A    -11.247246
       4A    -11.228530     5A    -11.220528     6A    -11.217344
       7A    -11.205249     8A     -1.256186     9A     -1.049809
      10A     -1.004398    11A     -0.964296    12A     -0.873094
      13A     -0.823390    14A     -0.703881    15A     -0.646633
      16A     -0.631517    17A     -0.618222    18A     -0.593590
      19A     -0.571281    20A     -0.545403    21A     -0.536756
      22A     -0.515689    23A     -0.514274    24A     -0.497469
      25A     -0.487540    26A     -0.472874    27A     -0.411628
      28A     -0.371088

  @DF-RHF Final Energy:  -289.30538679484062

   => Energetics <=

    Nuclear Repulsion Energy =            308.3560756407971439
    One-Electron Energy =               -1001.3134948864870921
    Two-Electron Energy =                 403.6520324508493331
    Total Energy =                       -289.3053867948406150
  Basis Set: (AUG-CC-PVTZ AUX)
    Blend: AUG-CC-PVTZ-RI
    Molecular point group: c1

    Geometry (in Angstrom), charge = 0, multiplicity = 1:

       Center              X                  Y                   Z               Mass
    ------------   -----------------  -----------------  -----------------  -----------------
         N            0.616661979463    -0.407171136772    -0.255414225939    14.003074004430
         C           -1.748250020537    -0.535422136772    -0.602754225939    12.000000000000
         C           -0.413311820537     0.185920363228    -0.261795325939    12.000000000000
         C            1.830281979463     0.326275863228     0.109681774061    12.000000000000
         C           -2.660408020537    -0.707676136772     0.616050774061    12.000000000000
         C           -0.657578020537     1.700552863228     0.082370774061    12.000000000000
         C            3.001514979463    -0.640043136772     0.188781774061    12.000000000000
         H           -1.438092020537    -1.511563136772    -0.984974225939     1.007825032230
         H           -2.293404020537    -0.014951136772    -1.401329225939     1.007825032230
         H            2.037110979463     1.105390863228    -0.638780225939     1.007825032230
         H            1.703314979463     0.843307863228     1.072089774061     1.007825032230
         H           -3.553838020537    -1.281873136772     0.354744774061     1.007825032230
         H           -2.988650020537     0.256868863228     1.014697774061     1.007825032230
         H           -2.131278020537    -1.242601136772     1.409685774061     1.007825032230
         H           -0.428263020537     1.880327863228     1.139104774061     1.007825032230
         H           -1.674563020537     2.048845863228    -0.109978225939     1.007825032230
         H            0.035207979463     2.312647863228    -0.504637225939     1.007825032230
         H            3.926490979463    -0.116912136772     0.451023774061     1.007825032230
         H            2.808411979463    -1.406166136772     0.943426774061     1.007825032230
         H            3.142092979463    -1.140526136772    -0.771956225939     1.007825032230

  Basis Set: AUG-CC-PVTZ
    Blend: AUG-CC-PVTZ
  Basis Set: (AUG-CC-PVTZ AUX)
    Blend: AUG-CC-PVTZ-JKFIT
	 Reference Energy          =    -289.3053867948406150 [Eh]
	 Singles Energy            =      -0.0000000000000000 [Eh]
	 Same-Spin Energy          =      -0.3042245959959055 [Eh]
	 Opposite-Spin Energy      =      -1.0881767386239587 [Eh]
	 Correlation Energy        =      -1.3924013346198643 [Eh]
	 Total Energy              =    -290.6977881294604913 [Eh]

	 ================> DF-SCS-MP2 Energies <==================
	-----------------------------------------------------------
	 SCS Same-Spin Scale       =       0.3333333333333333 [-]
	 SCS Opposite-Spin Scale   =       1.2000000000000000 [-]
	 SCS Same-Spin Energy      =      -0.1014081986653018 [Eh]
	 SCS Opposite-Spin Energy  =      -1.3058120863487503 [Eh]
	 SCS Correlation Energy    =      -1.4072202850140523 [Eh]
	 SCS Total Energy          =    -290.7126070798546493 [Eh]
	-----------------------------------------------------------

  Dipole Moment: [D]
     X:    -0.5084      Y:     1.6204      Z:     0.3758     Total:     1.7394

*** Psi4 exiting successfully. Buy a developer a beer!
