                               Psi4 1.4a3.dev225

  ==> Input File <==

--------------------------------------------------------------------------
#psi4
#
memory 32 gb

molecule  {
0 1
  N        0.6335420    -0.4278790    -0.2728430
  C       -1.7428037    -0.4503860    -0.6091040
  C       -0.4830900     0.2151130    -0.2797610
  C        1.8471620     0.3055680     0.0922530
  C       -2.6435280    -0.7283840     0.5986220
  C       -0.6406980     1.6798450     0.0649420
  C        3.0183950    -0.6607510     0.1713530
  H       -1.4212120    -1.5322710    -1.0024030
  H       -2.2765240    -0.0356590    -1.4187580
  H        2.0539910     1.0846830    -0.6562090
  H        1.7201950     0.8226000     1.0546610
  H       -3.5369580    -1.3025810     0.3373160
  H       -2.9717700     0.2361610     0.9972690
  H       -2.1143980    -1.2633090     1.3922570
  H       -0.4113830     1.8596200     1.1216760
  H       -1.6576830     2.0281380    -0.1274070
  H        0.0520880     2.2919400    -0.5220660
  H        3.9433710    -0.1376200     0.4335950
  H        2.8252920    -1.4268740     0.9259980
  H        3.1589730    -1.1612340    -0.7893850
units angstrom
no_reorient  #important for SAPT in psi4, default
symmetry c1  #important for SAPT in psi4, default
}

set PROPERTIES_ORIGIN ["COM"]
properties('MP2/aug-cc-pvtz', properties = ['dipole'])
--------------------------------------------------------------------------

    Molecular point group: c1
  Charge       = 0
  Multiplicity = 1
  Basis Set: AUG-CC-PVTZ
    Blend: AUG-CC-PVTZ
  Basis Set: (AUG-CC-PVTZ AUX)
    Blend: AUG-CC-PVTZ-JKFIT

    Orbital Energies [Eh]
    ---------------------

    Doubly Occupied:

       1A    -15.541041     2A    -11.275172     3A    -11.243435
       4A    -11.229527     5A    -11.225973     6A    -11.221738
       7A    -11.202976     8A     -1.219503     9A     -1.065176
      10A     -0.998318    11A     -0.971431    12A     -0.881263
      13A     -0.818792    14A     -0.711197    15A     -0.650150
      16A     -0.631150    17A     -0.620274    18A     -0.587681
      19A     -0.577542    20A     -0.553271    21A     -0.536110
      22A     -0.521683    23A     -0.511876    24A     -0.494845
      25A     -0.486865    26A     -0.454643    27A     -0.387535
      28A     -0.381472

  @DF-RHF Final Energy:  -289.30107179141999

   => Energetics <=

    Nuclear Repulsion Energy =            308.2063408201003085
    One-Electron Energy =               -1001.0135449509497221
    Two-Electron Energy =                 403.5061323394294277
    Total Energy =                       -289.3010717914199859
  Basis Set: (AUG-CC-PVTZ AUX)
    Blend: AUG-CC-PVTZ-RI
    Molecular point group: c1

    Geometry (in Angstrom), charge = 0, multiplicity = 1:

       Center              X                  Y                   Z               Mass
    ------------   -----------------  -----------------  -----------------  -----------------
         N            0.628539333606    -0.426017186720    -0.256690704987    14.003074004430
         C           -1.747806366394    -0.448524186720    -0.592951704987    12.000000000000
         C           -0.488092666394     0.216974813280    -0.263608704987    12.000000000000
         C            1.842159333606     0.307429813280     0.108405295013    12.000000000000
         C           -2.648530666394    -0.726522186720     0.614774295013    12.000000000000
         C           -0.645700666394     1.681706813280     0.081094295013    12.000000000000
         C            3.013392333606    -0.658889186720     0.187505295013    12.000000000000
         H           -1.426214666394    -1.530409186720    -0.986250704987     1.007825032230
         H           -2.281526666394    -0.033797186720    -1.402605704987     1.007825032230
         H            2.048988333606     1.086544813280    -0.640056704987     1.007825032230
         H            1.715192333606     0.824461813280     1.070813295013     1.007825032230
         H           -3.541960666394    -1.300719186720     0.353468295013     1.007825032230
         H           -2.976772666394     0.238022813280     1.013421295013     1.007825032230
         H           -2.119400666394    -1.261447186720     1.408409295013     1.007825032230
         H           -0.416385666394     1.861481813280     1.137828295013     1.007825032230
         H           -1.662685666394     2.029999813280    -0.111254704987     1.007825032230
         H            0.047085333606     2.293801813280    -0.505913704987     1.007825032230
         H            3.938368333606    -0.135758186720     0.449747295013     1.007825032230
         H            2.820289333606    -1.425012186720     0.942150295013     1.007825032230
         H            3.153970333606    -1.159372186720    -0.773232704987     1.007825032230

  Basis Set: AUG-CC-PVTZ
    Blend: AUG-CC-PVTZ
  Basis Set: (AUG-CC-PVTZ AUX)
    Blend: AUG-CC-PVTZ-JKFIT
	 Reference Energy          =    -289.3010717914199859 [Eh]
	 Singles Energy            =      -0.0000000000000000 [Eh]
	 Same-Spin Energy          =      -0.3070934085360819 [Eh]
	 Opposite-Spin Energy      =      -1.0935774473171802 [Eh]
	 Correlation Energy        =      -1.4006708558532621 [Eh]
	 Total Energy              =    -290.7017426472732495 [Eh]

	 ================> DF-SCS-MP2 Energies <==================
	-----------------------------------------------------------
	 SCS Same-Spin Scale       =       0.3333333333333333 [-]
	 SCS Opposite-Spin Scale   =       1.2000000000000000 [-]
	 SCS Same-Spin Energy      =      -0.1023644695120273 [Eh]
	 SCS Opposite-Spin Energy  =      -1.3122929367806162 [Eh]
	 SCS Correlation Energy    =      -1.4146574062926436 [Eh]
	 SCS Total Energy          =    -290.7157291977126192 [Eh]
	-----------------------------------------------------------

  Dipole Moment: [D]
     X:    -0.8248      Y:     1.7741      Z:     0.3839     Total:     1.9937

*** Psi4 exiting successfully. Buy a developer a beer!
