                               Psi4 1.4a3.dev225

  ==> Input File <==

--------------------------------------------------------------------------
#psi4
#
memory 32 gb

molecule  {
0 1
  N        0.6335420    -0.4278790    -0.2728430
  C       -1.6973004    -0.5284898    -0.5896057
  C       -0.4830900     0.2151130    -0.2797610
  C        1.8471620     0.3055680     0.0922530
  C       -2.6435280    -0.7283840     0.5986220
  C       -0.6406980     1.6798450     0.0649420
  C        3.0183950    -0.6607510     0.1713530
  H       -1.4212120    -1.5322710    -1.0024030
  H       -2.2765240    -0.0356590    -1.4187580
  H        2.0539910     1.0846830    -0.6562090
  H        1.7201950     0.8226000     1.0546610
  H       -3.5369580    -1.3025810     0.3373160
  H       -2.9717700     0.2361610     0.9972690
  H       -2.1143980    -1.2633090     1.3922570
  H       -0.4113830     1.8596200     1.1216760
  H       -1.6576830     2.0281380    -0.1274070
  H        0.0520880     2.2919400    -0.5220660
  H        3.9433710    -0.1376200     0.4335950
  H        2.8252920    -1.4268740     0.9259980
  H        3.1589730    -1.1612340    -0.7893850
units angstrom
no_reorient  #important for SAPT in psi4, default
symmetry c1  #important for SAPT in psi4, default
}

set PROPERTIES_ORIGIN ["COM"]
properties('MP2/aug-cc-pvtz', properties = ['dipole'])
--------------------------------------------------------------------------

    Molecular point group: c1
  Charge       = 0
  Multiplicity = 1
  Basis Set: AUG-CC-PVTZ
    Blend: AUG-CC-PVTZ
  Basis Set: (AUG-CC-PVTZ AUX)
    Blend: AUG-CC-PVTZ-JKFIT

    Orbital Energies [Eh]
    ---------------------

    Doubly Occupied:

       1A    -15.539376     2A    -11.273808     3A    -11.242238
       4A    -11.231439     5A    -11.225145     6A    -11.220815
       7A    -11.202545     8A     -1.220040     9A     -1.063437
      10A     -0.997663    11A     -0.972197    12A     -0.881759
      13A     -0.815766    14A     -0.709346    15A     -0.653204
      16A     -0.628572    17A     -0.616550    18A     -0.589027
      19A     -0.576113    20A     -0.553110    21A     -0.538849
      22A     -0.512086    23A     -0.511142    24A     -0.492648
      25A     -0.483991    26A     -0.474896    27A     -0.388087
      28A     -0.379460

  @DF-RHF Final Energy:  -289.31029799647814

   => Energetics <=

    Nuclear Repulsion Energy =            308.3465905303564227
    One-Electron Energy =               -1001.3271627433655340
    Two-Electron Energy =                 403.6702742165309132
    Total Energy =                       -289.3102979964781412
  Basis Set: (AUG-CC-PVTZ AUX)
    Blend: AUG-CC-PVTZ-RI
    Molecular point group: c1

    Geometry (in Angstrom), charge = 0, multiplicity = 1:

       Center              X                  Y                   Z               Mass
    ------------   -----------------  -----------------  -----------------  -----------------
         N            0.623029614569    -0.416560070561    -0.259051636055    14.003074004430
         C           -1.707812785431    -0.517170870561    -0.575814336055    12.000000000000
         C           -0.493602385431     0.226431929439    -0.265969636055    12.000000000000
         C            1.836649614569     0.316886929439     0.106044363945    12.000000000000
         C           -2.654040385431    -0.717065070561     0.612413363945    12.000000000000
         C           -0.651210385431     1.691163929439     0.078733363945    12.000000000000
         C            3.007882614569    -0.649432070561     0.185144363945    12.000000000000
         H           -1.431724385431    -1.520952070561    -0.988611636055     1.007825032230
         H           -2.287036385431    -0.024340070561    -1.404966636055     1.007825032230
         H            2.043478614569     1.096001929439    -0.642417636055     1.007825032230
         H            1.709682614569     0.833918929439     1.068452363945     1.007825032230
         H           -3.547470385431    -1.291262070561     0.351107363945     1.007825032230
         H           -2.982282385431     0.247479929439     1.011060363945     1.007825032230
         H           -2.124910385431    -1.251990070561     1.406048363945     1.007825032230
         H           -0.421895385431     1.870938929439     1.135467363945     1.007825032230
         H           -1.668195385431     2.039456929439    -0.113615636055     1.007825032230
         H            0.041575614569     2.303258929439    -0.508274636055     1.007825032230
         H            3.932858614569    -0.126301070561     0.447386363945     1.007825032230
         H            2.814779614569    -1.415555070561     0.939789363945     1.007825032230
         H            3.148460614569    -1.149915070561    -0.775593636055     1.007825032230

  Basis Set: AUG-CC-PVTZ
    Blend: AUG-CC-PVTZ
  Basis Set: (AUG-CC-PVTZ AUX)
    Blend: AUG-CC-PVTZ-JKFIT
	 Reference Energy          =    -289.3102979964781412 [Eh]
	 Singles Energy            =      -0.0000000000000000 [Eh]
	 Same-Spin Energy          =      -0.3068381720589826 [Eh]
	 Opposite-Spin Energy      =      -1.0928941420956675 [Eh]
	 Correlation Energy        =      -1.3997323141546500 [Eh]
	 Total Energy              =    -290.7100303106328170 [Eh]

	 ================> DF-SCS-MP2 Energies <==================
	-----------------------------------------------------------
	 SCS Same-Spin Scale       =       0.3333333333333333 [-]
	 SCS Opposite-Spin Scale   =       1.2000000000000000 [-]
	 SCS Same-Spin Energy      =      -0.1022793906863275 [Eh]
	 SCS Opposite-Spin Energy  =      -1.3114729705148009 [Eh]
	 SCS Correlation Energy    =      -1.4137523612011285 [Eh]
	 SCS Total Energy          =    -290.7240503576792889 [Eh]
	-----------------------------------------------------------

  Dipole Moment: [D]
     X:    -0.8381      Y:     1.7448      Z:     0.3913     Total:     1.9748

*** Psi4 exiting successfully. Buy a developer a beer!
