                               Psi4 1.4a3.dev225

  ==> Input File <==

--------------------------------------------------------------------------
#psi4
#
memory 32 gb

molecule  {
0 1
  N        0.6335420    -0.4278790    -0.2728430
  C       -1.7313700    -0.5561300    -0.6201830
  C       -0.4830900     0.2151130    -0.2797610
  C        1.8471620     0.3055680     0.0922530
  C       -2.6435280    -0.7283840     0.5986220
  C       -0.6406980     1.6798450     0.0649420
  C        3.0183950    -0.6607510     0.1713530
  H       -1.4212120    -1.5322710    -1.0024030
  H       -2.2765240    -0.0356590    -1.4187580
  H        2.0539910     1.0846830    -0.6562090
  H        1.7317390     0.7755907     0.9671575
  H       -3.5369580    -1.3025810     0.3373160
  H       -2.9717700     0.2361610     0.9972690
  H       -2.1143980    -1.2633090     1.3922570
  H       -0.4113830     1.8596200     1.1216760
  H       -1.6576830     2.0281380    -0.1274070
  H        0.0520880     2.2919400    -0.5220660
  H        3.9433710    -0.1376200     0.4335950
  H        2.8252920    -1.4268740     0.9259980
  H        3.1589730    -1.1612340    -0.7893850
units angstrom
no_reorient  #important for SAPT in psi4, default
symmetry c1  #important for SAPT in psi4, default
}

set PROPERTIES_ORIGIN ["COM"]
properties('MP2/aug-cc-pvtz', properties = ['dipole'])
--------------------------------------------------------------------------

    Molecular point group: c1
  Charge       = 0
  Multiplicity = 1
  Basis Set: AUG-CC-PVTZ
    Blend: AUG-CC-PVTZ
  Basis Set: (AUG-CC-PVTZ AUX)
    Blend: AUG-CC-PVTZ-JKFIT

    Orbital Energies [Eh]
    ---------------------

    Doubly Occupied:

       1A    -15.537590     2A    -11.274958     3A    -11.231772
       4A    -11.229365     5A    -11.223168     6A    -11.219636
       7A    -11.201446     8A     -1.217492     9A     -1.060652
      10A     -0.999711    11A     -0.972342    12A     -0.877855
      13A     -0.823986    14A     -0.713070    15A     -0.653482
      16A     -0.631287    17A     -0.617118    18A     -0.591481
      19A     -0.576408    20A     -0.551894    21A     -0.535240
      22A     -0.514809    23A     -0.513235    24A     -0.495988
      25A     -0.485743    26A     -0.477186    27A     -0.385619
      28A     -0.381214

  @DF-RHF Final Energy:  -289.30859667415382

   => Energetics <=

    Nuclear Repulsion Energy =            308.0680958089715773
    One-Electron Energy =               -1000.7658892549127359
    Two-Electron Energy =                 403.3891967717873968
    Total Energy =                       -289.3085966741538186
  Basis Set: (AUG-CC-PVTZ AUX)
    Blend: AUG-CC-PVTZ-RI
    Molecular point group: c1

    Geometry (in Angstrom), charge = 0, multiplicity = 1:

       Center              X                  Y                   Z               Mass
    ------------   -----------------  -----------------  -----------------  -----------------
         N            0.627037501878    -0.412735235119    -0.254459367867    14.003074004430
         C           -1.737874498122    -0.540986235119    -0.601799367867    12.000000000000
         C           -0.489594498122     0.230256764881    -0.261377367867    12.000000000000
         C            1.840657501878     0.320711764881     0.110636632133    12.000000000000
         C           -2.650032498122    -0.713240235119     0.617005632133    12.000000000000
         C           -0.647202498122     1.694988764881     0.083325632133    12.000000000000
         C            3.011890501878    -0.645607235119     0.189736632133    12.000000000000
         H           -1.427716498122    -1.517127235119    -0.984019367867     1.007825032230
         H           -2.283028498122    -0.020515235119    -1.400374367867     1.007825032230
         H            2.047486501878     1.099826764881    -0.637825367867     1.007825032230
         H            1.725234501878     0.790734464881     0.985541132133     1.007825032230
         H           -3.543462498122    -1.287437235119     0.355699632133     1.007825032230
         H           -2.978274498122     0.251304764881     1.015652632133     1.007825032230
         H           -2.120902498122    -1.248165235119     1.410640632133     1.007825032230
         H           -0.417887498122     1.874763764881     1.140059632133     1.007825032230
         H           -1.664187498122     2.043281764881    -0.109023367867     1.007825032230
         H            0.045583501878     2.307083764881    -0.503682367867     1.007825032230
         H            3.936866501878    -0.122476235119     0.451978632133     1.007825032230
         H            2.818787501878    -1.411730235119     0.944381632133     1.007825032230
         H            3.152468501878    -1.146090235119    -0.771001367867     1.007825032230

  Basis Set: AUG-CC-PVTZ
    Blend: AUG-CC-PVTZ
  Basis Set: (AUG-CC-PVTZ AUX)
    Blend: AUG-CC-PVTZ-JKFIT
	 Reference Energy          =    -289.3085966741538186 [Eh]
	 Singles Energy            =      -0.0000000000000000 [Eh]
	 Same-Spin Energy          =      -0.3062140071985897 [Eh]
	 Opposite-Spin Energy      =      -1.0917230111110054 [Eh]
	 Correlation Energy        =      -1.3979370183095952 [Eh]
	 Total Energy              =    -290.7065336924634380 [Eh]

	 ================> DF-SCS-MP2 Energies <==================
	-----------------------------------------------------------
	 SCS Same-Spin Scale       =       0.3333333333333333 [-]
	 SCS Opposite-Spin Scale   =       1.2000000000000000 [-]
	 SCS Same-Spin Energy      =      -0.1020713357328632 [Eh]
	 SCS Opposite-Spin Energy  =      -1.3100676133332065 [Eh]
	 SCS Correlation Energy    =      -1.4121389490660698 [Eh]
	 SCS Total Energy          =    -290.7207356232198663 [Eh]
	-----------------------------------------------------------

  Dipole Moment: [D]
     X:    -0.8122      Y:     1.8049      Z:     0.4315     Total:     2.0257

*** Psi4 exiting successfully. Buy a developer a beer!
