                               Psi4 1.4a3.dev225

  ==> Input File <==

--------------------------------------------------------------------------
#psi4
#
memory 32 gb

molecule  {
0 1
  N        0.6335420    -0.4278790    -0.2728430
  C       -1.7313700    -0.5561300    -0.6201830
  C       -0.4830900     0.2151130    -0.2797610
  C        1.8471620     0.3055680     0.0922530
  C       -2.6435280    -0.7283840     0.5986220
  C       -0.6406980     1.6798450     0.0649420
  C        3.0183950    -0.6607510     0.1713530
  H       -1.4212120    -1.5322710    -1.0024030
  H       -2.2765240    -0.0356590    -1.4187580
  H        2.0539910     1.0846830    -0.6562090
  H        1.7201950     0.8226000     1.0546610
  H       -3.5369580    -1.3025810     0.3373160
  H       -2.9717700     0.2361610     0.9972690
  H       -2.1143980    -1.2633090     1.3922570
  H       -0.4113830     1.8596200     1.1216760
  H       -1.8439361     2.0919252    -0.1626343
  H        0.0520880     2.2919400    -0.5220660
  H        3.9433710    -0.1376200     0.4335950
  H        2.8252920    -1.4268740     0.9259980
  H        3.1589730    -1.1612340    -0.7893850
units angstrom
no_reorient  #important for SAPT in psi4, default
symmetry c1  #important for SAPT in psi4, default
}

set PROPERTIES_ORIGIN ["COM"]
properties('MP2/aug-cc-pvtz', properties = ['dipole'])
--------------------------------------------------------------------------

    Molecular point group: c1
  Charge       = 0
  Multiplicity = 1
  Basis Set: AUG-CC-PVTZ
    Blend: AUG-CC-PVTZ
  Basis Set: (AUG-CC-PVTZ AUX)
    Blend: AUG-CC-PVTZ-JKFIT

    Orbital Energies [Eh]
    ---------------------

    Doubly Occupied:

       1A    -15.540969     2A    -11.278418     3A    -11.254341
       4A    -11.243841     5A    -11.223375     6A    -11.219096
       7A    -11.203580     8A     -1.219355     9A     -1.058472
      10A     -0.998297    11A     -0.961708    12A     -0.877107
      13A     -0.818089    14A     -0.706593    15A     -0.652229
      16A     -0.628805    17A     -0.612464    18A     -0.583992
      19A     -0.576044    20A     -0.546750    21A     -0.526311
      22A     -0.515272    23A     -0.499735    24A     -0.494206
      25A     -0.485829    26A     -0.476811    27A     -0.386980
      28A     -0.382480

  @DF-RHF Final Energy:  -289.29351856893481

   => Energetics <=

    Nuclear Repulsion Energy =            306.8362135785719147
    One-Electron Energy =                -998.3171741066538516
    Two-Electron Energy =                 402.1874419591471224
    Total Energy =                       -289.2935185689348145
  Basis Set: (AUG-CC-PVTZ AUX)
    Blend: AUG-CC-PVTZ-RI
    Molecular point group: c1

    Geometry (in Angstrom), charge = 0, multiplicity = 1:

       Center              X                  Y                   Z               Mass
    ------------   -----------------  -----------------  -----------------  -----------------
         N            0.629048957124    -0.413861956397    -0.254990979487    14.003074004430
         C           -1.735863042876    -0.542112956397    -0.602330979487    12.000000000000
         C           -0.487583042876     0.229130043603    -0.261908979487    12.000000000000
         C            1.842668957124     0.319585043603     0.110105020513    12.000000000000
         C           -2.648021042876    -0.714366956397     0.616474020513    12.000000000000
         C           -0.645191042876     1.693862043603     0.082794020513    12.000000000000
         C            3.013901957124    -0.646733956397     0.189205020513    12.000000000000
         H           -1.425705042876    -1.518253956397    -0.984550979487     1.007825032230
         H           -2.281017042876    -0.021641956397    -1.400905979487     1.007825032230
         H            2.049497957124     1.098700043603    -0.638356979487     1.007825032230
         H            1.715701957124     0.836617043603     1.072513020513     1.007825032230
         H           -3.541451042876    -1.288563956397     0.355168020513     1.007825032230
         H           -2.976263042876     0.250178043603     1.015121020513     1.007825032230
         H           -2.118891042876    -1.249291956397     1.410109020513     1.007825032230
         H           -0.415876042876     1.873637043603     1.139528020513     1.007825032230
         H           -1.848429142876     2.105942243603    -0.144782279487     1.007825032230
         H            0.047594957124     2.305957043603    -0.504213979487     1.007825032230
         H            3.938877957124    -0.123602956397     0.451447020513     1.007825032230
         H            2.820798957124    -1.412856956397     0.943850020513     1.007825032230
         H            3.154479957124    -1.147216956397    -0.771532979487     1.007825032230

  Basis Set: AUG-CC-PVTZ
    Blend: AUG-CC-PVTZ
  Basis Set: (AUG-CC-PVTZ AUX)
    Blend: AUG-CC-PVTZ-JKFIT
	 Reference Energy          =    -289.2935185689348145 [Eh]
	 Singles Energy            =      -0.0000000000000000 [Eh]
	 Same-Spin Energy          =      -0.3064665582046916 [Eh]
	 Opposite-Spin Energy      =      -1.0940641540607050 [Eh]
	 Correlation Energy        =      -1.4005307122653967 [Eh]
	 Total Energy              =    -290.6940492812001935 [Eh]

	 ================> DF-SCS-MP2 Energies <==================
	-----------------------------------------------------------
	 SCS Same-Spin Scale       =       0.3333333333333333 [-]
	 SCS Opposite-Spin Scale   =       1.2000000000000000 [-]
	 SCS Same-Spin Energy      =      -0.1021555194015639 [Eh]
	 SCS Opposite-Spin Energy  =      -1.3128769848728459 [Eh]
	 SCS Correlation Energy    =      -1.4150325042744096 [Eh]
	 SCS Total Energy          =    -290.7085510732092075 [Eh]
	-----------------------------------------------------------

  Dipole Moment: [D]
     X:    -0.6850      Y:     1.6880      Z:     0.3914     Total:     1.8633

*** Psi4 exiting successfully. Buy a developer a beer!
