                               Psi4 1.4a3.dev225

  ==> Input File <==

--------------------------------------------------------------------------
#psi4
#
memory 32 gb

molecule  {
0 1
  N        0.6335420    -0.4278790    -0.2728430
  C       -1.7313700    -0.5561300    -0.6201830
  C       -0.4830900     0.2151130    -0.2797610
  C        1.8471620     0.3055680     0.0922530
  C       -2.6435280    -0.7283840     0.5986220
  C       -0.6406980     1.6798450     0.0649420
  C        2.9798794    -0.6289739     0.1687518
  H       -1.4212120    -1.5322710    -1.0024030
  H       -2.2765240    -0.0356590    -1.4187580
  H        2.0539910     1.0846830    -0.6562090
  H        1.7201950     0.8226000     1.0546610
  H       -3.5369580    -1.3025810     0.3373160
  H       -2.9717700     0.2361610     0.9972690
  H       -2.1143980    -1.2633090     1.3922570
  H       -0.4113830     1.8596200     1.1216760
  H       -1.6576830     2.0281380    -0.1274070
  H        0.0520880     2.2919400    -0.5220660
  H        3.9433710    -0.1376200     0.4335950
  H        2.8252920    -1.4268740     0.9259980
  H        3.1589730    -1.1612340    -0.7893850
units angstrom
no_reorient  #important for SAPT in psi4, default
symmetry c1  #important for SAPT in psi4, default
}

set PROPERTIES_ORIGIN ["COM"]
properties('MP2/aug-cc-pvtz', properties = ['dipole'])
--------------------------------------------------------------------------

    Molecular point group: c1
  Charge       = 0
  Multiplicity = 1
  Basis Set: AUG-CC-PVTZ
    Blend: AUG-CC-PVTZ
  Basis Set: (AUG-CC-PVTZ AUX)
    Blend: AUG-CC-PVTZ-JKFIT

    Orbital Energies [Eh]
    ---------------------

    Doubly Occupied:

       1A    -15.538669     2A    -11.275986     3A    -11.239842
       4A    -11.231870     5A    -11.223731     6A    -11.220010
       7A    -11.204725     8A     -1.218520     9A     -1.062413
      10A     -1.002728    11A     -0.973018    12A     -0.876182
      13A     -0.814314    14A     -0.709987    15A     -0.652911
      16A     -0.628977    17A     -0.617580    18A     -0.590516
      19A     -0.575788    20A     -0.552946    21A     -0.537966
      22A     -0.517972    23A     -0.505971    24A     -0.486010
      25A     -0.484275    26A     -0.480742    27A     -0.386311
      28A     -0.380744

  @DF-RHF Final Energy:  -289.31111149404859

   => Energetics <=

    Nuclear Repulsion Energy =            308.3124598185341938
    One-Electron Energy =               -1001.2657322298107374
    Two-Electron Energy =                 403.6421609172279545
    Total Energy =                       -289.3111114940485891
  Basis Set: (AUG-CC-PVTZ AUX)
    Blend: AUG-CC-PVTZ-RI
    Molecular point group: c1

    Geometry (in Angstrom), charge = 0, multiplicity = 1:

       Center              X                  Y                   Z               Mass
    ------------   -----------------  -----------------  -----------------  -----------------
         N            0.631818516873    -0.417060982730    -0.255034252414    14.003074004430
         C           -1.733093483127    -0.545311982730    -0.602374252414    12.000000000000
         C           -0.484813483127     0.225931017270    -0.261952252414    12.000000000000
         C            1.845438516873     0.316386017270     0.110061747586    12.000000000000
         C           -2.645251483127    -0.717565982730     0.616430747586    12.000000000000
         C           -0.642421483127     1.690663017270     0.082750747586    12.000000000000
         C            2.978155916873    -0.618155882730     0.186560547586    12.000000000000
         H           -1.422935483127    -1.521452982730    -0.984594252414     1.007825032230
         H           -2.278247483127    -0.024840982730    -1.400949252414     1.007825032230
         H            2.052267516873     1.095501017270    -0.638400252414     1.007825032230
         H            1.718471516873     0.833418017270     1.072469747586     1.007825032230
         H           -3.538681483127    -1.291762982730     0.355124747586     1.007825032230
         H           -2.973493483127     0.246979017270     1.015077747586     1.007825032230
         H           -2.116121483127    -1.252490982730     1.410065747586     1.007825032230
         H           -0.413106483127     1.870438017270     1.139484747586     1.007825032230
         H           -1.659406483127     2.038956017270    -0.109598252414     1.007825032230
         H            0.050364516873     2.302758017270    -0.504257252414     1.007825032230
         H            3.941647516873    -0.126801982730     0.451403747586     1.007825032230
         H            2.823568516873    -1.416055982730     0.943806747586     1.007825032230
         H            3.157249516873    -1.150415982730    -0.771576252414     1.007825032230

  Basis Set: AUG-CC-PVTZ
    Blend: AUG-CC-PVTZ
  Basis Set: (AUG-CC-PVTZ AUX)
    Blend: AUG-CC-PVTZ-JKFIT
	 Reference Energy          =    -289.3111114940485891 [Eh]
	 Singles Energy            =      -0.0000000000000000 [Eh]
	 Same-Spin Energy          =      -0.3066940023037528 [Eh]
	 Opposite-Spin Energy      =      -1.0926325050257193 [Eh]
	 Correlation Energy        =      -1.3993265073294721 [Eh]
	 Total Energy              =    -290.7104380013780656 [Eh]

	 ================> DF-SCS-MP2 Energies <==================
	-----------------------------------------------------------
	 SCS Same-Spin Scale       =       0.3333333333333333 [-]
	 SCS Opposite-Spin Scale   =       1.2000000000000000 [-]
	 SCS Same-Spin Energy      =      -0.1022313341012509 [Eh]
	 SCS Opposite-Spin Energy  =      -1.3111590060308631 [Eh]
	 SCS Correlation Energy    =      -1.4133903401321140 [Eh]
	 SCS Total Energy          =    -290.7245018341807281 [Eh]
	-----------------------------------------------------------

  Dipole Moment: [D]
     X:    -0.8231      Y:     1.7596      Z:     0.3809     Total:     1.9796

*** Psi4 exiting successfully. Buy a developer a beer!
