                               Psi4 1.4a3.dev225

  ==> Input File <==

--------------------------------------------------------------------------
#psi4
#
memory 32 gb

molecule  {
0 1
  N        0.6335420    -0.4278790    -0.2728430
  C       -1.8028003    -0.6120060    -0.6768475
  C       -0.4830900     0.2151130    -0.2797610
  C        1.8471620     0.3055680     0.0922530
  C       -2.6435280    -0.7283840     0.5986220
  C       -0.6406980     1.6798450     0.0649420
  C        3.0183950    -0.6607510     0.1713530
  H       -1.4212120    -1.5322710    -1.0024030
  H       -2.2765240    -0.0356590    -1.4187580
  H        2.0539910     1.0846830    -0.6562090
  H        1.7201950     0.8226000     1.0546610
  H       -3.5369580    -1.3025810     0.3373160
  H       -2.9717700     0.2361610     0.9972690
  H       -2.1143980    -1.2633090     1.3922570
  H       -0.4113830     1.8596200     1.1216760
  H       -1.6576830     2.0281380    -0.1274070
  H        0.0520880     2.2919400    -0.5220660
  H        3.9433710    -0.1376200     0.4335950
  H        2.8252920    -1.4268740     0.9259980
  H        3.1589730    -1.1612340    -0.7893850
units angstrom
no_reorient  #important for SAPT in psi4, default
symmetry c1  #important for SAPT in psi4, default
}

set PROPERTIES_ORIGIN ["COM"]
properties('MP2/aug-cc-pvtz', properties = ['dipole'])
--------------------------------------------------------------------------

    Molecular point group: c1
  Charge       = 0
  Multiplicity = 1
  Basis Set: AUG-CC-PVTZ
    Blend: AUG-CC-PVTZ
  Basis Set: (AUG-CC-PVTZ AUX)
    Blend: AUG-CC-PVTZ-JKFIT

    Orbital Energies [Eh]
    ---------------------

    Doubly Occupied:

       1A    -15.537380     2A    -11.278317     3A    -11.241591
       4A    -11.231964     5A    -11.222695     6A    -11.219352
       7A    -11.201934     8A     -1.212877     9A     -1.052961
      10A     -0.999509    11A     -0.970838    12A     -0.871130
      13A     -0.820142    14A     -0.706231    15A     -0.651335
      16A     -0.625358    17A     -0.615346    18A     -0.593137
      19A     -0.574559    20A     -0.550887    21A     -0.530716
      22A     -0.522402    23A     -0.511253    24A     -0.503940
      25A     -0.492889    26A     -0.461417    27A     -0.382171
      28A     -0.377022

  @DF-RHF Final Energy:  -289.30464418128702

   => Energetics <=

    Nuclear Repulsion Energy =            306.1611633223534454
    One-Electron Energy =                -997.0129048704411616
    Two-Electron Energy =                 401.5470973668006991
    Total Energy =                       -289.3046441812870171
  Basis Set: (AUG-CC-PVTZ AUX)
    Blend: AUG-CC-PVTZ-RI
    Molecular point group: c1

    Geometry (in Angstrom), charge = 0, multiplicity = 1:

       Center              X                  Y                   Z               Mass
    ------------   -----------------  -----------------  -----------------  -----------------
         N            0.635803958571    -0.406447599663    -0.248488054815    14.003074004430
         C           -1.800538341429    -0.590574599663    -0.652492554815    12.000000000000
         C           -0.480828041429     0.236544400337    -0.255406054815    12.000000000000
         C            1.849423958571     0.326999400337     0.116607945185    12.000000000000
         C           -2.641266041429    -0.706952599663     0.622976945185    12.000000000000
         C           -0.638436041429     1.701276400337     0.089296945185    12.000000000000
         C            3.020656958571    -0.639319599663     0.195707945185    12.000000000000
         H           -1.418950041429    -1.510839599663    -0.978048054815     1.007825032230
         H           -2.274262041429    -0.014227599663    -1.394403054815     1.007825032230
         H            2.056252958571     1.106114400337    -0.631854054815     1.007825032230
         H            1.722456958571     0.844031400337     1.079015945185     1.007825032230
         H           -3.534696041429    -1.281149599663     0.361670945185     1.007825032230
         H           -2.969508041429     0.257592400337     1.021623945185     1.007825032230
         H           -2.112136041429    -1.241877599663     1.416611945185     1.007825032230
         H           -0.409121041429     1.881051400337     1.146030945185     1.007825032230
         H           -1.655421041429     2.049569400337    -0.103052054815     1.007825032230
         H            0.054349958571     2.313371400337    -0.497711054815     1.007825032230
         H            3.945632958571    -0.116188599663     0.457949945185     1.007825032230
         H            2.827553958571    -1.405442599663     0.950352945185     1.007825032230
         H            3.161234958571    -1.139802599663    -0.765030054815     1.007825032230

  Basis Set: AUG-CC-PVTZ
    Blend: AUG-CC-PVTZ
  Basis Set: (AUG-CC-PVTZ AUX)
    Blend: AUG-CC-PVTZ-JKFIT
	 Reference Energy          =    -289.3046441812870171 [Eh]
	 Singles Energy            =      -0.0000000000000000 [Eh]
	 Same-Spin Energy          =      -0.3060555334829490 [Eh]
	 Opposite-Spin Energy      =      -1.0923831125078032 [Eh]
	 Correlation Energy        =      -1.3984386459907521 [Eh]
	 Total Energy              =    -290.7030828272777967 [Eh]

	 ================> DF-SCS-MP2 Energies <==================
	-----------------------------------------------------------
	 SCS Same-Spin Scale       =       0.3333333333333333 [-]
	 SCS Opposite-Spin Scale   =       1.2000000000000000 [-]
	 SCS Same-Spin Energy      =      -0.1020185111609830 [Eh]
	 SCS Opposite-Spin Energy  =      -1.3108597350093638 [Eh]
	 SCS Correlation Energy    =      -1.4128782461703469 [Eh]
	 SCS Total Energy          =    -290.7175224274573679 [Eh]
	-----------------------------------------------------------

  Dipole Moment: [D]
     X:    -0.7896      Y:     1.7902      Z:     0.3734     Total:     1.9920

*** Psi4 exiting successfully. Buy a developer a beer!
