                               Psi4 1.4a3.dev225

  ==> Input File <==

--------------------------------------------------------------------------
#psi4
#
memory 32 gb

molecule  {
0 1
  N        0.6335420    -0.4278790    -0.2728430
  C       -1.7313700    -0.5561300    -0.6201830
  C       -0.4830900     0.2151130    -0.2797610
  C        1.8471620     0.3055680     0.0922530
  C       -2.6825242    -0.7035160     0.5717786
  C       -0.6406980     1.6798450     0.0649420
  C        3.0183950    -0.6607510     0.1713530
  H       -1.4212120    -1.5322710    -1.0024030
  H       -2.2765240    -0.0356590    -1.4187580
  H        2.0539910     1.0846830    -0.6562090
  H        1.7201950     0.8226000     1.0546610
  H       -3.5369580    -1.3025810     0.3373160
  H       -2.9717700     0.2361610     0.9972690
  H       -2.1143980    -1.2633090     1.3922570
  H       -0.4113830     1.8596200     1.1216760
  H       -1.6576830     2.0281380    -0.1274070
  H        0.0520880     2.2919400    -0.5220660
  H        3.9433710    -0.1376200     0.4335950
  H        2.8252920    -1.4268740     0.9259980
  H        3.1589730    -1.1612340    -0.7893850
units angstrom
no_reorient  #important for SAPT in psi4, default
symmetry c1  #important for SAPT in psi4, default
}

set PROPERTIES_ORIGIN ["COM"]
properties('MP2/aug-cc-pvtz', properties = ['dipole'])
--------------------------------------------------------------------------

    Molecular point group: c1
  Charge       = 0
  Multiplicity = 1
  Basis Set: AUG-CC-PVTZ
    Blend: AUG-CC-PVTZ
  Basis Set: (AUG-CC-PVTZ AUX)
    Blend: AUG-CC-PVTZ-JKFIT

    Orbital Energies [Eh]
    ---------------------

    Doubly Occupied:

       1A    -15.539132     2A    -11.276241     3A    -11.242271
       4A    -11.231887     5A    -11.223829     6A    -11.220302
       7A    -11.202454     8A     -1.217584     9A     -1.059359
      10A     -0.998568    11A     -0.971925    12A     -0.877989
      13A     -0.817145    14A     -0.708879    15A     -0.652841
      16A     -0.627271    17A     -0.614765    18A     -0.589695
      19A     -0.575939    20A     -0.558986    21A     -0.537381
      22A     -0.512107    23A     -0.509337    24A     -0.492936
      25A     -0.483683    26A     -0.476540    27A     -0.385950
      28A     -0.380720

  @DF-RHF Final Energy:  -289.31114892612311

   => Energetics <=

    Nuclear Repulsion Energy =            307.4452235883794629
    One-Electron Energy =                -999.5413152002898869
    Two-Electron Energy =                 402.7849426857873141
    Total Energy =                       -289.3111489261231100
  Basis Set: (AUG-CC-PVTZ AUX)
    Blend: AUG-CC-PVTZ-RI
    Molecular point group: c1

    Geometry (in Angstrom), charge = 0, multiplicity = 1:

       Center              X                  Y                   Z               Mass
    ------------   -----------------  -----------------  -----------------  -----------------
         N            0.631876709817    -0.416224401651    -0.252098911223    14.003074004430
         C           -1.733035290183    -0.544475401651    -0.599438911223    12.000000000000
         C           -0.484755290183     0.226767598349    -0.259016911223    12.000000000000
         C            1.845496709817     0.317222598349     0.112997088777    12.000000000000
         C           -2.684189490183    -0.691861401651     0.592522688777    12.000000000000
         C           -0.642363290183     1.691499598349     0.085686088777    12.000000000000
         C            3.016729709817    -0.649096401651     0.192097088777    12.000000000000
         H           -1.422877290183    -1.520616401651    -0.981658911223     1.007825032230
         H           -2.278189290183    -0.024004401651    -1.398013911223     1.007825032230
         H            2.052325709817     1.096337598349    -0.635464911223     1.007825032230
         H            1.718529709817     0.834254598349     1.075405088777     1.007825032230
         H           -3.538623290183    -1.290926401651     0.358060088777     1.007825032230
         H           -2.973435290183     0.247815598349     1.018013088777     1.007825032230
         H           -2.116063290183    -1.251654401651     1.413001088777     1.007825032230
         H           -0.413048290183     1.871274598349     1.142420088777     1.007825032230
         H           -1.659348290183     2.039792598349    -0.106662911223     1.007825032230
         H            0.050422709817     2.303594598349    -0.501321911223     1.007825032230
         H            3.941705709817    -0.125965401651     0.454339088777     1.007825032230
         H            2.823626709817    -1.415219401651     0.946742088777     1.007825032230
         H            3.157307709817    -1.149579401651    -0.768640911223     1.007825032230

  Basis Set: AUG-CC-PVTZ
    Blend: AUG-CC-PVTZ
  Basis Set: (AUG-CC-PVTZ AUX)
    Blend: AUG-CC-PVTZ-JKFIT
	 Reference Energy          =    -289.3111489261231100 [Eh]
	 Singles Energy            =      -0.0000000000000000 [Eh]
	 Same-Spin Energy          =      -0.3063713346641245 [Eh]
	 Opposite-Spin Energy      =      -1.0923986909367651 [Eh]
	 Correlation Energy        =      -1.3987700256008897 [Eh]
	 Total Energy              =    -290.7099189517239779 [Eh]

	 ================> DF-SCS-MP2 Energies <==================
	-----------------------------------------------------------
	 SCS Same-Spin Scale       =       0.3333333333333333 [-]
	 SCS Opposite-Spin Scale   =       1.2000000000000000 [-]
	 SCS Same-Spin Energy      =      -0.1021237782213748 [Eh]
	 SCS Opposite-Spin Energy  =      -1.3108784291241180 [Eh]
	 SCS Correlation Energy    =      -1.4130022073454929 [Eh]
	 SCS Total Energy          =    -290.7241511334685811 [Eh]
	-----------------------------------------------------------

  Dipole Moment: [D]
     X:    -0.8242      Y:     1.7753      Z:     0.3693     Total:     1.9918

*** Psi4 exiting successfully. Buy a developer a beer!
