                               Psi4 1.4a3.dev225

  ==> Input File <==

--------------------------------------------------------------------------
#psi4
#
memory 32 gb

molecule  {
0 1
  N        0.6335420    -0.4278790    -0.2728430
  C       -1.7313700    -0.5561300    -0.6201830
  C       -0.4830900     0.2151130    -0.2797610
  C        1.8471620     0.3055680     0.0922530
  C       -2.6435280    -0.7283840     0.5986220
  C       -0.6406980     1.6798450     0.0649420
  C        3.0183950    -0.6607510     0.1713530
  H       -1.4212120    -1.5322710    -1.0024030
  H       -2.2765240    -0.0356590    -1.4187580
  H        2.0539910     1.0846830    -0.6562090
  H        1.7201950     0.8226000     1.0546610
  H       -3.5369580    -1.3025810     0.3373160
  H       -2.9717700     0.2361610     0.9972690
  H       -2.1143980    -1.2633090     1.3922570
  H       -0.4113830     1.8596200     1.1216760
  H       -1.6576830     2.0281380    -0.1274070
  H        0.0520880     2.2919400    -0.5220660
  H        3.9433710    -0.1376200     0.4335950
  H        2.8076179    -1.4969948     0.9950683
  H        3.1589730    -1.1612340    -0.7893850
units angstrom
no_reorient  #important for SAPT in psi4, default
symmetry c1  #important for SAPT in psi4, default
}

set PROPERTIES_ORIGIN ["COM"]
properties('MP2/aug-cc-pvtz', properties = ['dipole'])
--------------------------------------------------------------------------

    Molecular point group: c1
  Charge       = 0
  Multiplicity = 1
  Basis Set: AUG-CC-PVTZ
    Blend: AUG-CC-PVTZ
  Basis Set: (AUG-CC-PVTZ AUX)
    Blend: AUG-CC-PVTZ-JKFIT

    Orbital Energies [Eh]
    ---------------------

    Doubly Occupied:

       1A    -15.538964     2A    -11.275964     3A    -11.243358
       4A    -11.231934     5A    -11.223708     6A    -11.219957
       7A    -11.214462     8A     -1.217652     9A     -1.059111
      10A     -0.996484    11A     -0.970978    12A     -0.875661
      13A     -0.813426    14A     -0.708737    15A     -0.652135
      16A     -0.627004    17A     -0.613719    18A     -0.590524
      19A     -0.573920    20A     -0.551660    21A     -0.536183
      22A     -0.515234    23A     -0.509619    24A     -0.486662
      25A     -0.480425    26A     -0.478239    27A     -0.385728
      28A     -0.380866

  @DF-RHF Final Energy:  -289.30769164425737

   => Energetics <=

    Nuclear Repulsion Energy =            307.2312242409540772
    One-Electron Energy =                -999.1332077556014610
    Two-Electron Energy =                 402.5942918703899522
    Total Energy =                       -289.3076916442573747
  Basis Set: (AUG-CC-PVTZ AUX)
    Blend: AUG-CC-PVTZ-RI
    Molecular point group: c1

    Geometry (in Angstrom), charge = 0, multiplicity = 1:

       Center              X                  Y                   Z               Mass
    ------------   -----------------  -----------------  -----------------  -----------------
         N            0.627334629088    -0.412500207670    -0.256051611592    14.003074004430
         C           -1.737577370912    -0.540751207670    -0.603391611592    12.000000000000
         C           -0.489297370912     0.230491792330    -0.262969611592    12.000000000000
         C            1.840954629088     0.320946792330     0.109044388408    12.000000000000
         C           -2.649735370912    -0.713005207670     0.615413388408    12.000000000000
         C           -0.646905370912     1.695223792330     0.081733388408    12.000000000000
         C            3.012187629088    -0.645372207670     0.188144388408    12.000000000000
         H           -1.427419370912    -1.516892207670    -0.985611611592     1.007825032230
         H           -2.282731370912    -0.020280207670    -1.401966611592     1.007825032230
         H            2.047783629088     1.100061792330    -0.639417611592     1.007825032230
         H            1.713987629088     0.837978792330     1.071452388408     1.007825032230
         H           -3.543165370912    -1.287202207670     0.354107388408     1.007825032230
         H           -2.977977370912     0.251539792330     1.014060388408     1.007825032230
         H           -2.120605370912    -1.247930207670     1.409048388408     1.007825032230
         H           -0.417590370912     1.874998792330     1.138467388408     1.007825032230
         H           -1.663890370912     2.043516792330    -0.110615611592     1.007825032230
         H            0.045880629088     2.307318792330    -0.505274611592     1.007825032230
         H            3.937163629088    -0.122241207670     0.450386388408     1.007825032230
         H            2.801410529088    -1.481616007670     1.011859688408     1.007825032230
         H            3.152765629088    -1.145855207670    -0.772593611592     1.007825032230

  Basis Set: AUG-CC-PVTZ
    Blend: AUG-CC-PVTZ
  Basis Set: (AUG-CC-PVTZ AUX)
    Blend: AUG-CC-PVTZ-JKFIT
	 Reference Energy          =    -289.3076916442573747 [Eh]
	 Singles Energy            =      -0.0000000000000000 [Eh]
	 Same-Spin Energy          =      -0.3062824863595099 [Eh]
	 Opposite-Spin Energy      =      -1.0929179073644986 [Eh]
	 Correlation Energy        =      -1.3992003937240085 [Eh]
	 Total Energy              =    -290.7068920379813903 [Eh]

	 ================> DF-SCS-MP2 Energies <==================
	-----------------------------------------------------------
	 SCS Same-Spin Scale       =       0.3333333333333333 [-]
	 SCS Opposite-Spin Scale   =       1.2000000000000000 [-]
	 SCS Same-Spin Energy      =      -0.1020941621198366 [Eh]
	 SCS Opposite-Spin Energy  =      -1.3115014888373981 [Eh]
	 SCS Correlation Energy    =      -1.4135956509572347 [Eh]
	 SCS Total Energy          =    -290.7212872952146085 [Eh]
	-----------------------------------------------------------

  Dipole Moment: [D]
     X:    -0.8361      Y:     1.8099      Z:     0.3365     Total:     2.0219

*** Psi4 exiting successfully. Buy a developer a beer!
