                               Psi4 1.4a3.dev225

  ==> Input File <==

--------------------------------------------------------------------------
#psi4
#
memory 32 gb

molecule  {
0 1
  N        0.6335420    -0.4278790    -0.2728430
  C       -1.7118928    -0.5689840    -0.6071296
  C       -0.4830900     0.2151130    -0.2797610
  C        1.8471620     0.3055680     0.0922530
  C       -2.6435280    -0.7283840     0.5986220
  C       -0.6406980     1.6798450     0.0649420
  C        3.0183950    -0.6607510     0.1713530
  H       -1.4212120    -1.5322710    -1.0024030
  H       -2.2765240    -0.0356590    -1.4187580
  H        2.0539910     1.0846830    -0.6562090
  H        1.7201950     0.8226000     1.0546610
  H       -3.5369580    -1.3025810     0.3373160
  H       -2.9717700     0.2361610     0.9972690
  H       -2.1143980    -1.2633090     1.3922570
  H       -0.4113830     1.8596200     1.1216760
  H       -1.6576830     2.0281380    -0.1274070
  H        0.0520880     2.2919400    -0.5220660
  H        3.9433710    -0.1376200     0.4335950
  H        2.8252920    -1.4268740     0.9259980
  H        3.1589730    -1.1612340    -0.7893850
units angstrom
no_reorient  #important for SAPT in psi4, default
symmetry c1  #important for SAPT in psi4, default
}

set PROPERTIES_ORIGIN ["COM"]
properties('MP2/aug-cc-pvtz', properties = ['dipole'])
--------------------------------------------------------------------------

    Molecular point group: c1
  Charge       = 0
  Multiplicity = 1
  Basis Set: AUG-CC-PVTZ
    Blend: AUG-CC-PVTZ
  Basis Set: (AUG-CC-PVTZ AUX)
    Blend: AUG-CC-PVTZ-JKFIT

    Orbital Energies [Eh]
    ---------------------

    Doubly Occupied:

       1A    -15.538497     2A    -11.275191     3A    -11.241818
       4A    -11.232161     5A    -11.224095     6A    -11.220038
       7A    -11.202315     8A     -1.218118     9A     -1.059953
      10A     -0.998020    11A     -0.972126    12A     -0.878506
      13A     -0.816220    14A     -0.709190    15A     -0.653116
      16A     -0.627168    17A     -0.614828    18A     -0.590000
      19A     -0.575489    20A     -0.552475    21A     -0.537001
      22A     -0.513775    23A     -0.510968    24A     -0.492703
      25A     -0.486323    26A     -0.477835    27A     -0.386145
      28A     -0.379802

  @DF-RHF Final Energy:  -289.31319823802869

   => Energetics <=

    Nuclear Repulsion Energy =            307.8087066782341594
    One-Electron Energy =               -1000.2760560207398157
    Two-Electron Energy =                 403.1541511044770232
    Total Energy =                       -289.3131982380286900
  Basis Set: (AUG-CC-PVTZ AUX)
    Blend: AUG-CC-PVTZ-RI
    Molecular point group: c1

    Geometry (in Angstrom), charge = 0, multiplicity = 1:

       Center              X                  Y                   Z               Mass
    ------------   -----------------  -----------------  -----------------  -----------------
         N            0.624796519916    -0.411656873109    -0.256929773126    14.003074004430
         C           -1.720638280084    -0.552761873109    -0.591216373126    12.000000000000
         C           -0.491835480084     0.231335126891    -0.263847773126    12.000000000000
         C            1.838416519916     0.321790126891     0.108166226874    12.000000000000
         C           -2.652273480084    -0.712161873109     0.614535226874    12.000000000000
         C           -0.649443480084     1.696067126891     0.080855226874    12.000000000000
         C            3.009649519916    -0.644528873109     0.187266226874    12.000000000000
         H           -1.429957480084    -1.516048873109    -0.986489773126     1.007825032230
         H           -2.285269480084    -0.019436873109    -1.402844773126     1.007825032230
         H            2.045245519916     1.100905126891    -0.640295773126     1.007825032230
         H            1.711449519916     0.838822126891     1.070574226874     1.007825032230
         H           -3.545703480084    -1.286358873109     0.353229226874     1.007825032230
         H           -2.980515480084     0.252383126891     1.013182226874     1.007825032230
         H           -2.123143480084    -1.247086873109     1.408170226874     1.007825032230
         H           -0.420128480084     1.875842126891     1.137589226874     1.007825032230
         H           -1.666428480084     2.044360126891    -0.111493773126     1.007825032230
         H            0.043342519916     2.308162126891    -0.506152773126     1.007825032230
         H            3.934625519916    -0.121397873109     0.449508226874     1.007825032230
         H            2.816546519916    -1.410651873109     0.941911226874     1.007825032230
         H            3.150227519916    -1.145011873109    -0.773471773126     1.007825032230

  Basis Set: AUG-CC-PVTZ
    Blend: AUG-CC-PVTZ
  Basis Set: (AUG-CC-PVTZ AUX)
    Blend: AUG-CC-PVTZ-JKFIT
	 Reference Energy          =    -289.3131982380286900 [Eh]
	 Singles Energy            =      -0.0000000000000000 [Eh]
	 Same-Spin Energy          =      -0.3064293203891943 [Eh]
	 Opposite-Spin Energy      =      -1.0923831497333900 [Eh]
	 Correlation Energy        =      -1.3988124701225844 [Eh]
	 Total Energy              =    -290.7120107081512970 [Eh]

	 ================> DF-SCS-MP2 Energies <==================
	-----------------------------------------------------------
	 SCS Same-Spin Scale       =       0.3333333333333333 [-]
	 SCS Opposite-Spin Scale   =       1.2000000000000000 [-]
	 SCS Same-Spin Energy      =      -0.1021431067963981 [Eh]
	 SCS Opposite-Spin Energy  =      -1.3108597796800681 [Eh]
	 SCS Correlation Energy    =      -1.4130028864764661 [Eh]
	 SCS Total Energy          =    -290.7262011245051667 [Eh]
	-----------------------------------------------------------

  Dipole Moment: [D]
     X:    -0.8267      Y:     1.7522      Z:     0.3899     Total:     1.9762

*** Psi4 exiting successfully. Buy a developer a beer!
