                               Psi4 1.4a3.dev225

  ==> Input File <==

--------------------------------------------------------------------------
#psi4
#
memory 32 gb

molecule  {
0 1
  N        0.6335420    -0.4278790    -0.2728430
  C       -1.7313700    -0.5561300    -0.6201830
  C       -0.4830900     0.2151130    -0.2797610
  C        1.8471620     0.3055680     0.0922530
  C       -2.6435280    -0.7283840     0.5986220
  C       -0.6406980     1.6798450     0.0649420
  C        3.0183950    -0.6607510     0.1713530
  H       -1.4212120    -1.5322710    -1.0024030
  H       -2.2765240    -0.0356590    -1.4187580
  H        2.0163856     0.9430254    -0.5201247
  H        1.7201950     0.8226000     1.0546610
  H       -3.5369580    -1.3025810     0.3373160
  H       -2.9717700     0.2361610     0.9972690
  H       -2.1143980    -1.2633090     1.3922570
  H       -0.4113830     1.8596200     1.1216760
  H       -1.6576830     2.0281380    -0.1274070
  H        0.0520880     2.2919400    -0.5220660
  H        3.9433710    -0.1376200     0.4335950
  H        2.8252920    -1.4268740     0.9259980
  H        3.1589730    -1.1612340    -0.7893850
units angstrom
no_reorient  #important for SAPT in psi4, default
symmetry c1  #important for SAPT in psi4, default
}

set PROPERTIES_ORIGIN ["COM"]
properties('MP2/aug-cc-pvtz', properties = ['dipole'])
--------------------------------------------------------------------------

    Molecular point group: c1
  Charge       = 0
  Multiplicity = 1
  Basis Set: AUG-CC-PVTZ
    Blend: AUG-CC-PVTZ
  Basis Set: (AUG-CC-PVTZ AUX)
    Blend: AUG-CC-PVTZ-JKFIT

    Orbital Energies [Eh]
    ---------------------

    Doubly Occupied:

       1A    -15.536923     2A    -11.274576     3A    -11.231838
       4A    -11.222900     5A    -11.219423     6A    -11.216598
       7A    -11.200775     8A     -1.218251     9A     -1.063244
      10A     -1.002355    11A     -0.973029    12A     -0.879102
      13A     -0.833866    14A     -0.716476    15A     -0.654979
      16A     -0.637848    17A     -0.619233    18A     -0.589541
      19A     -0.577792    20A     -0.551843    21A     -0.534897
      22A     -0.516385    23A     -0.513811    24A     -0.498494
      25A     -0.485643    26A     -0.476053    27A     -0.385941
      28A     -0.382000

  @DF-RHF Final Energy:  -289.28204853817226

   => Energetics <=

    Nuclear Repulsion Energy =            308.6344173303288017
    One-Electron Energy =               -1001.8053016505082269
    Two-Electron Energy =                 403.8888357820071633
    Total Energy =                       -289.2820485381722619
  Basis Set: (AUG-CC-PVTZ AUX)
    Blend: AUG-CC-PVTZ-RI
    Molecular point group: c1

    Geometry (in Angstrom), charge = 0, multiplicity = 1:

       Center              X                  Y                   Z               Mass
    ------------   -----------------  -----------------  -----------------  -----------------
         N            0.627537316175    -0.411772729504    -0.256733096113    14.003074004430
         C           -1.737374683825    -0.540023729504    -0.604073096113    12.000000000000
         C           -0.489094683825     0.231219270496    -0.263651096113    12.000000000000
         C            1.841157316175     0.321674270496     0.108362903887    12.000000000000
         C           -2.649532683825    -0.712277729504     0.614731903887    12.000000000000
         C           -0.646702683825     1.695951270496     0.081051903887    12.000000000000
         C            3.012390316175    -0.644644729504     0.187462903887    12.000000000000
         H           -1.427216683825    -1.516164729504    -0.986293096113     1.007825032230
         H           -2.282528683825    -0.019552729504    -1.402648096113     1.007825032230
         H            2.010380916175     0.959131670496    -0.504014796113     1.007825032230
         H            1.714190316175     0.838706270496     1.070770903887     1.007825032230
         H           -3.542962683825    -1.286474729504     0.353425903887     1.007825032230
         H           -2.977774683825     0.252267270496     1.013378903887     1.007825032230
         H           -2.120402683825    -1.247202729504     1.408366903887     1.007825032230
         H           -0.417387683825     1.875726270496     1.137785903887     1.007825032230
         H           -1.663687683825     2.044244270496    -0.111297096113     1.007825032230
         H            0.046083316175     2.308046270496    -0.505956096113     1.007825032230
         H            3.937366316175    -0.121513729504     0.449704903887     1.007825032230
         H            2.819287316175    -1.410767729504     0.942107903887     1.007825032230
         H            3.152968316175    -1.145127729504    -0.773275096113     1.007825032230

  Basis Set: AUG-CC-PVTZ
    Blend: AUG-CC-PVTZ
  Basis Set: (AUG-CC-PVTZ AUX)
    Blend: AUG-CC-PVTZ-JKFIT
	 Reference Energy          =    -289.2820485381722619 [Eh]
	 Singles Energy            =      -0.0000000000000000 [Eh]
	 Same-Spin Energy          =      -0.3061907367842301 [Eh]
	 Opposite-Spin Energy      =      -1.0915700561835411 [Eh]
	 Correlation Energy        =      -1.3977607929677713 [Eh]
	 Total Energy              =    -290.6798093311400066 [Eh]

	 ================> DF-SCS-MP2 Energies <==================
	-----------------------------------------------------------
	 SCS Same-Spin Scale       =       0.3333333333333333 [-]
	 SCS Opposite-Spin Scale   =       1.2000000000000000 [-]
	 SCS Same-Spin Energy      =      -0.1020635789280767 [Eh]
	 SCS Opposite-Spin Energy  =      -1.3098840674202492 [Eh]
	 SCS Correlation Energy    =      -1.4119476463483258 [Eh]
	 SCS Total Energy          =    -290.6939961845205858 [Eh]
	-----------------------------------------------------------

  Dipole Moment: [D]
     X:    -0.7905      Y:     1.8531      Z:     0.3346     Total:     2.0423

*** Psi4 exiting successfully. Buy a developer a beer!
