                               Psi4 1.4a3.dev225

  ==> Input File <==

--------------------------------------------------------------------------
#psi4
#
memory 32 gb

molecule  {
0 1
  N        0.6335420    -0.4278790    -0.2728430
  C       -1.7313700    -0.5561300    -0.6201830
  C       -0.4397609     0.1901627    -0.2794926
  C        1.8471620     0.3055680     0.0922530
  C       -2.6435280    -0.7283840     0.5986220
  C       -0.6406980     1.6798450     0.0649420
  C        3.0183950    -0.6607510     0.1713530
  H       -1.4212120    -1.5322710    -1.0024030
  H       -2.2765240    -0.0356590    -1.4187580
  H        2.0539910     1.0846830    -0.6562090
  H        1.7201950     0.8226000     1.0546610
  H       -3.5369580    -1.3025810     0.3373160
  H       -2.9717700     0.2361610     0.9972690
  H       -2.1143980    -1.2633090     1.3922570
  H       -0.4113830     1.8596200     1.1216760
  H       -1.6576830     2.0281380    -0.1274070
  H        0.0520880     2.2919400    -0.5220660
  H        3.9433710    -0.1376200     0.4335950
  H        2.8252920    -1.4268740     0.9259980
  H        3.1589730    -1.1612340    -0.7893850
units angstrom
no_reorient  #important for SAPT in psi4, default
symmetry c1  #important for SAPT in psi4, default
}

set PROPERTIES_ORIGIN ["COM"]
properties('MP2/aug-cc-pvtz', properties = ['dipole'])
--------------------------------------------------------------------------

    Molecular point group: c1
  Charge       = 0
  Multiplicity = 1
  Basis Set: AUG-CC-PVTZ
    Blend: AUG-CC-PVTZ
  Basis Set: (AUG-CC-PVTZ AUX)
    Blend: AUG-CC-PVTZ-JKFIT

    Orbital Energies [Eh]
    ---------------------

    Doubly Occupied:

       1A    -15.535161     2A    -11.270768     3A    -11.244444
       4A    -11.230241     5A    -11.222157     6A    -11.218645
       7A    -11.203705     8A     -1.235366     9A     -1.054418
      10A     -1.000605    11A     -0.968910    12A     -0.874985
      13A     -0.820496    14A     -0.706015    15A     -0.649456
      16A     -0.628933    17A     -0.616864    18A     -0.591870
      19A     -0.573395    20A     -0.548604    21A     -0.536157
      22A     -0.514549    23A     -0.513374    24A     -0.495234
      25A     -0.486055    26A     -0.475414    27A     -0.395822
      28A     -0.379733

  @DF-RHF Final Energy:  -289.31450756282339

   => Energetics <=

    Nuclear Repulsion Energy =            307.9484307005767505
    One-Electron Energy =               -1000.5431252494495311
    Two-Electron Energy =                 403.2801869860493866
    Total Energy =                       -289.3145075628233940
  Basis Set: (AUG-CC-PVTZ AUX)
    Blend: AUG-CC-PVTZ-RI
    Molecular point group: c1

    Geometry (in Angstrom), charge = 0, multiplicity = 1:

       Center              X                  Y                   Z               Mass
    ------------   -----------------  -----------------  -----------------  -----------------
         N            0.621908437788    -0.410192205396    -0.255381714900    14.003074004430
         C           -1.743003562212    -0.538443205396    -0.602721714900    12.000000000000
         C           -0.451394462212     0.207849494604    -0.262031314900    12.000000000000
         C            1.835528437788     0.323254794604     0.109714285100    12.000000000000
         C           -2.655161562212    -0.710697205396     0.616083285100    12.000000000000
         C           -0.652331562212     1.697531794604     0.082403285100    12.000000000000
         C            3.006761437788    -0.643064205396     0.188814285100    12.000000000000
         H           -1.432845562212    -1.514584205396    -0.984941714900     1.007825032230
         H           -2.288157562212    -0.017972205396    -1.401296714900     1.007825032230
         H            2.042357437788     1.102369794604    -0.638747714900     1.007825032230
         H            1.708561437788     0.840286794604     1.072122285100     1.007825032230
         H           -3.548591562212    -1.284894205396     0.354777285100     1.007825032230
         H           -2.983403562212     0.253847794604     1.014730285100     1.007825032230
         H           -2.126031562212    -1.245622205396     1.409718285100     1.007825032230
         H           -0.423016562212     1.877306794604     1.139137285100     1.007825032230
         H           -1.669316562212     2.045824794604    -0.109945714900     1.007825032230
         H            0.040454437788     2.309626794604    -0.504604714900     1.007825032230
         H            3.931737437788    -0.119933205396     0.451056285100     1.007825032230
         H            2.813658437788    -1.409187205396     0.943459285100     1.007825032230
         H            3.147339437788    -1.143547205396    -0.771923714900     1.007825032230

  Basis Set: AUG-CC-PVTZ
    Blend: AUG-CC-PVTZ
  Basis Set: (AUG-CC-PVTZ AUX)
    Blend: AUG-CC-PVTZ-JKFIT
	 Reference Energy          =    -289.3145075628233940 [Eh]
	 Singles Energy            =      -0.0000000000000000 [Eh]
	 Same-Spin Energy          =      -0.3051218050833613 [Eh]
	 Opposite-Spin Energy      =      -1.0899808550884653 [Eh]
	 Correlation Energy        =      -1.3951026601718266 [Eh]
	 Total Energy              =    -290.7096102229951953 [Eh]

	 ================> DF-SCS-MP2 Energies <==================
	-----------------------------------------------------------
	 SCS Same-Spin Scale       =       0.3333333333333333 [-]
	 SCS Opposite-Spin Scale   =       1.2000000000000000 [-]
	 SCS Same-Spin Energy      =      -0.1017072683611204 [Eh]
	 SCS Opposite-Spin Energy  =      -1.3079770261061583 [Eh]
	 SCS Correlation Energy    =      -1.4096842944672787 [Eh]
	 SCS Total Energy          =    -290.7241918572906911 [Eh]
	-----------------------------------------------------------

  Dipole Moment: [D]
     X:    -0.6823      Y:     1.6984      Z:     0.3781     Total:     1.8690

*** Psi4 exiting successfully. Buy a developer a beer!
