                               Psi4 1.4a3.dev225

  ==> Input File <==

--------------------------------------------------------------------------
#psi4
#
memory 32 gb

molecule  {
0 1
  N        0.6335420    -0.4278790    -0.2728430
  C       -1.7313700    -0.5561300    -0.6201830
  C       -0.4830900     0.2151130    -0.2797610
  C        1.8471620     0.3055680     0.0922530
  C       -2.7626045    -0.7508707     0.7577293
  C       -0.6406980     1.6798450     0.0649420
  C        3.0183950    -0.6607510     0.1713530
  H       -1.4212120    -1.5322710    -1.0024030
  H       -2.2765240    -0.0356590    -1.4187580
  H        2.0539910     1.0846830    -0.6562090
  H        1.7201950     0.8226000     1.0546610
  H       -3.5369580    -1.3025810     0.3373160
  H       -2.9717700     0.2361610     0.9972690
  H       -2.1143980    -1.2633090     1.3922570
  H       -0.4113830     1.8596200     1.1216760
  H       -1.6576830     2.0281380    -0.1274070
  H        0.0520880     2.2919400    -0.5220660
  H        3.9433710    -0.1376200     0.4335950
  H        2.8252920    -1.4268740     0.9259980
  H        3.1589730    -1.1612340    -0.7893850
units angstrom
no_reorient  #important for SAPT in psi4, default
symmetry c1  #important for SAPT in psi4, default
}

set PROPERTIES_ORIGIN ["COM"]
properties('MP2/aug-cc-pvtz', properties = ['dipole'])
--------------------------------------------------------------------------

    Molecular point group: c1
  Charge       = 0
  Multiplicity = 1
  Basis Set: AUG-CC-PVTZ
    Blend: AUG-CC-PVTZ
  Basis Set: (AUG-CC-PVTZ AUX)
    Blend: AUG-CC-PVTZ-JKFIT

    Orbital Energies [Eh]
    ---------------------

    Doubly Occupied:

       1A    -15.537038     2A    -11.275376     3A    -11.241371
       4A    -11.231389     5A    -11.229838     6A    -11.218962
       7A    -11.201889     8A     -1.215546     9A     -1.046128
      10A     -0.988286    11A     -0.970577    12A     -0.889495
      13A     -0.818409    14A     -0.705429    15A     -0.649253
      16A     -0.626459    17A     -0.615528    18A     -0.598279
      19A     -0.576733    20A     -0.570600    21A     -0.540842
      22A     -0.511054    23A     -0.504170    24A     -0.494411
      25A     -0.486923    26A     -0.460092    27A     -0.384356
      28A     -0.370571

  @DF-RHF Final Energy:  -289.28796988829697

   => Energetics <=

    Nuclear Repulsion Energy =            305.0671502046770343
    One-Electron Energy =                -994.7922319797525006
    Two-Electron Energy =                 400.4371118867785526
    Total Energy =                       -289.2879698882969706
  Basis Set: (AUG-CC-PVTZ AUX)
    Blend: AUG-CC-PVTZ-RI
    Molecular point group: c1

    Geometry (in Angstrom), charge = 0, multiplicity = 1:

       Center              X                  Y                   Z               Mass
    ------------   -----------------  -----------------  -----------------  -----------------
         N            0.641573148391    -0.410490507800    -0.274614555399    14.003074004430
         C           -1.723338851609    -0.538741507800    -0.621954555399    12.000000000000
         C           -0.475058851609     0.232501492200    -0.281532555399    12.000000000000
         C            1.855193148391     0.322956492200     0.090481444601    12.000000000000
         C           -2.754573351609    -0.733482207800     0.755957744601    12.000000000000
         C           -0.632666851609     1.697233492200     0.063170444601    12.000000000000
         C            3.026426148391    -0.643362507800     0.169581444601    12.000000000000
         H           -1.413180851609    -1.514882507800    -1.004174555399     1.007825032230
         H           -2.268492851609    -0.018270507800    -1.420529555399     1.007825032230
         H            2.062022148391     1.102071492200    -0.657980555399     1.007825032230
         H            1.728226148391     0.839988492200     1.052889444601     1.007825032230
         H           -3.528926851609    -1.285192507800     0.335544444601     1.007825032230
         H           -2.963738851609     0.253549492200     0.995497444601     1.007825032230
         H           -2.106366851609    -1.245920507800     1.390485444601     1.007825032230
         H           -0.403351851609     1.877008492200     1.119904444601     1.007825032230
         H           -1.649651851609     2.045526492200    -0.129178555399     1.007825032230
         H            0.060119148391     2.309328492200    -0.523837555399     1.007825032230
         H            3.951402148391    -0.120231507800     0.431823444601     1.007825032230
         H            2.833323148391    -1.409485507800     0.924226444601     1.007825032230
         H            3.167004148391    -1.143845507800    -0.791156555399     1.007825032230

  Basis Set: AUG-CC-PVTZ
    Blend: AUG-CC-PVTZ
  Basis Set: (AUG-CC-PVTZ AUX)
    Blend: AUG-CC-PVTZ-JKFIT
	 Reference Energy          =    -289.2879698882969706 [Eh]
	 Singles Energy            =      -0.0000000000000000 [Eh]
	 Same-Spin Energy          =      -0.3064480368831625 [Eh]
	 Opposite-Spin Energy      =      -1.0935653270645158 [Eh]
	 Correlation Energy        =      -1.4000133639476782 [Eh]
	 Total Energy              =    -290.6879832522446350 [Eh]

	 ================> DF-SCS-MP2 Energies <==================
	-----------------------------------------------------------
	 SCS Same-Spin Scale       =       0.3333333333333333 [-]
	 SCS Opposite-Spin Scale   =       1.2000000000000000 [-]
	 SCS Same-Spin Energy      =      -0.1021493456277208 [Eh]
	 SCS Opposite-Spin Energy  =      -1.3122783924774188 [Eh]
	 SCS Correlation Energy    =      -1.4144277381051396 [Eh]
	 SCS Total Energy          =    -290.7023976264021030 [Eh]
	-----------------------------------------------------------

  Dipole Moment: [D]
     X:    -0.8410      Y:     1.7533      Z:     0.3612     Total:     1.9778

*** Psi4 exiting successfully. Buy a developer a beer!
