                               Psi4 1.4a3.dev225

  ==> Input File <==

--------------------------------------------------------------------------
#psi4
#
memory 32 gb

molecule  {
0 1
  N        0.6335420    -0.4278790    -0.2728430
  C       -1.7313700    -0.5561300    -0.6201830
  C       -0.4830900     0.2151130    -0.2797610
  C        1.8471620     0.3055680     0.0922530
  C       -2.6435280    -0.7283840     0.5986220
  C       -0.6406980     1.6798450     0.0649420
  C        3.0183950    -0.6607510     0.1713530
  H       -1.4212120    -1.5322710    -1.0024030
  H       -2.2765240    -0.0356590    -1.4187580
  H        2.0539910     1.0846830    -0.6562090
  H        1.7201950     0.8226000     1.0546610
  H       -3.3735819    -1.1975811     0.3850994
  H       -2.9717700     0.2361610     0.9972690
  H       -2.1143980    -1.2633090     1.3922570
  H       -0.4113830     1.8596200     1.1216760
  H       -1.6576830     2.0281380    -0.1274070
  H        0.0520880     2.2919400    -0.5220660
  H        3.9433710    -0.1376200     0.4335950
  H        2.8252920    -1.4268740     0.9259980
  H        3.1589730    -1.1612340    -0.7893850
units angstrom
no_reorient  #important for SAPT in psi4, default
symmetry c1  #important for SAPT in psi4, default
}

set PROPERTIES_ORIGIN ["COM"]
properties('MP2/aug-cc-pvtz', properties = ['dipole'])
--------------------------------------------------------------------------

    Molecular point group: c1
  Charge       = 0
  Multiplicity = 1
  Basis Set: AUG-CC-PVTZ
    Blend: AUG-CC-PVTZ
  Basis Set: (AUG-CC-PVTZ AUX)
    Blend: AUG-CC-PVTZ-JKFIT

    Orbital Energies [Eh]
    ---------------------

    Doubly Occupied:

       1A    -15.537313     2A    -11.274747     3A    -11.241210
       4A    -11.230859     5A    -11.222260     6A    -11.201759
       7A    -11.195018     8A     -1.216253     9A     -1.063790
      10A     -1.005624    11A     -0.971419    12A     -0.892446
      13A     -0.819723    14A     -0.707813    15A     -0.653627
      16A     -0.633048    17A     -0.617573    18A     -0.589465
      19A     -0.580727    20A     -0.569155    21A     -0.536697
      22A     -0.514761    23A     -0.510567    24A     -0.492423
      25A     -0.485195    26A     -0.481081    27A     -0.384631
      28A     -0.379626

  @DF-RHF Final Energy:  -289.28000642548113

   => Energetics <=

    Nuclear Repulsion Energy =            308.6122198603439415
    One-Electron Energy =               -1001.7668309988118835
    Two-Electron Energy =                 403.8746047129868657
    Total Energy =                       -289.2800064254811332
  Basis Set: (AUG-CC-PVTZ AUX)
    Blend: AUG-CC-PVTZ-RI
    Molecular point group: c1

    Geometry (in Angstrom), charge = 0, multiplicity = 1:

       Center              X                  Y                   Z               Mass
    ------------   -----------------  -----------------  -----------------  -----------------
         N            0.625493477855    -0.414281060123    -0.255835139022    14.003074004430
         C           -1.739418522145    -0.542532060123    -0.603175139022    12.000000000000
         C           -0.491138522145     0.228710939877    -0.262753139022    12.000000000000
         C            1.839113477855     0.319165939877     0.109260860978    12.000000000000
         C           -2.651576522145    -0.714786060123     0.615629860978    12.000000000000
         C           -0.648746522145     1.693442939877     0.081949860978    12.000000000000
         C            3.010346477855    -0.647153060123     0.188360860978    12.000000000000
         H           -1.429260522145    -1.518673060123    -0.985395139022     1.007825032230
         H           -2.284572522145    -0.022061060123    -1.401750139022     1.007825032230
         H            2.045942477855     1.098280939877    -0.639201139022     1.007825032230
         H            1.712146477855     0.836197939877     1.071668860978     1.007825032230
         H           -3.381630422145    -1.183983160123     0.402107260978     1.007825032230
         H           -2.979818522145     0.249758939877     1.014276860978     1.007825032230
         H           -2.122446522145    -1.249711060123     1.409264860978     1.007825032230
         H           -0.419431522145     1.873217939877     1.138683860978     1.007825032230
         H           -1.665731522145     2.041735939877    -0.110399139022     1.007825032230
         H            0.044039477855     2.305537939877    -0.505058139022     1.007825032230
         H            3.935322477855    -0.124022060123     0.450602860978     1.007825032230
         H            2.817243477855    -1.413276060123     0.943005860978     1.007825032230
         H            3.150924477855    -1.147636060123    -0.772377139022     1.007825032230

  Basis Set: AUG-CC-PVTZ
    Blend: AUG-CC-PVTZ
  Basis Set: (AUG-CC-PVTZ AUX)
    Blend: AUG-CC-PVTZ-JKFIT
	 Reference Energy          =    -289.2800064254811332 [Eh]
	 Singles Energy            =      -0.0000000000000000 [Eh]
	 Same-Spin Energy          =      -0.3065192530606847 [Eh]
	 Opposite-Spin Energy      =      -1.0917242569355063 [Eh]
	 Correlation Energy        =      -1.3982435099961910 [Eh]
	 Total Energy              =    -290.6782499354773108 [Eh]

	 ================> DF-SCS-MP2 Energies <==================
	-----------------------------------------------------------
	 SCS Same-Spin Scale       =       0.3333333333333333 [-]
	 SCS Opposite-Spin Scale   =       1.2000000000000000 [-]
	 SCS Same-Spin Energy      =      -0.1021730843535616 [Eh]
	 SCS Opposite-Spin Energy  =      -1.3100691083226075 [Eh]
	 SCS Correlation Energy    =      -1.4122421926761690 [Eh]
	 SCS Total Energy          =    -290.6922486181572935 [Eh]
	-----------------------------------------------------------

  Dipole Moment: [D]
     X:    -0.9332      Y:     1.7108      Z:     0.3864     Total:     1.9867

*** Psi4 exiting successfully. Buy a developer a beer!
