                               Psi4 1.4a3.dev225

  ==> Input File <==

--------------------------------------------------------------------------
#psi4
#
memory 32 gb

molecule  {
0 1
  N        0.6335420    -0.4278790    -0.2728430
  C       -1.7313700    -0.5561300    -0.6201830
  C       -0.4830900     0.2151130    -0.2797610
  C        1.8471620     0.3055680     0.0922530
  C       -2.6435280    -0.7283840     0.5986220
  C       -0.6406980     1.6798450     0.0649420
  C        3.0954262    -0.7243051     0.1765554
  H       -1.4212120    -1.5322710    -1.0024030
  H       -2.2765240    -0.0356590    -1.4187580
  H        2.0539910     1.0846830    -0.6562090
  H        1.7201950     0.8226000     1.0546610
  H       -3.5369580    -1.3025810     0.3373160
  H       -2.9717700     0.2361610     0.9972690
  H       -2.1143980    -1.2633090     1.3922570
  H       -0.4113830     1.8596200     1.1216760
  H       -1.6576830     2.0281380    -0.1274070
  H        0.0520880     2.2919400    -0.5220660
  H        3.9433710    -0.1376200     0.4335950
  H        2.8252920    -1.4268740     0.9259980
  H        3.1589730    -1.1612340    -0.7893850
units angstrom
no_reorient  #important for SAPT in psi4, default
symmetry c1  #important for SAPT in psi4, default
}

set PROPERTIES_ORIGIN ["COM"]
properties('MP2/aug-cc-pvtz', properties = ['dipole'])
--------------------------------------------------------------------------

    Molecular point group: c1
  Charge       = 0
  Multiplicity = 1
  Basis Set: AUG-CC-PVTZ
    Blend: AUG-CC-PVTZ
  Basis Set: (AUG-CC-PVTZ AUX)
    Blend: AUG-CC-PVTZ-JKFIT

    Orbital Energies [Eh]
    ---------------------

    Doubly Occupied:

       1A    -15.538919     2A    -11.275386     3A    -11.245814
       4A    -11.231356     5A    -11.223360     6A    -11.219737
       7A    -11.199881     8A     -1.215715     9A     -1.055361
      10A     -0.991317    11A     -0.968852    12A     -0.879912
      13A     -0.821156    14A     -0.706635    15A     -0.650050
      16A     -0.625393    17A     -0.613774    18A     -0.590146
      19A     -0.576479    20A     -0.551731    21A     -0.542623
      22A     -0.519225    23A     -0.509500    24A     -0.507633
      25A     -0.486094    26A     -0.457929    27A     -0.382660
      28A     -0.380237

  @DF-RHF Final Energy:  -289.30639187637678

   => Energetics <=

    Nuclear Repulsion Energy =            306.2531256453253832
    One-Electron Energy =                -997.1852831126607271
    Two-Electron Energy =                 401.6257655909586219
    Total Energy =                       -289.3063918763767788
  Basis Set: (AUG-CC-PVTZ AUX)
    Blend: AUG-CC-PVTZ-RI
    Molecular point group: c1

    Geometry (in Angstrom), charge = 0, multiplicity = 1:

       Center              X                  Y                   Z               Mass
    ------------   -----------------  -----------------  -----------------  -----------------
         N            0.617827654594    -0.405517905032    -0.255979143081    14.003074004430
         C           -1.747084345406    -0.533768905032    -0.603319143081    12.000000000000
         C           -0.498804345406     0.237474094968    -0.262897143081    12.000000000000
         C            1.831447654594     0.327929094968     0.109116856919    12.000000000000
         C           -2.659242345406    -0.706022905032     0.615485856919    12.000000000000
         C           -0.656412345406     1.702206094968     0.081805856919    12.000000000000
         C            3.079711854594    -0.701944005032     0.193419256919    12.000000000000
         H           -1.436926345406    -1.509909905032    -0.985539143081     1.007825032230
         H           -2.292238345406    -0.013297905032    -1.401894143081     1.007825032230
         H            2.038276654594     1.107044094968    -0.639345143081     1.007825032230
         H            1.704480654594     0.844961094968     1.071524856919     1.007825032230
         H           -3.552672345406    -1.280219905032     0.354179856919     1.007825032230
         H           -2.987484345406     0.258522094968     1.014132856919     1.007825032230
         H           -2.130112345406    -1.240947905032     1.409120856919     1.007825032230
         H           -0.427097345406     1.881981094968     1.138539856919     1.007825032230
         H           -1.673397345406     2.050499094968    -0.110543143081     1.007825032230
         H            0.036373654594     2.314301094968    -0.505202143081     1.007825032230
         H            3.927656654594    -0.115258905032     0.450458856919     1.007825032230
         H            2.809577654594    -1.404512905032     0.942861856919     1.007825032230
         H            3.143258654594    -1.138872905032    -0.772521143081     1.007825032230

  Basis Set: AUG-CC-PVTZ
    Blend: AUG-CC-PVTZ
  Basis Set: (AUG-CC-PVTZ AUX)
    Blend: AUG-CC-PVTZ-JKFIT
	 Reference Energy          =    -289.3063918763767788 [Eh]
	 Singles Energy            =      -0.0000000000000000 [Eh]
	 Same-Spin Energy          =      -0.3061594281674717 [Eh]
	 Opposite-Spin Energy      =      -1.0925138324710564 [Eh]
	 Correlation Energy        =      -1.3986732606385281 [Eh]
	 Total Energy              =    -290.7050651370153105 [Eh]

	 ================> DF-SCS-MP2 Energies <==================
	-----------------------------------------------------------
	 SCS Same-Spin Scale       =       0.3333333333333333 [-]
	 SCS Opposite-Spin Scale   =       1.2000000000000000 [-]
	 SCS Same-Spin Energy      =      -0.1020531427224906 [Eh]
	 SCS Opposite-Spin Energy  =      -1.3110165989652676 [Eh]
	 SCS Correlation Energy    =      -1.4130697416877582 [Eh]
	 SCS Total Energy          =    -290.7194616180645426 [Eh]
	-----------------------------------------------------------

  Dipole Moment: [D]
     X:    -0.8417      Y:     1.7749      Z:     0.3786     Total:     2.0005

*** Psi4 exiting successfully. Buy a developer a beer!
