                               Psi4 1.4a3.dev225

  ==> Input File <==

--------------------------------------------------------------------------
#psi4
#
memory 32 gb

molecule  {
0 1
  N        0.6335420    -0.4278790    -0.2728430
  C       -1.6643837    -0.5010932    -0.5575807
  C       -0.4830900     0.2151130    -0.2797610
  C        1.8471620     0.3055680     0.0922530
  C       -2.6435280    -0.7283840     0.5986220
  C       -0.6406980     1.6798450     0.0649420
  C        3.0183950    -0.6607510     0.1713530
  H       -1.4212120    -1.5322710    -1.0024030
  H       -2.2765240    -0.0356590    -1.4187580
  H        2.0539910     1.0846830    -0.6562090
  H        1.7201950     0.8226000     1.0546610
  H       -3.5369580    -1.3025810     0.3373160
  H       -2.9717700     0.2361610     0.9972690
  H       -2.1143980    -1.2633090     1.3922570
  H       -0.4113830     1.8596200     1.1216760
  H       -1.6576830     2.0281380    -0.1274070
  H        0.0520880     2.2919400    -0.5220660
  H        3.9433710    -0.1376200     0.4335950
  H        2.8252920    -1.4268740     0.9259980
  H        3.1589730    -1.1612340    -0.7893850
units angstrom
no_reorient  #important for SAPT in psi4, default
symmetry c1  #important for SAPT in psi4, default
}

set PROPERTIES_ORIGIN ["COM"]
properties('MP2/aug-cc-pvtz', properties = ['dipole'])
--------------------------------------------------------------------------

    Molecular point group: c1
  Charge       = 0
  Multiplicity = 1
  Basis Set: AUG-CC-PVTZ
    Blend: AUG-CC-PVTZ
  Basis Set: (AUG-CC-PVTZ AUX)
    Blend: AUG-CC-PVTZ-JKFIT

    Orbital Energies [Eh]
    ---------------------

    Doubly Occupied:

       1A    -15.540094     2A    -11.271524     3A    -11.242423
       4A    -11.231189     5A    -11.227373     6A    -11.222196
       7A    -11.202727     8A     -1.223114     9A     -1.068191
      10A     -0.997256    11A     -0.972652    12A     -0.887092
      13A     -0.814776    14A     -0.709448    15A     -0.655048
      16A     -0.629883    17A     -0.617338    18A     -0.588674
      19A     -0.576729    20A     -0.554797    21A     -0.542007
      22A     -0.511938    23A     -0.508829    24A     -0.492169
      25A     -0.488894    26A     -0.462537    27A     -0.390335
      28A     -0.377677

  @DF-RHF Final Energy:  -289.29994059597288

   => Energetics <=

    Nuclear Repulsion Energy =            309.1079303171071615
    One-Electron Energy =               -1002.8019194379296550
    Two-Electron Energy =                 404.3940485248496088
    Total Energy =                       -289.2999405959728847
  Basis Set: (AUG-CC-PVTZ AUX)
    Blend: AUG-CC-PVTZ-RI
    Molecular point group: c1

    Geometry (in Angstrom), charge = 0, multiplicity = 1:

       Center              X                  Y                   Z               Mass
    ------------   -----------------  -----------------  -----------------  -----------------
         N            0.619043930704    -0.419877358946    -0.262929349367    14.003074004430
         C           -1.678881769296    -0.493091558946    -0.547667049367    12.000000000000
         C           -0.497588069296     0.223114641054    -0.269847349367    12.000000000000
         C            1.832663930704     0.313569641054     0.102166650633    12.000000000000
         C           -2.658026069296    -0.720382358946     0.608535650633    12.000000000000
         C           -0.655196069296     1.687846641054     0.074855650633    12.000000000000
         C            3.003896930704    -0.652749358946     0.181266650633    12.000000000000
         H           -1.435710069296    -1.524269358946    -0.992489349367     1.007825032230
         H           -2.291022069296    -0.027657358946    -1.408844349367     1.007825032230
         H            2.039492930704     1.092684641054    -0.646295349367     1.007825032230
         H            1.705696930704     0.830601641054     1.064574650633     1.007825032230
         H           -3.551456069296    -1.294579358946     0.347229650633     1.007825032230
         H           -2.986268069296     0.244162641054     1.007182650633     1.007825032230
         H           -2.128896069296    -1.255307358946     1.402170650633     1.007825032230
         H           -0.425881069296     1.867621641054     1.131589650633     1.007825032230
         H           -1.672181069296     2.036139641054    -0.117493349367     1.007825032230
         H            0.037589930704     2.299941641054    -0.512152349367     1.007825032230
         H            3.928872930704    -0.129618358946     0.443508650633     1.007825032230
         H            2.810793930704    -1.418872358946     0.935911650633     1.007825032230
         H            3.144474930704    -1.153232358946    -0.779471349367     1.007825032230

  Basis Set: AUG-CC-PVTZ
    Blend: AUG-CC-PVTZ
  Basis Set: (AUG-CC-PVTZ AUX)
    Blend: AUG-CC-PVTZ-JKFIT
	 Reference Energy          =    -289.2999405959728847 [Eh]
	 Singles Energy            =      -0.0000000000000000 [Eh]
	 Same-Spin Energy          =      -0.3075801840816155 [Eh]
	 Opposite-Spin Energy      =      -1.0939662063224325 [Eh]
	 Correlation Energy        =      -1.4015463904040479 [Eh]
	 Total Energy              =    -290.7014869863769491 [Eh]

	 ================> DF-SCS-MP2 Energies <==================
	-----------------------------------------------------------
	 SCS Same-Spin Scale       =       0.3333333333333333 [-]
	 SCS Opposite-Spin Scale   =       1.2000000000000000 [-]
	 SCS Same-Spin Energy      =      -0.1025267280272052 [Eh]
	 SCS Opposite-Spin Energy  =      -1.3127594475869189 [Eh]
	 SCS Correlation Energy    =      -1.4152861756141240 [Eh]
	 SCS Total Energy          =    -290.7152267715870266 [Eh]
	-----------------------------------------------------------

  Dipole Moment: [D]
     X:    -0.8559      Y:     1.7288      Z:     0.4070     Total:     1.9715

*** Psi4 exiting successfully. Buy a developer a beer!
