                               Psi4 1.4a3.dev225

  ==> Input File <==

--------------------------------------------------------------------------
#psi4
#
memory 32 gb

molecule  {
0 1
  N        0.6335420    -0.4278790    -0.2728430
  C       -1.7313700    -0.5561300    -0.6201830
  C       -0.4830900     0.2151130    -0.2797610
  C        1.8471620     0.3055680     0.0922530
  C       -2.6435280    -0.7283840     0.5986220
  C       -0.6406980     1.6798450     0.0649420
  C        3.0183950    -0.6607510     0.1713530
  H       -1.4212120    -1.5322710    -1.0024030
  H       -2.2765240    -0.0356590    -1.4187580
  H        2.0539910     1.0846830    -0.6562090
  H        1.7201950     0.8226000     1.0546610
  H       -3.5369580    -1.3025810     0.3373160
  H       -2.9717700     0.2361610     0.9972690
  H       -2.1143980    -1.2633090     1.3922570
  H       -0.4113830     1.8596200     1.1216760
  H       -1.6111197     2.0121912    -0.1186002
  H        0.0520880     2.2919400    -0.5220660
  H        3.9433710    -0.1376200     0.4335950
  H        2.8252920    -1.4268740     0.9259980
  H        3.1589730    -1.1612340    -0.7893850
units angstrom
no_reorient  #important for SAPT in psi4, default
symmetry c1  #important for SAPT in psi4, default
}

set PROPERTIES_ORIGIN ["COM"]
properties('MP2/aug-cc-pvtz', properties = ['dipole'])
--------------------------------------------------------------------------

    Molecular point group: c1
  Charge       = 0
  Multiplicity = 1
  Basis Set: AUG-CC-PVTZ
    Blend: AUG-CC-PVTZ
  Basis Set: (AUG-CC-PVTZ AUX)
    Blend: AUG-CC-PVTZ-JKFIT

    Orbital Energies [Eh]
    ---------------------

    Doubly Occupied:

       1A    -15.538254     2A    -11.275197     3A    -11.241688
       4A    -11.225559     5A    -11.223642     6A    -11.220064
       7A    -11.202115     8A     -1.217001     9A     -1.059825
      10A     -0.998531    11A     -0.975600    12A     -0.877486
      13A     -0.816887    14A     -0.709862    15A     -0.651902
      16A     -0.627460    17A     -0.617868    18A     -0.592753
      19A     -0.575599    20A     -0.554058    21A     -0.537218
      22A     -0.515179    23A     -0.512185    24A     -0.492821
      25A     -0.486108    26A     -0.477315    27A     -0.385058
      28A     -0.380239

  @DF-RHF Final Energy:  -289.31310507200220

   => Energetics <=

    Nuclear Repulsion Energy =            307.8231048977843329
    One-Electron Energy =               -1000.2974652574922629
    Two-Electron Energy =                 403.1612552877057283
    Total Energy =                       -289.3131050720022017
  Basis Set: (AUG-CC-PVTZ AUX)
    Blend: AUG-CC-PVTZ-RI
    Molecular point group: c1

    Geometry (in Angstrom), charge = 0, multiplicity = 1:

       Center              X                  Y                   Z               Mass
    ------------   -----------------  -----------------  -----------------  -----------------
         N            0.626681380607    -0.413051118560    -0.255438774836    14.003074004430
         C           -1.738230619393    -0.541302118560    -0.602778774836    12.000000000000
         C           -0.489950619393     0.229940881440    -0.262356774836    12.000000000000
         C            1.840301380607     0.320395881440     0.109657225164    12.000000000000
         C           -2.650388619393    -0.713556118560     0.616026225164    12.000000000000
         C           -0.647558619393     1.694672881440     0.082346225164    12.000000000000
         C            3.011534380607    -0.645923118560     0.188757225164    12.000000000000
         H           -1.428072619393    -1.517443118560    -0.984998774836     1.007825032230
         H           -2.283384619393    -0.020831118560    -1.401353774836     1.007825032230
         H            2.047130380607     1.099510881440    -0.638804774836     1.007825032230
         H            1.713334380607     0.837427881440     1.072065225164     1.007825032230
         H           -3.543818619393    -1.287753118560     0.354720225164     1.007825032230
         H           -2.978630619393     0.250988881440     1.014673225164     1.007825032230
         H           -2.121258619393    -1.248481118560     1.409661225164     1.007825032230
         H           -0.418243619393     1.874447881440     1.139080225164     1.007825032230
         H           -1.617980319393     2.027019081440    -0.101195974836     1.007825032230
         H            0.045227380607     2.306767881440    -0.504661774836     1.007825032230
         H            3.936510380607    -0.122792118560     0.450999225164     1.007825032230
         H            2.818431380607    -1.412046118560     0.943402225164     1.007825032230
         H            3.152112380607    -1.146406118560    -0.771980774836     1.007825032230

  Basis Set: AUG-CC-PVTZ
    Blend: AUG-CC-PVTZ
  Basis Set: (AUG-CC-PVTZ AUX)
    Blend: AUG-CC-PVTZ-JKFIT
	 Reference Energy          =    -289.3131050720022017 [Eh]
	 Singles Energy            =      -0.0000000000000000 [Eh]
	 Same-Spin Energy          =      -0.3063252985329432 [Eh]
	 Opposite-Spin Energy      =      -1.0919665739876250 [Eh]
	 Correlation Energy        =      -1.3982918725205682 [Eh]
	 Total Energy              =    -290.7113969445227895 [Eh]

	 ================> DF-SCS-MP2 Energies <==================
	-----------------------------------------------------------
	 SCS Same-Spin Scale       =       0.3333333333333333 [-]
	 SCS Opposite-Spin Scale   =       1.2000000000000000 [-]
	 SCS Same-Spin Energy      =      -0.1021084328443144 [Eh]
	 SCS Opposite-Spin Energy  =      -1.3103598887851500 [Eh]
	 SCS Correlation Energy    =      -1.4124683216294645 [Eh]
	 SCS Total Energy          =    -290.7255733936316915 [Eh]
	-----------------------------------------------------------

  Dipole Moment: [D]
     X:    -0.8483      Y:     1.7739      Z:     0.3787     Total:     2.0024

*** Psi4 exiting successfully. Buy a developer a beer!
