                               Psi4 1.4a3.dev225

  ==> Input File <==

--------------------------------------------------------------------------
#psi4
#
memory 32 gb

molecule  {
0 1
  N        0.6335420    -0.4278790    -0.2728430
  C       -1.7711519    -0.5305834    -0.6451722
  C       -0.4830900     0.2151130    -0.2797610
  C        1.8471620     0.3055680     0.0922530
  C       -2.6435280    -0.7283840     0.5986220
  C       -0.6406980     1.6798450     0.0649420
  C        3.0183950    -0.6607510     0.1713530
  H       -1.4212120    -1.5322710    -1.0024030
  H       -2.2765240    -0.0356590    -1.4187580
  H        2.0539910     1.0846830    -0.6562090
  H        1.7201950     0.8226000     1.0546610
  H       -3.5369580    -1.3025810     0.3373160
  H       -2.9717700     0.2361610     0.9972690
  H       -2.1143980    -1.2633090     1.3922570
  H       -0.4113830     1.8596200     1.1216760
  H       -1.6576830     2.0281380    -0.1274070
  H        0.0520880     2.2919400    -0.5220660
  H        3.9433710    -0.1376200     0.4335950
  H        2.8252920    -1.4268740     0.9259980
  H        3.1589730    -1.1612340    -0.7893850
units angstrom
no_reorient  #important for SAPT in psi4, default
symmetry c1  #important for SAPT in psi4, default
}

set PROPERTIES_ORIGIN ["COM"]
properties('MP2/aug-cc-pvtz', properties = ['dipole'])
--------------------------------------------------------------------------

    Molecular point group: c1
  Charge       = 0
  Multiplicity = 1
  Basis Set: AUG-CC-PVTZ
    Blend: AUG-CC-PVTZ
  Basis Set: (AUG-CC-PVTZ AUX)
    Blend: AUG-CC-PVTZ-JKFIT

    Orbital Energies [Eh]
    ---------------------

    Doubly Occupied:

       1A    -15.539118     2A    -11.276991     3A    -11.242522
       4A    -11.230727     5A    -11.223119     6A    -11.219899
       7A    -11.202460     8A     -1.215996     9A     -1.058240
      10A     -0.998696    11A     -0.971077    12A     -0.875335
      13A     -0.819226    14A     -0.708425    15A     -0.648814
      16A     -0.628541    17A     -0.618319    18A     -0.590249
      19A     -0.575530    20A     -0.551227    21A     -0.533239
      22A     -0.521978    23A     -0.511324    24A     -0.494439
      25A     -0.484642    26A     -0.472045    27A     -0.384213
      28A     -0.381225

  @DF-RHF Final Energy:  -289.31089390854692

   => Energetics <=

    Nuclear Repulsion Energy =            307.1826730076222702
    One-Electron Energy =                -999.0319097162548587
    Two-Electron Energy =                 402.5383428000856725
    Total Energy =                       -289.3108939085469160
  Basis Set: (AUG-CC-PVTZ AUX)
    Blend: AUG-CC-PVTZ-RI
    Molecular point group: c1

    Geometry (in Angstrom), charge = 0, multiplicity = 1:

       Center              X                  Y                   Z               Mass
    ------------   -----------------  -----------------  -----------------  -----------------
         N            0.631971845472    -0.416306569216    -0.252323425072    14.003074004430
         C           -1.772722054528    -0.519010969216    -0.624652625072    12.000000000000
         C           -0.484660154528     0.226685430784    -0.259241425072    12.000000000000
         C            1.845591845472     0.317140430784     0.112772574928    12.000000000000
         C           -2.645098154528    -0.716811569216     0.619141574928    12.000000000000
         C           -0.642268154528     1.691417430784     0.085461574928    12.000000000000
         C            3.016824845472    -0.649178569216     0.191872574928    12.000000000000
         H           -1.422782154528    -1.520698569216    -0.981883425072     1.007825032230
         H           -2.278094154528    -0.024086569216    -1.398238425072     1.007825032230
         H            2.052420845472     1.096255430784    -0.635689425072     1.007825032230
         H            1.718624845472     0.834172430784     1.075180574928     1.007825032230
         H           -3.538528154528    -1.291008569216     0.357835574928     1.007825032230
         H           -2.973340154528     0.247733430784     1.017788574928     1.007825032230
         H           -2.115968154528    -1.251736569216     1.412776574928     1.007825032230
         H           -0.412953154528     1.871192430784     1.142195574928     1.007825032230
         H           -1.659253154528     2.039710430784    -0.106887425072     1.007825032230
         H            0.050517845472     2.303512430784    -0.501546425072     1.007825032230
         H            3.941800845472    -0.126047569216     0.454114574928     1.007825032230
         H            2.823721845472    -1.415301569216     0.946517574928     1.007825032230
         H            3.157402845472    -1.149661569216    -0.768865425072     1.007825032230

  Basis Set: AUG-CC-PVTZ
    Blend: AUG-CC-PVTZ
  Basis Set: (AUG-CC-PVTZ AUX)
    Blend: AUG-CC-PVTZ-JKFIT
	 Reference Energy          =    -289.3108939085469160 [Eh]
	 Singles Energy            =      -0.0000000000000000 [Eh]
	 Same-Spin Energy          =      -0.3062677749520325 [Eh]
	 Opposite-Spin Energy      =      -1.0923467063941490 [Eh]
	 Correlation Energy        =      -1.3986144813461814 [Eh]
	 Total Energy              =    -290.7095083898930739 [Eh]

	 ================> DF-SCS-MP2 Energies <==================
	-----------------------------------------------------------
	 SCS Same-Spin Scale       =       0.3333333333333333 [-]
	 SCS Opposite-Spin Scale   =       1.2000000000000000 [-]
	 SCS Same-Spin Energy      =      -0.1020892583173442 [Eh]
	 SCS Opposite-Spin Energy  =      -1.3108160476729787 [Eh]
	 SCS Correlation Energy    =      -1.4129053059903227 [Eh]
	 SCS Total Energy          =    -290.7237992145372232 [Eh]
	-----------------------------------------------------------

  Dipole Moment: [D]
     X:    -0.8075      Y:     1.7767      Z:     0.3707     Total:     1.9865

*** Psi4 exiting successfully. Buy a developer a beer!
