                               Psi4 1.4a3.dev225

  ==> Input File <==

--------------------------------------------------------------------------
#psi4
#
memory 32 gb

molecule  {
0 1
  N        0.6335420    -0.4278790    -0.2728430
  C       -1.7313700    -0.5561300    -0.6201830
  C       -0.4830900     0.2151130    -0.2797610
  C        1.8471620     0.3055680     0.0922530
  C       -2.6435280    -0.7283840     0.5986220
  C       -0.6406980     1.6798450     0.0649420
  C        3.0183950    -0.6607510     0.1713530
  H       -1.4212120    -1.5322710    -1.0024030
  H       -2.2765240    -0.0356590    -1.4187580
  H        2.0539910     1.0846830    -0.6562090
  H        1.7201950     0.8226000     1.0546610
  H       -3.5369580    -1.3025810     0.3373160
  H       -2.9717700     0.2361610     0.9972690
  H       -2.1143980    -1.2633090     1.3922570
  H       -0.4113830     1.8596200     1.1216760
  H       -1.7508096     2.0600316    -0.1450206
  H        0.0520880     2.2919400    -0.5220660
  H        3.9433710    -0.1376200     0.4335950
  H        2.8252920    -1.4268740     0.9259980
  H        3.1589730    -1.1612340    -0.7893850
units angstrom
no_reorient  #important for SAPT in psi4, default
symmetry c1  #important for SAPT in psi4, default
}

set PROPERTIES_ORIGIN ["COM"]
properties('MP2/aug-cc-pvtz', properties = ['dipole'])
--------------------------------------------------------------------------

    Molecular point group: c1
  Charge       = 0
  Multiplicity = 1
  Basis Set: AUG-CC-PVTZ
    Blend: AUG-CC-PVTZ
  Basis Set: (AUG-CC-PVTZ AUX)
    Blend: AUG-CC-PVTZ-JKFIT

    Orbital Energies [Eh]
    ---------------------

    Doubly Occupied:

       1A    -15.539716     2A    -11.276944     3A    -11.243386
       4A    -11.242860     5A    -11.223445     6A    -11.219507
       7A    -11.202911     8A     -1.218229     9A     -1.058718
      10A     -0.998052    11A     -0.965676    12A     -0.877137
      13A     -0.817534    14A     -0.707158    15A     -0.651827
      16A     -0.627906    17A     -0.613510    18A     -0.586015
      19A     -0.575651    20A     -0.548516    21A     -0.530835
      22A     -0.515187    23A     -0.507564    24A     -0.493658
      25A     -0.485957    26A     -0.477383    27A     -0.386103
      28A     -0.381449

  @DF-RHF Final Energy:  -289.30735075325930

   => Energetics <=

    Nuclear Repulsion Energy =            307.1985576621657401
    One-Electron Energy =                -999.0661523903278294
    Two-Electron Energy =                 402.5602439749027894
    Total Energy =                       -289.3073507532592998
  Basis Set: (AUG-CC-PVTZ AUX)
    Blend: AUG-CC-PVTZ-RI
    Molecular point group: c1

    Geometry (in Angstrom), charge = 0, multiplicity = 1:

       Center              X                  Y                   Z               Mass
    ------------   -----------------  -----------------  -----------------  -----------------
         N            0.628101927127    -0.413537621262    -0.255170098237    14.003074004430
         C           -1.736810072873    -0.541788621262    -0.602510098237    12.000000000000
         C           -0.488530072873     0.229454378738    -0.262088098237    12.000000000000
         C            1.841721927127     0.319909378738     0.109925901763    12.000000000000
         C           -2.648968072873    -0.714042621262     0.616294901763    12.000000000000
         C           -0.646138072873     1.694186378738     0.082614901763    12.000000000000
         C            3.012954927127    -0.646409621262     0.189025901763    12.000000000000
         H           -1.426652072873    -1.517929621262    -0.984730098237     1.007825032230
         H           -2.281964072873    -0.021317621262    -1.401085098237     1.007825032230
         H            2.048550927127     1.099024378738    -0.638536098237     1.007825032230
         H            1.714754927127     0.836941378738     1.072333901763     1.007825032230
         H           -3.542398072873    -1.288239621262     0.354988901763     1.007825032230
         H           -2.977210072873     0.250502378738     1.014941901763     1.007825032230
         H           -2.119838072873    -1.248967621262     1.409929901763     1.007825032230
         H           -0.416823072873     1.873961378738     1.139348901763     1.007825032230
         H           -1.756249672873     2.074372978738    -0.127347698237     1.007825032230
         H            0.046647927127     2.306281378738    -0.504393098237     1.007825032230
         H            3.937930927127    -0.123278621262     0.451267901763     1.007825032230
         H            2.819851927127    -1.412532621262     0.943670901763     1.007825032230
         H            3.153532927127    -1.146892621262    -0.771712098237     1.007825032230

  Basis Set: AUG-CC-PVTZ
    Blend: AUG-CC-PVTZ
  Basis Set: (AUG-CC-PVTZ AUX)
    Blend: AUG-CC-PVTZ-JKFIT
	 Reference Energy          =    -289.3073507532592998 [Eh]
	 Singles Energy            =      -0.0000000000000000 [Eh]
	 Same-Spin Energy          =      -0.3064017258975442 [Eh]
	 Opposite-Spin Energy      =      -1.0930921308075785 [Eh]
	 Correlation Energy        =      -1.3994938567051227 [Eh]
	 Total Energy              =    -290.7068446099644348 [Eh]

	 ================> DF-SCS-MP2 Energies <==================
	-----------------------------------------------------------
	 SCS Same-Spin Scale       =       0.3333333333333333 [-]
	 SCS Opposite-Spin Scale   =       1.2000000000000000 [-]
	 SCS Same-Spin Energy      =      -0.1021339086325147 [Eh]
	 SCS Opposite-Spin Energy  =      -1.3117105569690941 [Eh]
	 SCS Correlation Energy    =      -1.4138444656016089 [Eh]
	 SCS Total Energy          =    -290.7211952188608848 [Eh]
	-----------------------------------------------------------

  Dipole Moment: [D]
     X:    -0.7594      Y:     1.7279      Z:     0.3854     Total:     1.9264

*** Psi4 exiting successfully. Buy a developer a beer!
