                               Psi4 1.4a3.dev225

  ==> Input File <==

--------------------------------------------------------------------------
#psi4
#
memory 32 gb

molecule  {
0 1
  N        0.6335420    -0.4278790    -0.2728430
  C       -1.7313700    -0.5561300    -0.6201830
  C       -0.4830900     0.2151130    -0.2797610
  C        1.8471620     0.3055680     0.0922530
  C       -2.6435280    -0.7283840     0.5986220
  C       -0.6406980     1.6798450     0.0649420
  C        3.0183950    -0.6607510     0.1713530
  H       -1.4212120    -1.5322710    -1.0024030
  H       -2.2765240    -0.0356590    -1.4187580
  H        2.0539910     1.0846830    -0.6562090
  H        1.7259670     0.7990954     1.0109092
  H       -3.5369580    -1.3025810     0.3373160
  H       -2.9717700     0.2361610     0.9972690
  H       -2.1143980    -1.2633090     1.3922570
  H       -0.4113830     1.8596200     1.1216760
  H       -1.6576830     2.0281380    -0.1274070
  H        0.0520880     2.2919400    -0.5220660
  H        3.9433710    -0.1376200     0.4335950
  H        2.8252920    -1.4268740     0.9259980
  H        3.1589730    -1.1612340    -0.7893850
units angstrom
no_reorient  #important for SAPT in psi4, default
symmetry c1  #important for SAPT in psi4, default
}

set PROPERTIES_ORIGIN ["COM"]
properties('MP2/aug-cc-pvtz', properties = ['dipole'])
--------------------------------------------------------------------------

    Molecular point group: c1
  Charge       = 0
  Multiplicity = 1
  Basis Set: AUG-CC-PVTZ
    Blend: AUG-CC-PVTZ
  Basis Set: (AUG-CC-PVTZ AUX)
    Blend: AUG-CC-PVTZ-JKFIT

    Orbital Energies [Eh]
    ---------------------

    Doubly Occupied:

       1A    -15.538101     2A    -11.275297     3A    -11.235754
       4A    -11.231716     5A    -11.223349     6A    -11.219751
       7A    -11.201865     8A     -1.217345     9A     -1.059871
      10A     -0.998829    11A     -0.972012    12A     -0.877516
      13A     -0.820209    14A     -0.710690    15A     -0.652488
      16A     -0.629278    17A     -0.616636    18A     -0.590827
      19A     -0.576024    20A     -0.551941    21A     -0.535422
      22A     -0.514958    23A     -0.512172    24A     -0.494692
      25A     -0.485886    26A     -0.477307    27A     -0.385421
      28A     -0.380983

  @DF-RHF Final Energy:  -289.31326993344811

   => Energetics <=

    Nuclear Repulsion Energy =            307.8280218472080492
    One-Electron Energy =               -1000.3099053487649144
    Two-Electron Energy =                 403.1686135681088103
    Total Energy =                       -289.3132699334481117
  Basis Set: (AUG-CC-PVTZ AUX)
    Blend: AUG-CC-PVTZ-RI
    Molecular point group: c1

    Geometry (in Angstrom), charge = 0, multiplicity = 1:

       Center              X                  Y                   Z               Mass
    ------------   -----------------  -----------------  -----------------  -----------------
         N            0.627096198996    -0.412974261132    -0.254904291410    14.003074004430
         C           -1.737815801004    -0.541225261132    -0.602244291410    12.000000000000
         C           -0.489535801004     0.230017738868    -0.261822291410    12.000000000000
         C            1.840716198996     0.320472738868     0.110191708590    12.000000000000
         C           -2.649973801004    -0.713479261132     0.616560708590    12.000000000000
         C           -0.647143801004     1.694749738868     0.082880708590    12.000000000000
         C            3.011949198996    -0.645846261132     0.189291708590    12.000000000000
         H           -1.427657801004    -1.517366261132    -0.984464291410     1.007825032230
         H           -2.282969801004    -0.020754261132    -1.400819291410     1.007825032230
         H            2.047545198996     1.099587738868    -0.638270291410     1.007825032230
         H            1.719521198996     0.814000138868     1.028847908590     1.007825032230
         H           -3.543403801004    -1.287676261132     0.355254708590     1.007825032230
         H           -2.978215801004     0.251065738868     1.015207708590     1.007825032230
         H           -2.120843801004    -1.248404261132     1.410195708590     1.007825032230
         H           -0.417828801004     1.874524738868     1.139614708590     1.007825032230
         H           -1.664128801004     2.043042738868    -0.109468291410     1.007825032230
         H            0.045642198996     2.306844738868    -0.504127291410     1.007825032230
         H            3.936925198996    -0.122715261132     0.451533708590     1.007825032230
         H            2.818846198996    -1.411969261132     0.943936708590     1.007825032230
         H            3.152527198996    -1.146329261132    -0.771446291410     1.007825032230

  Basis Set: AUG-CC-PVTZ
    Blend: AUG-CC-PVTZ
  Basis Set: (AUG-CC-PVTZ AUX)
    Blend: AUG-CC-PVTZ-JKFIT
	 Reference Energy          =    -289.3132699334481117 [Eh]
	 Singles Energy            =      -0.0000000000000000 [Eh]
	 Same-Spin Energy          =      -0.3062722999501777 [Eh]
	 Opposite-Spin Energy      =      -1.0919686684510961 [Eh]
	 Correlation Energy        =      -1.3982409684012738 [Eh]
	 Total Energy              =    -290.7115109018494081 [Eh]

	 ================> DF-SCS-MP2 Energies <==================
	-----------------------------------------------------------
	 SCS Same-Spin Scale       =       0.3333333333333333 [-]
	 SCS Opposite-Spin Scale   =       1.2000000000000000 [-]
	 SCS Same-Spin Energy      =      -0.1020907666500592 [Eh]
	 SCS Opposite-Spin Energy  =      -1.3103624021413152 [Eh]
	 SCS Correlation Energy    =      -1.4124531687913744 [Eh]
	 SCS Total Energy          =    -290.7257231022394990 [Eh]
	-----------------------------------------------------------

  Dipole Moment: [D]
     X:    -0.8165      Y:     1.7842      Z:     0.4084     Total:     2.0042

*** Psi4 exiting successfully. Buy a developer a beer!
