                               Psi4 1.4a3.dev225

  ==> Input File <==

--------------------------------------------------------------------------
#psi4
#
memory 32 gb

molecule  {
0 1
  N        0.6335420    -0.4278790    -0.2728430
  C       -1.7313700    -0.5561300    -0.6201830
  C       -0.4830900     0.2151130    -0.2797610
  C        1.8471620     0.3055680     0.0922530
  C       -2.6435280    -0.7283840     0.5986220
  C       -0.6406980     1.6798450     0.0649420
  C        3.0183950    -0.6607510     0.1713530
  H       -1.4212120    -1.5322710    -1.0024030
  H       -2.2765240    -0.0356590    -1.4187580
  H        2.0539910     1.0846830    -0.6562090
  H        1.7201950     0.8226000     1.0546610
  H       -3.5369580    -1.3025810     0.3373160
  H       -2.9717700     0.2361610     0.9972690
  H       -2.1143980    -1.2633090     1.3922570
  H       -0.4113830     1.8596200     1.1216760
  H       -1.6390577     2.0217593    -0.1238843
  H        0.0520880     2.2919400    -0.5220660
  H        3.9433710    -0.1376200     0.4335950
  H        2.8252920    -1.4268740     0.9259980
  H        3.1589730    -1.1612340    -0.7893850
units angstrom
no_reorient  #important for SAPT in psi4, default
symmetry c1  #important for SAPT in psi4, default
}

set PROPERTIES_ORIGIN ["COM"]
properties('MP2/aug-cc-pvtz', properties = ['dipole'])
--------------------------------------------------------------------------

    Molecular point group: c1
  Charge       = 0
  Multiplicity = 1
  Basis Set: AUG-CC-PVTZ
    Blend: AUG-CC-PVTZ
  Basis Set: (AUG-CC-PVTZ AUX)
    Blend: AUG-CC-PVTZ-JKFIT

    Orbital Energies [Eh]
    ---------------------

    Doubly Occupied:

       1A    -15.538506     2A    -11.275500     3A    -11.241893
       4A    -11.229235     5A    -11.223596     6A    -11.219960
       7A    -11.202254     8A     -1.217199     9A     -1.059509
      10A     -0.998291    11A     -0.973229    12A     -0.877389
      13A     -0.816999    14A     -0.709097    15A     -0.651804
      16A     -0.627396    17A     -0.616623    18A     -0.591157
      19A     -0.575573    20A     -0.552828    21A     -0.536345
      22A     -0.515171    23A     -0.511697    24A     -0.492969
      25A     -0.486077    26A     -0.477352    27A     -0.385237
      28A     -0.380448

  @DF-RHF Final Energy:  -289.31409847277183

   => Energetics <=

    Nuclear Repulsion Energy =            307.6889412761586300
    One-Electron Energy =               -1000.0394124373493696
    Two-Electron Energy =                 403.0363726884189077
    Total Energy =                       -289.3140984727718319
  Basis Set: (AUG-CC-PVTZ AUX)
    Blend: AUG-CC-PVTZ-RI
    Molecular point group: c1

    Geometry (in Angstrom), charge = 0, multiplicity = 1:

       Center              X                  Y                   Z               Mass
    ------------   -----------------  -----------------  -----------------  -----------------
         N            0.626965490114    -0.413148419304    -0.255385039313    14.003074004430
         C           -1.737946509886    -0.541399419304    -0.602725039313    12.000000000000
         C           -0.489666509886     0.229843580696    -0.262303039313    12.000000000000
         C            1.840585490114     0.320298580696     0.109710960687    12.000000000000
         C           -2.650104509886    -0.713653419304     0.616079960687    12.000000000000
         C           -0.647274509886     1.694575580696     0.082399960687    12.000000000000
         C            3.011818490114    -0.646020419304     0.188810960687    12.000000000000
         H           -1.427788509886    -1.517540419304    -0.984945039313     1.007825032230
         H           -2.283100509886    -0.020928419304    -1.401300039313     1.007825032230
         H            2.047414490114     1.099413580696    -0.638751039313     1.007825032230
         H            1.713618490114     0.837330580696     1.072118960687     1.007825032230
         H           -3.543534509886    -1.287850419304     0.354773960687     1.007825032230
         H           -2.978346509886     0.250891580696     1.014726960687     1.007825032230
         H           -2.120974509886    -1.248578419304     1.409714960687     1.007825032230
         H           -0.417959509886     1.874350580696     1.139133960687     1.007825032230
         H           -1.645634209886     2.036489880696    -0.106426339313     1.007825032230
         H            0.045511490114     2.306670580696    -0.504608039313     1.007825032230
         H            3.936794490114    -0.122889419304     0.451052960687     1.007825032230
         H            2.818715490114    -1.412143419304     0.943455960687     1.007825032230
         H            3.152396490114    -1.146503419304    -0.771927039313     1.007825032230

  Basis Set: AUG-CC-PVTZ
    Blend: AUG-CC-PVTZ
  Basis Set: (AUG-CC-PVTZ AUX)
    Blend: AUG-CC-PVTZ-JKFIT
	 Reference Energy          =    -289.3140984727718319 [Eh]
	 Singles Energy            =      -0.0000000000000000 [Eh]
	 Same-Spin Energy          =      -0.3063351940448480 [Eh]
	 Opposite-Spin Energy      =      -1.0921478350700002 [Eh]
	 Correlation Energy        =      -1.3984830291148482 [Eh]
	 Total Energy              =    -290.7125815018866888 [Eh]

	 ================> DF-SCS-MP2 Energies <==================
	-----------------------------------------------------------
	 SCS Same-Spin Scale       =       0.3333333333333333 [-]
	 SCS Opposite-Spin Scale   =       1.2000000000000000 [-]
	 SCS Same-Spin Energy      =      -0.1021117313482827 [Eh]
	 SCS Opposite-Spin Energy  =      -1.3105774020840002 [Eh]
	 SCS Correlation Energy    =      -1.4126891334322829 [Eh]
	 SCS Total Energy          =    -290.7267876062041410 [Eh]
	-----------------------------------------------------------

  Dipole Moment: [D]
     X:    -0.8329      Y:     1.7661      Z:     0.3798     Total:     1.9892

*** Psi4 exiting successfully. Buy a developer a beer!
