                               Psi4 1.4a3.dev225

  ==> Input File <==

--------------------------------------------------------------------------
#psi4
#
memory 32 gb

molecule  {
0 1
  N        0.6335420    -0.4278790    -0.2728430
  C       -1.7313700    -0.5561300    -0.6201830
  C       -0.6564064     0.3149141    -0.2808348
  C        1.8471620     0.3055680     0.0922530
  C       -2.6435280    -0.7283840     0.5986220
  C       -0.6406980     1.6798450     0.0649420
  C        3.0183950    -0.6607510     0.1713530
  H       -1.4212120    -1.5322710    -1.0024030
  H       -2.2765240    -0.0356590    -1.4187580
  H        2.0539910     1.0846830    -0.6562090
  H        1.7201950     0.8226000     1.0546610
  H       -3.5369580    -1.3025810     0.3373160
  H       -2.9717700     0.2361610     0.9972690
  H       -2.1143980    -1.2633090     1.3922570
  H       -0.4113830     1.8596200     1.1216760
  H       -1.6576830     2.0281380    -0.1274070
  H        0.0520880     2.2919400    -0.5220660
  H        3.9433710    -0.1376200     0.4335950
  H        2.8252920    -1.4268740     0.9259980
  H        3.1589730    -1.1612340    -0.7893850
units angstrom
no_reorient  #important for SAPT in psi4, default
symmetry c1  #important for SAPT in psi4, default
}

set PROPERTIES_ORIGIN ["COM"]
properties('MP2/aug-cc-pvtz', properties = ['dipole'])
--------------------------------------------------------------------------

    Molecular point group: c1
  Charge       = 0
  Multiplicity = 1
  Basis Set: AUG-CC-PVTZ
    Blend: AUG-CC-PVTZ
  Basis Set: (AUG-CC-PVTZ AUX)
    Blend: AUG-CC-PVTZ-JKFIT

    Orbital Energies [Eh]
    ---------------------

    Doubly Occupied:

       1A    -15.545059     2A    -11.294290     3A    -11.236582
       4A    -11.234226     5A    -11.229252     6A    -11.225182
       7A    -11.197825     8A     -1.173735     9A     -1.076801
      10A     -1.012681    11A     -0.959713    12A     -0.888676
      13A     -0.801009    14A     -0.721653    15A     -0.658053
      16A     -0.631248    17A     -0.614050    18A     -0.590161
      19A     -0.583739    20A     -0.562888    21A     -0.535461
      22A     -0.520284    23A     -0.507428    24A     -0.504682
      25A     -0.485530    26A     -0.458545    27A     -0.382755
      28A     -0.327526

  @DF-RHF Final Energy:  -289.24657091161185

   => Energetics <=

    Nuclear Repulsion Energy =            306.6600992551194622
    One-Electron Energy =                -997.8952703193050411
    Two-Electron Energy =                 401.9886001525737242
    Total Energy =                       -289.2465709116118546
  Basis Set: (AUG-CC-PVTZ AUX)
    Blend: AUG-CC-PVTZ-RI
    Molecular point group: c1

    Geometry (in Angstrom), charge = 0, multiplicity = 1:

       Center              X                  Y                   Z               Mass
    ------------   -----------------  -----------------  -----------------  -----------------
         N            0.648140729414    -0.425297596948    -0.255219196030    14.003074004430
         C           -1.716771270586    -0.553548596948    -0.602559196030    12.000000000000
         C           -0.641807670586     0.317495503052    -0.263210996030    12.000000000000
         C            1.861760729414     0.308149403052     0.109876803970    12.000000000000
         C           -2.628929270586    -0.725802596948     0.616245803970    12.000000000000
         C           -0.626099270586     1.682426403052     0.082565803970    12.000000000000
         C            3.032993729414    -0.658169596948     0.188976803970    12.000000000000
         H           -1.406613270586    -1.529689596948    -0.984779196030     1.007825032230
         H           -2.261925270586    -0.033077596948    -1.401134196030     1.007825032230
         H            2.068589729414     1.087264403052    -0.638585196030     1.007825032230
         H            1.734793729414     0.825181403052     1.072284803970     1.007825032230
         H           -3.522359270586    -1.299999596948     0.354939803970     1.007825032230
         H           -2.957171270586     0.238742403052     1.014892803970     1.007825032230
         H           -2.099799270586    -1.260727596948     1.409880803970     1.007825032230
         H           -0.396784270586     1.862201403052     1.139299803970     1.007825032230
         H           -1.643084270586     2.030719403052    -0.109783196030     1.007825032230
         H            0.066686729414     2.294521403052    -0.504442196030     1.007825032230
         H            3.957969729414    -0.135038596948     0.451218803970     1.007825032230
         H            2.839890729414    -1.424292596948     0.943621803970     1.007825032230
         H            3.173571729414    -1.158652596948    -0.771761196030     1.007825032230

  Basis Set: AUG-CC-PVTZ
    Blend: AUG-CC-PVTZ
  Basis Set: (AUG-CC-PVTZ AUX)
    Blend: AUG-CC-PVTZ-JKFIT
	 Reference Energy          =    -289.2465709116118546 [Eh]
	 Singles Energy            =      -0.0000000000000000 [Eh]
	 Same-Spin Energy          =      -0.3142915167627275 [Eh]
	 Opposite-Spin Energy      =      -1.1063449501620499 [Eh]
	 Correlation Energy        =      -1.4206364669247775 [Eh]
	 Total Energy              =    -290.6672073785366592 [Eh]

	 ================> DF-SCS-MP2 Energies <==================
	-----------------------------------------------------------
	 SCS Same-Spin Scale       =       0.3333333333333333 [-]
	 SCS Opposite-Spin Scale   =       1.2000000000000000 [-]
	 SCS Same-Spin Energy      =      -0.1047638389209092 [Eh]
	 SCS Opposite-Spin Energy  =      -1.3276139401944598 [Eh]
	 SCS Correlation Energy    =      -1.4323777791153689 [Eh]
	 SCS Total Energy          =    -290.6789486907272249 [Eh]
	-----------------------------------------------------------

  Dipole Moment: [D]
     X:    -1.0673      Y:     1.8568      Z:     0.3891     Total:     2.1768

*** Psi4 exiting successfully. Buy a developer a beer!
