                               Psi4 1.4a3.dev225

  ==> Input File <==

--------------------------------------------------------------------------
#psi4
#
memory 32 gb

molecule  {
0 1
  N        0.6335420    -0.4278790    -0.2728430
  C       -1.7338136    -0.5295951    -0.6179683
  C       -0.4830900     0.2151130    -0.2797610
  C        1.8471620     0.3055680     0.0922530
  C       -2.6435280    -0.7283840     0.5986220
  C       -0.6406980     1.6798450     0.0649420
  C        3.0183950    -0.6607510     0.1713530
  H       -1.4212120    -1.5322710    -1.0024030
  H       -2.2765240    -0.0356590    -1.4187580
  H        2.0539910     1.0846830    -0.6562090
  H        1.7201950     0.8226000     1.0546610
  H       -3.5369580    -1.3025810     0.3373160
  H       -2.9717700     0.2361610     0.9972690
  H       -2.1143980    -1.2633090     1.3922570
  H       -0.4113830     1.8596200     1.1216760
  H       -1.6576830     2.0281380    -0.1274070
  H        0.0520880     2.2919400    -0.5220660
  H        3.9433710    -0.1376200     0.4335950
  H        2.8252920    -1.4268740     0.9259980
  H        3.1589730    -1.1612340    -0.7893850
units angstrom
no_reorient  #important for SAPT in psi4, default
symmetry c1  #important for SAPT in psi4, default
}

set PROPERTIES_ORIGIN ["COM"]
properties('MP2/aug-cc-pvtz', properties = ['dipole'])
--------------------------------------------------------------------------

    Molecular point group: c1
  Charge       = 0
  Multiplicity = 1
  Basis Set: AUG-CC-PVTZ
    Blend: AUG-CC-PVTZ
  Basis Set: (AUG-CC-PVTZ AUX)
    Blend: AUG-CC-PVTZ-JKFIT

    Orbital Energies [Eh]
    ---------------------

    Doubly Occupied:

       1A    -15.539234     2A    -11.275464     3A    -11.242373
       4A    -11.231083     5A    -11.223853     6A    -11.220195
       7A    -11.202497     8A     -1.217870     9A     -1.060662
      10A     -0.998127    11A     -0.971622    12A     -0.878228
      13A     -0.817355    14A     -0.708870    15A     -0.650998
      16A     -0.628347    17A     -0.617259    18A     -0.589534
      19A     -0.575906    20A     -0.552079    21A     -0.535849
      22A     -0.516132    23A     -0.511454    24A     -0.493501
      25A     -0.481861    26A     -0.477433    27A     -0.386045
      28A     -0.380850

  @DF-RHF Final Energy:  -289.31299225736740

   => Energetics <=

    Nuclear Repulsion Energy =            307.7596636403786761
    One-Electron Energy =               -1000.1759510764958350
    Two-Electron Energy =                 403.1032951787497609
    Total Energy =                       -289.3129922573673980
  Basis Set: (AUG-CC-PVTZ AUX)
    Blend: AUG-CC-PVTZ-RI
    Molecular point group: c1

    Geometry (in Angstrom), charge = 0, multiplicity = 1:

       Center              X                  Y                   Z               Mass
    ------------   -----------------  -----------------  -----------------  -----------------
         N            0.627450776839    -0.416426236478    -0.255617380581    14.003074004430
         C           -1.739904823161    -0.518142336478    -0.600742680581    12.000000000000
         C           -0.489181223161     0.226565763522    -0.262535380581    12.000000000000
         C            1.841070776839     0.317020763522     0.109478619419    12.000000000000
         C           -2.649619223161    -0.716931236478     0.615847619419    12.000000000000
         C           -0.646789223161     1.691297763522     0.082167619419    12.000000000000
         C            3.012303776839    -0.649298236478     0.188578619419    12.000000000000
         H           -1.427303223161    -1.520818236478    -0.985177380581     1.007825032230
         H           -2.282615223161    -0.024206236478    -1.401532380581     1.007825032230
         H            2.047899776839     1.096135763522    -0.638983380581     1.007825032230
         H            1.714103776839     0.834052763522     1.071886619419     1.007825032230
         H           -3.543049223161    -1.291128236478     0.354541619419     1.007825032230
         H           -2.977861223161     0.247613763522     1.014494619419     1.007825032230
         H           -2.120489223161    -1.251856236478     1.409482619419     1.007825032230
         H           -0.417474223161     1.871072763522     1.138901619419     1.007825032230
         H           -1.663774223161     2.039590763522    -0.110181380581     1.007825032230
         H            0.045996776839     2.303392763522    -0.504840380581     1.007825032230
         H            3.937279776839    -0.126167236478     0.450820619419     1.007825032230
         H            2.819200776839    -1.415421236478     0.943223619419     1.007825032230
         H            3.152881776839    -1.149781236478    -0.772159380581     1.007825032230

  Basis Set: AUG-CC-PVTZ
    Blend: AUG-CC-PVTZ
  Basis Set: (AUG-CC-PVTZ AUX)
    Blend: AUG-CC-PVTZ-JKFIT
	 Reference Energy          =    -289.3129922573673980 [Eh]
	 Singles Energy            =      -0.0000000000000000 [Eh]
	 Same-Spin Energy          =      -0.3064781806395324 [Eh]
	 Opposite-Spin Energy      =      -1.0924657690151558 [Eh]
	 Correlation Energy        =      -1.3989439496546883 [Eh]
	 Total Energy              =    -290.7119362070220632 [Eh]

	 ================> DF-SCS-MP2 Energies <==================
	-----------------------------------------------------------
	 SCS Same-Spin Scale       =       0.3333333333333333 [-]
	 SCS Opposite-Spin Scale   =       1.2000000000000000 [-]
	 SCS Same-Spin Energy      =      -0.1021593935465108 [Eh]
	 SCS Opposite-Spin Energy  =      -1.3109589228181868 [Eh]
	 SCS Correlation Energy    =      -1.4131183163646976 [Eh]
	 SCS Total Energy          =    -290.7261105737321145 [Eh]
	-----------------------------------------------------------

  Dipole Moment: [D]
     X:    -0.8238      Y:     1.7617      Z:     0.3780     Total:     1.9812

*** Psi4 exiting successfully. Buy a developer a beer!
