                               Psi4 1.4a3.dev225

  ==> Input File <==

--------------------------------------------------------------------------
#psi4
#
memory 32 gb

molecule  {
0 1
  N        0.6335420    -0.4278790    -0.2728430
  C       -1.7313700    -0.5561300    -0.6201830
  C       -0.4830900     0.2151130    -0.2797610
  C        1.8471620     0.3055680     0.0922530
  C       -2.6631680    -0.7159743     0.5853839
  C       -0.6406980     1.6798450     0.0649420
  C        3.0183950    -0.6607510     0.1713530
  H       -1.4212120    -1.5322710    -1.0024030
  H       -2.2765240    -0.0356590    -1.4187580
  H        2.0539910     1.0846830    -0.6562090
  H        1.7201950     0.8226000     1.0546610
  H       -3.5369580    -1.3025810     0.3373160
  H       -2.9717700     0.2361610     0.9972690
  H       -2.1143980    -1.2633090     1.3922570
  H       -0.4113830     1.8596200     1.1216760
  H       -1.6576830     2.0281380    -0.1274070
  H        0.0520880     2.2919400    -0.5220660
  H        3.9433710    -0.1376200     0.4335950
  H        2.8252920    -1.4268740     0.9259980
  H        3.1589730    -1.1612340    -0.7893850
units angstrom
no_reorient  #important for SAPT in psi4, default
symmetry c1  #important for SAPT in psi4, default
}

set PROPERTIES_ORIGIN ["COM"]
properties('MP2/aug-cc-pvtz', properties = ['dipole'])
--------------------------------------------------------------------------

    Molecular point group: c1
  Charge       = 0
  Multiplicity = 1
  Basis Set: AUG-CC-PVTZ
    Blend: AUG-CC-PVTZ
  Basis Set: (AUG-CC-PVTZ AUX)
    Blend: AUG-CC-PVTZ-JKFIT

    Orbital Energies [Eh]
    ---------------------

    Doubly Occupied:

       1A    -15.538900     2A    -11.275963     3A    -11.242148
       4A    -11.231766     5A    -11.223638     6A    -11.219970
       7A    -11.202400     8A     -1.217454     9A     -1.059309
      10A     -0.998345    11A     -0.971827    12A     -0.877586
      13A     -0.817064    14A     -0.708731    15A     -0.652241
      16A     -0.627320    17A     -0.615205    18A     -0.589903
      19A     -0.575532    20A     -0.555663    21A     -0.536529
      22A     -0.512420    23A     -0.510676    24A     -0.492819
      25A     -0.485260    26A     -0.477884    27A     -0.385645
      28A     -0.380670

  @DF-RHF Final Energy:  -289.31331158931152

   => Energetics <=

    Nuclear Repulsion Energy =            307.5226697801819569
    One-Electron Energy =                -999.7062281312432788
    Two-Electron Energy =                 402.8702467617497405
    Total Energy =                       -289.3133115893115246
  Basis Set: (AUG-CC-PVTZ AUX)
    Blend: AUG-CC-PVTZ-RI
    Molecular point group: c1

    Geometry (in Angstrom), charge = 0, multiplicity = 1:

       Center              X                  Y                   Z               Mass
    ------------   -----------------  -----------------  -----------------  -----------------
         N            0.629532984777    -0.414715901550    -0.253746294608    14.003074004430
         C           -1.735379015223    -0.542966901550    -0.601086294608    12.000000000000
         C           -0.487099015223     0.228276098450    -0.260664294608    12.000000000000
         C            1.843152984777     0.318731098450     0.111349705392    12.000000000000
         C           -2.667177015223    -0.702811201550     0.604480605392    12.000000000000
         C           -0.644707015223     1.693008098450     0.084038705392    12.000000000000
         C            3.014385984777    -0.647587901550     0.190449705392    12.000000000000
         H           -1.425221015223    -1.519107901550    -0.983306294608     1.007825032230
         H           -2.280533015223    -0.022495901550    -1.399661294608     1.007825032230
         H            2.049981984777     1.097846098450    -0.637112294608     1.007825032230
         H            1.716185984777     0.835763098450     1.073757705392     1.007825032230
         H           -3.540967015223    -1.289417901550     0.356412705392     1.007825032230
         H           -2.975779015223     0.249324098450     1.016365705392     1.007825032230
         H           -2.118407015223    -1.250145901550     1.411353705392     1.007825032230
         H           -0.415392015223     1.872783098450     1.140772705392     1.007825032230
         H           -1.661692015223     2.041301098450    -0.108310294608     1.007825032230
         H            0.048078984777     2.305103098450    -0.502969294608     1.007825032230
         H            3.939361984777    -0.124456901550     0.452691705392     1.007825032230
         H            2.821282984777    -1.413710901550     0.945094705392     1.007825032230
         H            3.154963984777    -1.148070901550    -0.770288294608     1.007825032230

  Basis Set: AUG-CC-PVTZ
    Blend: AUG-CC-PVTZ
  Basis Set: (AUG-CC-PVTZ AUX)
    Blend: AUG-CC-PVTZ-JKFIT
	 Reference Energy          =    -289.3133115893115246 [Eh]
	 Singles Energy            =      -0.0000000000000000 [Eh]
	 Same-Spin Energy          =      -0.3063467138099963 [Eh]
	 Opposite-Spin Energy      =      -1.0923073005671653 [Eh]
	 Correlation Energy        =      -1.3986540143771615 [Eh]
	 Total Energy              =    -290.7119656036886681 [Eh]

	 ================> DF-SCS-MP2 Energies <==================
	-----------------------------------------------------------
	 SCS Same-Spin Scale       =       0.3333333333333333 [-]
	 SCS Opposite-Spin Scale   =       1.2000000000000000 [-]
	 SCS Same-Spin Energy      =      -0.1021155712699988 [Eh]
	 SCS Opposite-Spin Energy  =      -1.3107687606805982 [Eh]
	 SCS Correlation Energy    =      -1.4128843319505970 [Eh]
	 SCS Total Energy          =    -290.7261959212621036 [Eh]
	-----------------------------------------------------------

  Dipole Moment: [D]
     X:    -0.8235      Y:     1.7674      Z:     0.3761     Total:     1.9858

*** Psi4 exiting successfully. Buy a developer a beer!
