                               Psi4 1.4a3.dev225

  ==> Input File <==

--------------------------------------------------------------------------
#psi4
#
memory 32 gb

molecule  {
0 1
  N        0.6335420    -0.4278790    -0.2728430
  C       -1.7313700    -0.5561300    -0.6201830
  C       -0.4830900     0.2151130    -0.2797610
  C        1.8471620     0.3055680     0.0922530
  C       -2.6435280    -0.7283840     0.5986220
  C       -0.6406980     1.6798450     0.0649420
  C        3.0183950    -0.6607510     0.1713530
  H       -1.4212120    -1.5322710    -1.0024030
  H       -2.2765240    -0.0356590    -1.4187580
  H        2.0539910     1.0846830    -0.6562090
  H        1.7201950     0.8226000     1.0546610
  H       -3.5369580    -1.3025810     0.3373160
  H       -2.9717700     0.2361610     0.9972690
  H       -2.1143980    -1.2633090     1.3922570
  H       -0.4113830     1.8596200     1.1216760
  H       -1.6576830     2.0281380    -0.1274070
  H        0.0520880     2.2919400    -0.5220660
  H        3.9433710    -0.1376200     0.4335950
  H        2.8429661    -1.3567532     0.8569277
  H        3.1589730    -1.1612340    -0.7893850
units angstrom
no_reorient  #important for SAPT in psi4, default
symmetry c1  #important for SAPT in psi4, default
}

set PROPERTIES_ORIGIN ["COM"]
properties('MP2/aug-cc-pvtz', properties = ['dipole'])
--------------------------------------------------------------------------

    Molecular point group: c1
  Charge       = 0
  Multiplicity = 1
  Basis Set: AUG-CC-PVTZ
    Blend: AUG-CC-PVTZ
  Basis Set: (AUG-CC-PVTZ AUX)
    Blend: AUG-CC-PVTZ-JKFIT

    Orbital Energies [Eh]
    ---------------------

    Doubly Occupied:

       1A    -15.538507     2A    -11.275550     3A    -11.241010
       4A    -11.231463     5A    -11.223469     6A    -11.219843
       7A    -11.189728     8A     -1.217176     9A     -1.059998
      10A     -1.001405    11A     -0.972969    12A     -0.880038
      13A     -0.821929    14A     -0.708783    15A     -0.651538
      16A     -0.628863    17A     -0.618751    18A     -0.589868
      19A     -0.577893    20A     -0.552595    21A     -0.535549
      22A     -0.518397    23A     -0.514053    24A     -0.498642
      25A     -0.486062    26A     -0.476703    27A     -0.385102
      28A     -0.380403

  @DF-RHF Final Energy:  -289.30777542033275

   => Energetics <=

    Nuclear Repulsion Energy =            308.0247067789471203
    One-Electron Energy =               -1000.6723932800274497
    Two-Electron Energy =                 403.3399110807475836
    Total Energy =                       -289.3077754203327459
  Basis Set: (AUG-CC-PVTZ AUX)
    Blend: AUG-CC-PVTZ-RI
    Molecular point group: c1

    Geometry (in Angstrom), charge = 0, multiplicity = 1:

       Center              X                  Y                   Z               Mass
    ------------   -----------------  -----------------  -----------------  -----------------
         N            0.626975163139    -0.413926364585    -0.254646820347    14.003074004430
         C           -1.737936836861    -0.542177364585    -0.601986820347    12.000000000000
         C           -0.489656836861     0.229065635415    -0.261564820347    12.000000000000
         C            1.840595163139     0.319520635415     0.110449179653    12.000000000000
         C           -2.650094836861    -0.714431364585     0.616818179653    12.000000000000
         C           -0.647264836861     1.693797635415     0.083138179653    12.000000000000
         C            3.011828163139    -0.646798364585     0.189549179653    12.000000000000
         H           -1.427778836861    -1.518318364585    -0.984206820347     1.007825032230
         H           -2.283090836861    -0.021706364585    -1.400561820347     1.007825032230
         H            2.047424163139     1.098635635415    -0.638012820347     1.007825032230
         H            1.713628163139     0.836552635415     1.072857179653     1.007825032230
         H           -3.543524836861    -1.288628364585     0.355512179653     1.007825032230
         H           -2.978336836861     0.250113635415     1.015465179653     1.007825032230
         H           -2.120964836861    -1.249356364585     1.410453179653     1.007825032230
         H           -0.417949836861     1.873572635415     1.139872179653     1.007825032230
         H           -1.664249836861     2.042090635415    -0.109210820347     1.007825032230
         H            0.045521163139     2.305892635415    -0.503869820347     1.007825032230
         H            3.936804163139    -0.123667364585     0.451791179653     1.007825032230
         H            2.836399263139    -1.342800564585     0.875123879653     1.007825032230
         H            3.152406163139    -1.147281364585    -0.771188820347     1.007825032230

  Basis Set: AUG-CC-PVTZ
    Blend: AUG-CC-PVTZ
  Basis Set: (AUG-CC-PVTZ AUX)
    Blend: AUG-CC-PVTZ-JKFIT
	 Reference Energy          =    -289.3077754203327459 [Eh]
	 Singles Energy            =      -0.0000000000000000 [Eh]
	 Same-Spin Energy          =      -0.3064243463994719 [Eh]
	 Opposite-Spin Energy      =      -1.0918749454698931 [Eh]
	 Correlation Energy        =      -1.3982992918693649 [Eh]
	 Total Energy              =    -290.7060747122021098 [Eh]

	 ================> DF-SCS-MP2 Energies <==================
	-----------------------------------------------------------
	 SCS Same-Spin Scale       =       0.3333333333333333 [-]
	 SCS Opposite-Spin Scale   =       1.2000000000000000 [-]
	 SCS Same-Spin Energy      =      -0.1021414487998240 [Eh]
	 SCS Opposite-Spin Energy  =      -1.3102499345638716 [Eh]
	 SCS Correlation Energy    =      -1.4123913833636956 [Eh]
	 SCS Total Energy          =    -290.7201668036964293 [Eh]
	-----------------------------------------------------------

  Dipole Moment: [D]
     X:    -0.8096      Y:     1.7231      Z:     0.4141     Total:     1.9483

*** Psi4 exiting successfully. Buy a developer a beer!
