                               Psi4 1.4a3.dev225

  ==> Input File <==

--------------------------------------------------------------------------
#psi4
#
memory 32 gb

molecule  {
0 1
  N        0.6335420    -0.4278790    -0.2728430
  C       -1.7313700    -0.5561300    -0.6201830
  C       -0.4657584     0.2051329    -0.2796536
  C        1.8471620     0.3055680     0.0922530
  C       -2.6435280    -0.7283840     0.5986220
  C       -0.6406980     1.6798450     0.0649420
  C        3.0183950    -0.6607510     0.1713530
  H       -1.4212120    -1.5322710    -1.0024030
  H       -2.2765240    -0.0356590    -1.4187580
  H        2.0539910     1.0846830    -0.6562090
  H        1.7201950     0.8226000     1.0546610
  H       -3.5369580    -1.3025810     0.3373160
  H       -2.9717700     0.2361610     0.9972690
  H       -2.1143980    -1.2633090     1.3922570
  H       -0.4113830     1.8596200     1.1216760
  H       -1.6576830     2.0281380    -0.1274070
  H        0.0520880     2.2919400    -0.5220660
  H        3.9433710    -0.1376200     0.4335950
  H        2.8252920    -1.4268740     0.9259980
  H        3.1589730    -1.1612340    -0.7893850
units angstrom
no_reorient  #important for SAPT in psi4, default
symmetry c1  #important for SAPT in psi4, default
}

set PROPERTIES_ORIGIN ["COM"]
properties('MP2/aug-cc-pvtz', properties = ['dipole'])
--------------------------------------------------------------------------

    Molecular point group: c1
  Charge       = 0
  Multiplicity = 1
  Basis Set: AUG-CC-PVTZ
    Blend: AUG-CC-PVTZ
  Basis Set: (AUG-CC-PVTZ AUX)
    Blend: AUG-CC-PVTZ-JKFIT

    Orbital Energies [Eh]
    ---------------------

    Doubly Occupied:

       1A    -15.537353     2A    -11.273751     3A    -11.242961
       4A    -11.231120     5A    -11.223021     6A    -11.219395
       7A    -11.202874     8A     -1.224209     9A     -1.057347
      10A     -0.998891    11A     -0.970905    12A     -0.876350
      13A     -0.818497    14A     -0.707550    15A     -0.650897
      16A     -0.627896    17A     -0.616256    18A     -0.590811
      19A     -0.574698    20A     -0.550622    21A     -0.535830
      22A     -0.514890    23A     -0.512096    24A     -0.493924
      25A     -0.485646    26A     -0.476925    27A     -0.386605
      28A     -0.383472

  @DF-RHF Final Energy:  -289.31525997336632

   => Energetics <=

    Nuclear Repulsion Energy =            307.7339669955977683
    One-Electron Energy =               -1000.1288745464386238
    Two-Electron Energy =                 403.0796475774744749
    Total Energy =                       -289.3152599733663237
  Basis Set: (AUG-CC-PVTZ AUX)
    Blend: AUG-CC-PVTZ-RI
    Molecular point group: c1

    Geometry (in Angstrom), charge = 0, multiplicity = 1:

       Center              X                  Y                   Z               Mass
    ------------   -----------------  -----------------  -----------------  -----------------
         N            0.625056317627    -0.412004856256    -0.255362220385    14.003074004430
         C           -1.739855682373    -0.540255856256    -0.602702220385    12.000000000000
         C           -0.474244082373     0.221007043744    -0.262172820385    12.000000000000
         C            1.838676317627     0.321442143744     0.109733779615    12.000000000000
         C           -2.652013682373    -0.712509856256     0.616102779615    12.000000000000
         C           -0.649183682373     1.695719143744     0.082422779615    12.000000000000
         C            3.009909317627    -0.644876856256     0.188833779615    12.000000000000
         H           -1.429697682373    -1.516396856256    -0.984922220385     1.007825032230
         H           -2.285009682373    -0.019784856256    -1.401277220385     1.007825032230
         H            2.045505317627     1.100557143744    -0.638728220385     1.007825032230
         H            1.711709317627     0.838474143744     1.072141779615     1.007825032230
         H           -3.545443682373    -1.286706856256     0.354796779615     1.007825032230
         H           -2.980255682373     0.252035143744     1.014749779615     1.007825032230
         H           -2.122883682373    -1.247434856256     1.409737779615     1.007825032230
         H           -0.419868682373     1.875494143744     1.139156779615     1.007825032230
         H           -1.666168682373     2.044012143744    -0.109926220385     1.007825032230
         H            0.043602317627     2.307814143744    -0.504585220385     1.007825032230
         H            3.934885317627    -0.121745856256     0.451075779615     1.007825032230
         H            2.816806317627    -1.410999856256     0.943478779615     1.007825032230
         H            3.150487317627    -1.145359856256    -0.771904220385     1.007825032230

  Basis Set: AUG-CC-PVTZ
    Blend: AUG-CC-PVTZ
  Basis Set: (AUG-CC-PVTZ AUX)
    Blend: AUG-CC-PVTZ-JKFIT
	 Reference Energy          =    -289.3152599733663237 [Eh]
	 Singles Energy            =      -0.0000000000000000 [Eh]
	 Same-Spin Energy          =      -0.3058163862893298 [Eh]
	 Opposite-Spin Energy      =      -1.0913018252750331 [Eh]
	 Correlation Energy        =      -1.3971182115643628 [Eh]
	 Total Energy              =    -290.7123781849306852 [Eh]

	 ================> DF-SCS-MP2 Energies <==================
	-----------------------------------------------------------
	 SCS Same-Spin Scale       =       0.3333333333333333 [-]
	 SCS Opposite-Spin Scale   =       1.2000000000000000 [-]
	 SCS Same-Spin Energy      =      -0.1019387954297766 [Eh]
	 SCS Opposite-Spin Energy  =      -1.3095621903300396 [Eh]
	 SCS Correlation Energy    =      -1.4115009857598162 [Eh]
	 SCS Total Energy          =    -290.7267609591261248 [Eh]
	-----------------------------------------------------------

  Dipole Moment: [D]
     X:    -0.7700      Y:     1.7375      Z:     0.3796     Total:     1.9380

*** Psi4 exiting successfully. Buy a developer a beer!
