                               Psi4 1.4a3.dev225

  ==> Input File <==

--------------------------------------------------------------------------
#psi4
#
memory 32 gb

molecule  {
0 1
  N        0.6335420    -0.4278790    -0.2728430
  C       -1.8538544    -0.4802440    -0.6905760
  C       -0.4830900     0.2151130    -0.2797610
  C        1.8471620     0.3055680     0.0922530
  C       -2.6435280    -0.7283840     0.5986220
  C       -0.6406980     1.6798450     0.0649420
  C        3.0183950    -0.6607510     0.1713530
  H       -1.4212120    -1.5322710    -1.0024030
  H       -2.2765240    -0.0356590    -1.4187580
  H        2.0539910     1.0846830    -0.6562090
  H        1.7201950     0.8226000     1.0546610
  H       -3.5369580    -1.3025810     0.3373160
  H       -2.9717700     0.2361610     0.9972690
  H       -2.1143980    -1.2633090     1.3922570
  H       -0.4113830     1.8596200     1.1216760
  H       -1.6576830     2.0281380    -0.1274070
  H        0.0520880     2.2919400    -0.5220660
  H        3.9433710    -0.1376200     0.4335950
  H        2.8252920    -1.4268740     0.9259980
  H        3.1589730    -1.1612340    -0.7893850
units angstrom
no_reorient  #important for SAPT in psi4, default
symmetry c1  #important for SAPT in psi4, default
}

set PROPERTIES_ORIGIN ["COM"]
properties('MP2/aug-cc-pvtz', properties = ['dipole'])
--------------------------------------------------------------------------

    Molecular point group: c1
  Charge       = 0
  Multiplicity = 1
  Basis Set: AUG-CC-PVTZ
    Blend: AUG-CC-PVTZ
  Basis Set: (AUG-CC-PVTZ AUX)
    Blend: AUG-CC-PVTZ-JKFIT

    Orbital Energies [Eh]
    ---------------------

    Doubly Occupied:

       1A    -15.540179     2A    -11.280246     3A    -11.243629
       4A    -11.229184     5A    -11.224556     6A    -11.221231
       7A    -11.202787     8A     -1.214027     9A     -1.056866
      10A     -1.000375    11A     -0.970065    12A     -0.873863
      13A     -0.825364    14A     -0.710722    15A     -0.642619
      16A     -0.633651    17A     -0.621515    18A     -0.590121
      19A     -0.575206    20A     -0.550454    21A     -0.542888
      22A     -0.528309    23A     -0.511362    24A     -0.495307
      25A     -0.478834    26A     -0.455293    27A     -0.384718
      28A     -0.377741

  @DF-RHF Final Energy:  -289.28197753920654

   => Energetics <=

    Nuclear Repulsion Energy =            306.3340579896933491
    One-Electron Energy =                -997.2698417575068106
    Two-Electron Energy =                 401.6538062286069817
    Total Energy =                       -289.2819775392065367
  Basis Set: (AUG-CC-PVTZ AUX)
    Blend: AUG-CC-PVTZ-RI
    Molecular point group: c1

    Geometry (in Angstrom), charge = 0, multiplicity = 1:

       Center              X                  Y                   Z               Mass
    ------------   -----------------  -----------------  -----------------  -----------------
         N            0.641985790364    -0.422401862315    -0.246825753888    14.003074004430
         C           -1.845410609636    -0.474766862315    -0.664558753888    12.000000000000
         C           -0.474646209636     0.220590137685    -0.253743753888    12.000000000000
         C            1.855605790364     0.311045137685     0.118270246112    12.000000000000
         C           -2.635084209636    -0.722906862315     0.624639246112    12.000000000000
         C           -0.632254209636     1.685322137685     0.090959246112    12.000000000000
         C            3.026838790364    -0.655273862315     0.197370246112    12.000000000000
         H           -1.412768209636    -1.526793862315    -0.976385753888     1.007825032230
         H           -2.268080209636    -0.030181862315    -1.392740753888     1.007825032230
         H            2.062434790364     1.090160137685    -0.630191753888     1.007825032230
         H            1.728638790364     0.828077137685     1.080678246112     1.007825032230
         H           -3.528514209636    -1.297103862315     0.363333246112     1.007825032230
         H           -2.963326209636     0.241638137685     1.023286246112     1.007825032230
         H           -2.105954209636    -1.257831862315     1.418274246112     1.007825032230
         H           -0.402939209636     1.865097137685     1.147693246112     1.007825032230
         H           -1.649239209636     2.033615137685    -0.101389753888     1.007825032230
         H            0.060531790364     2.297417137685    -0.496048753888     1.007825032230
         H            3.951814790364    -0.132142862315     0.459612246112     1.007825032230
         H            2.833735790364    -1.421396862315     0.952015246112     1.007825032230
         H            3.167416790364    -1.155756862315    -0.763367753888     1.007825032230

  Basis Set: AUG-CC-PVTZ
    Blend: AUG-CC-PVTZ
  Basis Set: (AUG-CC-PVTZ AUX)
    Blend: AUG-CC-PVTZ-JKFIT
	 Reference Energy          =    -289.2819775392065367 [Eh]
	 Singles Energy            =      -0.0000000000000000 [Eh]
	 Same-Spin Energy          =      -0.3065206117797827 [Eh]
	 Opposite-Spin Energy      =      -1.0936259212103954 [Eh]
	 Correlation Energy        =      -1.4001465329901781 [Eh]
	 Total Energy              =    -290.6821240721967001 [Eh]

	 ================> DF-SCS-MP2 Energies <==================
	-----------------------------------------------------------
	 SCS Same-Spin Scale       =       0.3333333333333333 [-]
	 SCS Opposite-Spin Scale   =       1.2000000000000000 [-]
	 SCS Same-Spin Energy      =      -0.1021735372599276 [Eh]
	 SCS Opposite-Spin Energy  =      -1.3123511054524744 [Eh]
	 SCS Correlation Energy    =      -1.4145246427124019 [Eh]
	 SCS Total Energy          =    -290.6965021819189587 [Eh]
	-----------------------------------------------------------

  Dipole Moment: [D]
     X:    -0.7614      Y:     1.8081      Z:     0.3866     Total:     1.9996

*** Psi4 exiting successfully. Buy a developer a beer!
