                               Psi4 1.4a3.dev225

  ==> Input File <==

--------------------------------------------------------------------------
#psi4
#
memory 32 gb

molecule  {
0 1
  N        0.6335420    -0.4278790    -0.2728430
  C       -1.7313700    -0.5561300    -0.6201830
  C       -0.4830900     0.2151130    -0.2797610
  C        1.8471620     0.3055680     0.0922530
  C       -2.6316204    -0.7261353     0.5827113
  C       -0.6406980     1.6798450     0.0649420
  C        3.0183950    -0.6607510     0.1713530
  H       -1.4212120    -1.5322710    -1.0024030
  H       -2.2765240    -0.0356590    -1.4187580
  H        2.0539910     1.0846830    -0.6562090
  H        1.7201950     0.8226000     1.0546610
  H       -3.5369580    -1.3025810     0.3373160
  H       -2.9717700     0.2361610     0.9972690
  H       -2.1143980    -1.2633090     1.3922570
  H       -0.4113830     1.8596200     1.1216760
  H       -1.6576830     2.0281380    -0.1274070
  H        0.0520880     2.2919400    -0.5220660
  H        3.9433710    -0.1376200     0.4335950
  H        2.8252920    -1.4268740     0.9259980
  H        3.1589730    -1.1612340    -0.7893850
units angstrom
no_reorient  #important for SAPT in psi4, default
symmetry c1  #important for SAPT in psi4, default
}

set PROPERTIES_ORIGIN ["COM"]
properties('MP2/aug-cc-pvtz', properties = ['dipole'])
--------------------------------------------------------------------------

    Molecular point group: c1
  Charge       = 0
  Multiplicity = 1
  Basis Set: AUG-CC-PVTZ
    Blend: AUG-CC-PVTZ
  Basis Set: (AUG-CC-PVTZ AUX)
    Blend: AUG-CC-PVTZ-JKFIT

    Orbital Energies [Eh]
    ---------------------

    Doubly Occupied:

       1A    -15.538876     2A    -11.275817     3A    -11.242125
       4A    -11.231703     5A    -11.222830     6A    -11.220695
       7A    -11.202410     8A     -1.217600     9A     -1.061516
      10A     -0.999388    11A     -0.971883    12A     -0.875965
      13A     -0.816788    14A     -0.709124    15A     -0.652207
      16A     -0.627692    17A     -0.616250    18A     -0.590092
      19A     -0.575729    20A     -0.550944    21A     -0.537327
      22A     -0.516587    23A     -0.511380    24A     -0.493207
      25A     -0.483400    26A     -0.476312    27A     -0.385463
      28A     -0.381198

  @DF-RHF Final Energy:  -289.31346922069758

   => Energetics <=

    Nuclear Repulsion Energy =            307.8704412774781645
    One-Electron Energy =               -1000.3988061701820698
    Two-Electron Energy =                 403.2148956720062642
    Total Energy =                       -289.3134692206975842
  Basis Set: (AUG-CC-PVTZ AUX)
    Blend: AUG-CC-PVTZ-RI
    Molecular point group: c1

    Geometry (in Angstrom), charge = 0, multiplicity = 1:

       Center              X                  Y                   Z               Mass
    ------------   -----------------  -----------------  -----------------  -----------------
         N            0.625713076940    -0.413485567593    -0.253422685659    14.003074004430
         C           -1.739198923060    -0.541736567593    -0.600762685659    12.000000000000
         C           -0.490918923060     0.229506432407    -0.260340685659    12.000000000000
         C            1.839333076940     0.319961432407     0.111673314341    12.000000000000
         C           -2.639449323060    -0.711741867593     0.602131614341    12.000000000000
         C           -0.648526923060     1.694238432407     0.084362314341    12.000000000000
         C            3.010566076940    -0.646357567593     0.190773314341    12.000000000000
         H           -1.429040923060    -1.517877567593    -0.982982685659     1.007825032230
         H           -2.284352923060    -0.021265567593    -1.399337685659     1.007825032230
         H            2.046162076940     1.099076432407    -0.636788685659     1.007825032230
         H            1.712366076940     0.836993432407     1.074081314341     1.007825032230
         H           -3.544786923060    -1.288187567593     0.356736314341     1.007825032230
         H           -2.979598923060     0.250554432407     1.016689314341     1.007825032230
         H           -2.122226923060    -1.248915567593     1.411677314341     1.007825032230
         H           -0.419211923060     1.874013432407     1.141096314341     1.007825032230
         H           -1.665511923060     2.042531432407    -0.107986685659     1.007825032230
         H            0.044259076940     2.306333432407    -0.502645685659     1.007825032230
         H            3.935542076940    -0.123226567593     0.453015314341     1.007825032230
         H            2.817463076940    -1.412480567593     0.945418314341     1.007825032230
         H            3.151144076940    -1.146840567593    -0.769964685659     1.007825032230

  Basis Set: AUG-CC-PVTZ
    Blend: AUG-CC-PVTZ
  Basis Set: (AUG-CC-PVTZ AUX)
    Blend: AUG-CC-PVTZ-JKFIT
	 Reference Energy          =    -289.3134692206975842 [Eh]
	 Singles Energy            =      -0.0000000000000000 [Eh]
	 Same-Spin Energy          =      -0.3064719047895261 [Eh]
	 Opposite-Spin Energy      =      -1.0924043859746793 [Eh]
	 Correlation Energy        =      -1.3988762907642054 [Eh]
	 Total Energy              =    -290.7123455114617627 [Eh]

	 ================> DF-SCS-MP2 Energies <==================
	-----------------------------------------------------------
	 SCS Same-Spin Scale       =       0.3333333333333333 [-]
	 SCS Opposite-Spin Scale   =       1.2000000000000000 [-]
	 SCS Same-Spin Energy      =      -0.1021573015965087 [Eh]
	 SCS Opposite-Spin Energy  =      -1.3108852631696151 [Eh]
	 SCS Correlation Energy    =      -1.4130425647661238 [Eh]
	 SCS Total Energy          =    -290.7265117854636856 [Eh]
	-----------------------------------------------------------

  Dipole Moment: [D]
     X:    -0.8149      Y:     1.7618      Z:     0.3778     Total:     1.9776

*** Psi4 exiting successfully. Buy a developer a beer!
