                               Psi4 1.4a3.dev225

  ==> Input File <==

--------------------------------------------------------------------------
#psi4
#
memory 32 gb

molecule  {
0 1
  N        0.6335420    -0.4278790    -0.2728430
  C       -1.7313700    -0.5561300    -0.6201830
  C       -0.4830900     0.2151130    -0.2797610
  C        1.8471620     0.3055680     0.0922530
  C       -2.6435280    -0.7283840     0.5986220
  C       -0.6406980     1.6798450     0.0649420
  C        2.9869232    -0.6981880     0.0199042
  H       -1.4212120    -1.5322710    -1.0024030
  H       -2.2765240    -0.0356590    -1.4187580
  H        2.0539910     1.0846830    -0.6562090
  H        1.7201950     0.8226000     1.0546610
  H       -3.5369580    -1.3025810     0.3373160
  H       -2.9717700     0.2361610     0.9972690
  H       -2.1143980    -1.2633090     1.3922570
  H       -0.4113830     1.8596200     1.1216760
  H       -1.6576830     2.0281380    -0.1274070
  H        0.0520880     2.2919400    -0.5220660
  H        3.9433710    -0.1376200     0.4335950
  H        2.8252920    -1.4268740     0.9259980
  H        3.1589730    -1.1612340    -0.7893850
units angstrom
no_reorient  #important for SAPT in psi4, default
symmetry c1  #important for SAPT in psi4, default
}

set PROPERTIES_ORIGIN ["COM"]
properties('MP2/aug-cc-pvtz', properties = ['dipole'])
--------------------------------------------------------------------------

    Molecular point group: c1
  Charge       = 0
  Multiplicity = 1
  Basis Set: AUG-CC-PVTZ
    Blend: AUG-CC-PVTZ
  Basis Set: (AUG-CC-PVTZ AUX)
    Blend: AUG-CC-PVTZ-JKFIT

    Orbital Energies [Eh]
    ---------------------

    Doubly Occupied:

       1A    -15.537642     2A    -11.275233     3A    -11.244076
       4A    -11.232244     5A    -11.223595     6A    -11.219967
       7A    -11.206402     8A     -1.217959     9A     -1.060399
      10A     -0.999204    11A     -0.972060    12A     -0.878647
      13A     -0.822196    14A     -0.709932    15A     -0.651453
      16A     -0.633421    17A     -0.614953    18A     -0.596632
      19A     -0.579688    20A     -0.552250    21A     -0.541625
      22A     -0.525619    23A     -0.511677    24A     -0.486708
      25A     -0.471440    26A     -0.462639    27A     -0.387065
      28A     -0.380115

  @DF-RHF Final Energy:  -289.28185450554355

   => Energetics <=

    Nuclear Repulsion Energy =            307.9284099860985293
    One-Electron Energy =               -1000.4308448177486071
    Two-Electron Energy =                 403.2205803261065853
    Total Energy =                       -289.2818545055435493
  Basis Set: (AUG-CC-PVTZ AUX)
    Blend: AUG-CC-PVTZ-RI
    Molecular point group: c1

    Geometry (in Angstrom), charge = 0, multiplicity = 1:

       Center              X                  Y                   Z               Mass
    ------------   -----------------  -----------------  -----------------  -----------------
         N            0.630965625788    -0.408680266510    -0.237011197926    14.003074004430
         C           -1.733946374212    -0.536931266510    -0.584351197926    12.000000000000
         C           -0.485666374212     0.234311733490    -0.243929197926    12.000000000000
         C            1.844585625788     0.324766733490     0.128084802074    12.000000000000
         C           -2.646104374212    -0.709185266510     0.634453802074    12.000000000000
         C           -0.643274374212     1.699043733490     0.100773802074    12.000000000000
         C            2.984346825788    -0.678989266510     0.055736002074    12.000000000000
         H           -1.423788374212    -1.513072266510    -0.966571197926     1.007825032230
         H           -2.279100374212    -0.016460266510    -1.382926197926     1.007825032230
         H            2.051414625788     1.103881733490    -0.620377197926     1.007825032230
         H            1.717618625788     0.841798733490     1.090492802074     1.007825032230
         H           -3.539534374212    -1.283382266510     0.373147802074     1.007825032230
         H           -2.974346374212     0.255359733490     1.033100802074     1.007825032230
         H           -2.116974374212    -1.244110266510     1.428088802074     1.007825032230
         H           -0.413959374212     1.878818733490     1.157507802074     1.007825032230
         H           -1.660259374212     2.047336733490    -0.091575197926     1.007825032230
         H            0.049511625788     2.311138733490    -0.486234197926     1.007825032230
         H            3.940794625788    -0.118421266510     0.469426802074     1.007825032230
         H            2.822715625788    -1.407675266510     0.961829802074     1.007825032230
         H            3.156396625788    -1.142035266510    -0.753553197926     1.007825032230

  Basis Set: AUG-CC-PVTZ
    Blend: AUG-CC-PVTZ
  Basis Set: (AUG-CC-PVTZ AUX)
    Blend: AUG-CC-PVTZ-JKFIT
	 Reference Energy          =    -289.2818545055435493 [Eh]
	 Singles Energy            =      -0.0000000000000000 [Eh]
	 Same-Spin Energy          =      -0.3067544112360148 [Eh]
	 Opposite-Spin Energy      =      -1.0936080932733525 [Eh]
	 Correlation Energy        =      -1.4003625045093673 [Eh]
	 Total Energy              =    -290.6822170100529092 [Eh]

	 ================> DF-SCS-MP2 Energies <==================
	-----------------------------------------------------------
	 SCS Same-Spin Scale       =       0.3333333333333333 [-]
	 SCS Opposite-Spin Scale   =       1.2000000000000000 [-]
	 SCS Same-Spin Energy      =      -0.1022514704120049 [Eh]
	 SCS Opposite-Spin Energy  =      -1.3123297119280231 [Eh]
	 SCS Correlation Energy    =      -1.4145811823400281 [Eh]
	 SCS Total Energy          =    -290.6964356878835929 [Eh]
	-----------------------------------------------------------

  Dipole Moment: [D]
     X:    -0.8930      Y:     1.7701      Z:     0.3365     Total:     2.0110

*** Psi4 exiting successfully. Buy a developer a beer!
