                               Psi4 1.4a3.dev225

  ==> Input File <==

--------------------------------------------------------------------------
#psi4
#
memory 32 gb

molecule  {
0 1
  N        0.6335420    -0.4278790    -0.2728430
  C       -1.7243802    -0.6627132    -0.6253241
  C       -0.4830900     0.2151130    -0.2797610
  C        1.8471620     0.3055680     0.0922530
  C       -2.6435280    -0.7283840     0.5986220
  C       -0.6406980     1.6798450     0.0649420
  C        3.0183950    -0.6607510     0.1713530
  H       -1.4212120    -1.5322710    -1.0024030
  H       -2.2765240    -0.0356590    -1.4187580
  H        2.0539910     1.0846830    -0.6562090
  H        1.7201950     0.8226000     1.0546610
  H       -3.5369580    -1.3025810     0.3373160
  H       -2.9717700     0.2361610     0.9972690
  H       -2.1143980    -1.2633090     1.3922570
  H       -0.4113830     1.8596200     1.1216760
  H       -1.6576830     2.0281380    -0.1274070
  H        0.0520880     2.2919400    -0.5220660
  H        3.9433710    -0.1376200     0.4335950
  H        2.8252920    -1.4268740     0.9259980
  H        3.1589730    -1.1612340    -0.7893850
units angstrom
no_reorient  #important for SAPT in psi4, default
symmetry c1  #important for SAPT in psi4, default
}

set PROPERTIES_ORIGIN ["COM"]
properties('MP2/aug-cc-pvtz', properties = ['dipole'])
--------------------------------------------------------------------------

    Molecular point group: c1
  Charge       = 0
  Multiplicity = 1
  Basis Set: AUG-CC-PVTZ
    Blend: AUG-CC-PVTZ
  Basis Set: (AUG-CC-PVTZ AUX)
    Blend: AUG-CC-PVTZ-JKFIT

    Orbital Energies [Eh]
    ---------------------

    Doubly Occupied:

       1A    -15.536785     2A    -11.277370     3A    -11.240806
       4A    -11.234130     5A    -11.224449     6A    -11.219835
       7A    -11.201847     8A     -1.215368     9A     -1.054996
      10A     -0.999097    11A     -0.972431    12A     -0.875007
      13A     -0.817701    14A     -0.710525    15A     -0.655069
      16A     -0.624895    17A     -0.609989    18A     -0.591864
      19A     -0.574912    20A     -0.553106    21A     -0.537451
      22A     -0.525294    23A     -0.510443    24A     -0.495106
      25A     -0.488519    26A     -0.465917    27A     -0.381913
      28A     -0.379067

  @DF-RHF Final Energy:  -289.30071916190428

   => Energetics <=

    Nuclear Repulsion Energy =            306.9456163648259235
    One-Electron Energy =                -998.5448837716595563
    Two-Electron Energy =                 402.2985482449293499
    Total Energy =                       -289.3007191619042828
  Basis Set: (AUG-CC-PVTZ AUX)
    Blend: AUG-CC-PVTZ-RI
    Molecular point group: c1

    Geometry (in Angstrom), charge = 0, multiplicity = 1:

       Center              X                  Y                   Z               Mass
    ------------   -----------------  -----------------  -----------------  -----------------
         N            0.626308543561    -0.400307771890    -0.254726711304    14.003074004430
         C           -1.731613656439    -0.635141971890    -0.607207811304    12.000000000000
         C           -0.490323456439     0.242684228110    -0.261644711304    12.000000000000
         C            1.839928543561     0.333139228110     0.110369288696    12.000000000000
         C           -2.650761456439    -0.700812771890     0.616738288696    12.000000000000
         C           -0.647931456439     1.707416228110     0.083058288696    12.000000000000
         C            3.011161543561    -0.633179771890     0.189469288696    12.000000000000
         H           -1.428445456439    -1.504699771890    -0.984286711304     1.007825032230
         H           -2.283757456439    -0.008087771890    -1.400641711304     1.007825032230
         H            2.046757543561     1.112254228110    -0.638092711304     1.007825032230
         H            1.712961543561     0.850171228110     1.072777288696     1.007825032230
         H           -3.544191456439    -1.275009771890     0.355432288696     1.007825032230
         H           -2.979003456439     0.263732228110     1.015385288696     1.007825032230
         H           -2.121631456439    -1.235737771890     1.410373288696     1.007825032230
         H           -0.418616456439     1.887191228110     1.139792288696     1.007825032230
         H           -1.664916456439     2.055709228110    -0.109290711304     1.007825032230
         H            0.044854543561     2.319511228110    -0.503949711304     1.007825032230
         H            3.936137543561    -0.110048771890     0.451711288696     1.007825032230
         H            2.818058543561    -1.399302771890     0.944114288696     1.007825032230
         H            3.151739543561    -1.133662771890    -0.771268711304     1.007825032230

  Basis Set: AUG-CC-PVTZ
    Blend: AUG-CC-PVTZ
  Basis Set: (AUG-CC-PVTZ AUX)
    Blend: AUG-CC-PVTZ-JKFIT
	 Reference Energy          =    -289.3007191619042828 [Eh]
	 Singles Energy            =      -0.0000000000000000 [Eh]
	 Same-Spin Energy          =      -0.3061745231336095 [Eh]
	 Opposite-Spin Energy      =      -1.0925436082164981 [Eh]
	 Correlation Energy        =      -1.3987181313501076 [Eh]
	 Total Energy              =    -290.6994372932543911 [Eh]

	 ================> DF-SCS-MP2 Energies <==================
	-----------------------------------------------------------
	 SCS Same-Spin Scale       =       0.3333333333333333 [-]
	 SCS Opposite-Spin Scale   =       1.2000000000000000 [-]
	 SCS Same-Spin Energy      =      -0.1020581743778698 [Eh]
	 SCS Opposite-Spin Energy  =      -1.3110523298597976 [Eh]
	 SCS Correlation Energy    =      -1.4131105042376675 [Eh]
	 SCS Total Energy          =    -290.7138296661419758 [Eh]
	-----------------------------------------------------------

  Dipole Moment: [D]
     X:    -0.8082      Y:     1.7675      Z:     0.4149     Total:     1.9873

*** Psi4 exiting successfully. Buy a developer a beer!
