                               Psi4 1.4a3.dev225

  ==> Input File <==

--------------------------------------------------------------------------
#psi4
#
memory 32 gb

molecule  {
0 1
  N        0.6335420    -0.4278790    -0.2728430
  C       -1.7313700    -0.5561300    -0.6201830
  C       -0.4830900     0.2151130    -0.2797610
  C        1.8471620     0.3055680     0.0922530
  C       -2.6435280    -0.7283840     0.5986220
  C       -0.6406980     1.6798450     0.0649420
  C        3.0183950    -0.6607510     0.1713530
  H       -1.4212120    -1.5322710    -1.0024030
  H       -2.2765240    -0.0356590    -1.4187580
  H        2.0539910     1.0846830    -0.6562090
  H        1.7201950     0.8226000     1.0546610
  H       -3.5532956    -1.3130810     0.3325377
  H       -2.9717700     0.2361610     0.9972690
  H       -2.1143980    -1.2633090     1.3922570
  H       -0.4113830     1.8596200     1.1216760
  H       -1.6576830     2.0281380    -0.1274070
  H        0.0520880     2.2919400    -0.5220660
  H        3.9433710    -0.1376200     0.4335950
  H        2.8252920    -1.4268740     0.9259980
  H        3.1589730    -1.1612340    -0.7893850
units angstrom
no_reorient  #important for SAPT in psi4, default
symmetry c1  #important for SAPT in psi4, default
}

set PROPERTIES_ORIGIN ["COM"]
properties('MP2/aug-cc-pvtz', properties = ['dipole'])
--------------------------------------------------------------------------

    Molecular point group: c1
  Charge       = 0
  Multiplicity = 1
  Basis Set: AUG-CC-PVTZ
    Blend: AUG-CC-PVTZ
  Basis Set: (AUG-CC-PVTZ AUX)
    Blend: AUG-CC-PVTZ-JKFIT

    Orbital Energies [Eh]
    ---------------------

    Doubly Occupied:

       1A    -15.538868     2A    -11.275859     3A    -11.242150
       4A    -11.231772     5A    -11.223788     6A    -11.222296
       7A    -11.202433     8A     -1.217497     9A     -1.059173
      10A     -0.997761    11A     -0.971824    12A     -0.876271
      13A     -0.816867    14A     -0.708775    15A     -0.651765
      16A     -0.627180    17A     -0.615781    18A     -0.590286
      19A     -0.575540    20A     -0.550012    21A     -0.535237
      22A     -0.515165    23A     -0.511384    24A     -0.493165
      25A     -0.486216    26A     -0.476734    27A     -0.385469
      28A     -0.380729

  @DF-RHF Final Energy:  -289.31353982815529

   => Energetics <=

    Nuclear Repulsion Energy =            307.5156873973207325
    One-Electron Energy =                -999.6984628772947872
    Two-Electron Energy =                 402.8692356518187125
    Total Energy =                       -289.3135398281552852
  Basis Set: (AUG-CC-PVTZ AUX)
    Blend: AUG-CC-PVTZ-RI
    Molecular point group: c1

    Geometry (in Angstrom), charge = 0, multiplicity = 1:

       Center              X                  Y                   Z               Mass
    ------------   -----------------  -----------------  -----------------  -----------------
         N            0.627321037838    -0.413106508626    -0.255300624071    14.003074004430
         C           -1.737590962162    -0.541357508626    -0.602640624071    12.000000000000
         C           -0.489310962162     0.229885491374    -0.262218624071    12.000000000000
         C            1.840941037838     0.320340491374     0.109795375929    12.000000000000
         C           -2.649748962162    -0.713611508626     0.616164375929    12.000000000000
         C           -0.646918962162     1.694617491374     0.082484375929    12.000000000000
         C            3.012174037838    -0.645978508626     0.188895375929    12.000000000000
         H           -1.427432962162    -1.517498508626    -0.984860624071     1.007825032230
         H           -2.282744962162    -0.020886508626    -1.401215624071     1.007825032230
         H            2.047770037838     1.099455491374    -0.638666624071     1.007825032230
         H            1.713974037838     0.837372491374     1.072203375929     1.007825032230
         H           -3.559516562162    -1.298308508626     0.350080075929     1.007825032230
         H           -2.977990962162     0.250933491374     1.014811375929     1.007825032230
         H           -2.120618962162    -1.248536508626     1.409799375929     1.007825032230
         H           -0.417603962162     1.874392491374     1.139218375929     1.007825032230
         H           -1.663903962162     2.042910491374    -0.109864624071     1.007825032230
         H            0.045867037838     2.306712491374    -0.504523624071     1.007825032230
         H            3.937150037838    -0.122847508626     0.451137375929     1.007825032230
         H            2.819071037838    -1.412101508626     0.943540375929     1.007825032230
         H            3.152752037838    -1.146461508626    -0.771842624071     1.007825032230

  Basis Set: AUG-CC-PVTZ
    Blend: AUG-CC-PVTZ
  Basis Set: (AUG-CC-PVTZ AUX)
    Blend: AUG-CC-PVTZ-JKFIT
	 Reference Energy          =    -289.3135398281552852 [Eh]
	 Singles Energy            =      -0.0000000000000000 [Eh]
	 Same-Spin Energy          =      -0.3063358903389068 [Eh]
	 Opposite-Spin Energy      =      -1.0924055978284846 [Eh]
	 Correlation Energy        =      -1.3987414881673914 [Eh]
	 Total Energy              =    -290.7122813163226738 [Eh]

	 ================> DF-SCS-MP2 Energies <==================
	-----------------------------------------------------------
	 SCS Same-Spin Scale       =       0.3333333333333333 [-]
	 SCS Opposite-Spin Scale   =       1.2000000000000000 [-]
	 SCS Same-Spin Energy      =      -0.1021119634463023 [Eh]
	 SCS Opposite-Spin Energy  =      -1.3108867173941814 [Eh]
	 SCS Correlation Energy    =      -1.4129986808404837 [Eh]
	 SCS Total Energy          =    -290.7265385089957590 [Eh]
	-----------------------------------------------------------

  Dipole Moment: [D]
     X:    -0.8066      Y:     1.7676      Z:     0.3803     Total:     1.9798

*** Psi4 exiting successfully. Buy a developer a beer!
