                               Psi4 1.4a3.dev225

  ==> Input File <==

--------------------------------------------------------------------------
#psi4
#
memory 32 gb

molecule  {
0 1
  N        0.6335420    -0.4278790    -0.2728430
  C       -1.7313700    -0.5561300    -0.6201830
  C       -0.3097736     0.1153119    -0.2786872
  C        1.8471620     0.3055680     0.0922530
  C       -2.6435280    -0.7283840     0.5986220
  C       -0.6406980     1.6798450     0.0649420
  C        3.0183950    -0.6607510     0.1713530
  H       -1.4212120    -1.5322710    -1.0024030
  H       -2.2765240    -0.0356590    -1.4187580
  H        2.0539910     1.0846830    -0.6562090
  H        1.7201950     0.8226000     1.0546610
  H       -3.5369580    -1.3025810     0.3373160
  H       -2.9717700     0.2361610     0.9972690
  H       -2.1143980    -1.2633090     1.3922570
  H       -0.4113830     1.8596200     1.1216760
  H       -1.6576830     2.0281380    -0.1274070
  H        0.0520880     2.2919400    -0.5220660
  H        3.9433710    -0.1376200     0.4335950
  H        2.8252920    -1.4268740     0.9259980
  H        3.1589730    -1.1612340    -0.7893850
units angstrom
no_reorient  #important for SAPT in psi4, default
symmetry c1  #important for SAPT in psi4, default
}

set PROPERTIES_ORIGIN ["COM"]
properties('MP2/aug-cc-pvtz', properties = ['dipole'])
--------------------------------------------------------------------------

    Molecular point group: c1
  Charge       = 0
  Multiplicity = 1
  Basis Set: AUG-CC-PVTZ
    Blend: AUG-CC-PVTZ
  Basis Set: (AUG-CC-PVTZ AUX)
    Blend: AUG-CC-PVTZ-JKFIT

    Orbital Energies [Eh]
    ---------------------

    Doubly Occupied:

       1A    -15.522139     2A    -11.255632     3A    -11.254630
       4A    -11.223716     5A    -11.216119     6A    -11.214330
       7A    -11.209204     8A     -1.305062     9A     -1.043238
      10A     -1.011379    11A     -0.952728    12A     -0.871672
      13A     -0.826777    14A     -0.701883    15A     -0.642255
      16A     -0.637334    17A     -0.623632    18A     -0.596087
      19A     -0.568074    20A     -0.540733    21A     -0.536411
      22A     -0.520975    23A     -0.516569    24A     -0.501105
      25A     -0.490432    26A     -0.471253    27A     -0.443496
      28A     -0.345870

  @DF-RHF Final Energy:  -289.24844559976998

   => Energetics <=

    Nuclear Repulsion Energy =            309.3972120246718873
    One-Electron Energy =               -1003.2058465906395668
    Two-Electron Energy =                 404.5601889661976429
    Total Energy =                       -289.2484455997699797
  Basis Set: (AUG-CC-PVTZ AUX)
    Blend: AUG-CC-PVTZ-RI
    Molecular point group: c1

    Geometry (in Angstrom), charge = 0, multiplicity = 1:

       Center              X                  Y                   Z               Mass
    ------------   -----------------  -----------------  -----------------  -----------------
         N            0.606169062813    -0.401128975308    -0.255479235909    14.003074004430
         C           -1.758742937187    -0.529379975308    -0.602819235909    12.000000000000
         C           -0.337146537187     0.142061924692    -0.261323435909    12.000000000000
         C            1.819789062813     0.332318024692     0.109616764091    12.000000000000
         C           -2.670900937187    -0.701633975308     0.615985764091    12.000000000000
         C           -0.668070937187     1.706595024692     0.082305764091    12.000000000000
         C            2.991022062813    -0.634000975308     0.188716764091    12.000000000000
         H           -1.448584937187    -1.505520975308    -0.985039235909     1.007825032230
         H           -2.303896937187    -0.008908975308    -1.401394235909     1.007825032230
         H            2.026618062813     1.111433024692    -0.638845235909     1.007825032230
         H            1.692822062813     0.849350024692     1.072024764091     1.007825032230
         H           -3.564330937187    -1.275830975308     0.354679764091     1.007825032230
         H           -2.999142937187     0.262911024692     1.014632764091     1.007825032230
         H           -2.141770937187    -1.236558975308     1.409620764091     1.007825032230
         H           -0.438755937187     1.886370024692     1.139039764091     1.007825032230
         H           -1.685055937187     2.054888024692    -0.110043235909     1.007825032230
         H            0.024715062813     2.318690024692    -0.504702235909     1.007825032230
         H            3.915998062813    -0.110869975308     0.450958764091     1.007825032230
         H            2.797919062813    -1.400123975308     0.943361764091     1.007825032230
         H            3.131600062813    -1.134483975308    -0.772021235909     1.007825032230

  Basis Set: AUG-CC-PVTZ
    Blend: AUG-CC-PVTZ
  Basis Set: (AUG-CC-PVTZ AUX)
    Blend: AUG-CC-PVTZ-JKFIT
	 Reference Energy          =    -289.2484455997699797 [Eh]
	 Singles Energy            =      -0.0000000000000000 [Eh]
	 Same-Spin Energy          =      -0.3033901024143372 [Eh]
	 Opposite-Spin Energy      =      -1.0859596149817037 [Eh]
	 Correlation Energy        =      -1.3893497173960410 [Eh]
	 Total Energy              =    -290.6377953171660238 [Eh]

	 ================> DF-SCS-MP2 Energies <==================
	-----------------------------------------------------------
	 SCS Same-Spin Scale       =       0.3333333333333333 [-]
	 SCS Opposite-Spin Scale   =       1.2000000000000000 [-]
	 SCS Same-Spin Energy      =      -0.1011300341381124 [Eh]
	 SCS Opposite-Spin Energy  =      -1.3031515379780443 [Eh]
	 SCS Correlation Energy    =      -1.4042815721161566 [Eh]
	 SCS Total Energy          =    -290.6527271718861130 [Eh]
	-----------------------------------------------------------

  Dipole Moment: [D]
     X:    -0.0436      Y:     1.4121      Z:     0.3723     Total:     1.4610

*** Psi4 exiting successfully. Buy a developer a beer!
