                               Psi4 1.4a3.dev225

  ==> Input File <==

--------------------------------------------------------------------------
#psi4
#
memory 32 gb

molecule  {
0 1
  N        0.6335420    -0.4278790    -0.2728430
  C       -1.7018170    -0.5990282    -0.6273016
  C       -0.4830900     0.2151130    -0.2797610
  C        1.8471620     0.3055680     0.0922530
  C       -2.6435280    -0.7283840     0.5986220
  C       -0.6406980     1.6798450     0.0649420
  C        3.0183950    -0.6607510     0.1713530
  H       -1.4212120    -1.5322710    -1.0024030
  H       -2.2765240    -0.0356590    -1.4187580
  H        2.0539910     1.0846830    -0.6562090
  H        1.7201950     0.8226000     1.0546610
  H       -3.5369580    -1.3025810     0.3373160
  H       -2.9717700     0.2361610     0.9972690
  H       -2.1143980    -1.2633090     1.3922570
  H       -0.4113830     1.8596200     1.1216760
  H       -1.6576830     2.0281380    -0.1274070
  H        0.0520880     2.2919400    -0.5220660
  H        3.9433710    -0.1376200     0.4335950
  H        2.8252920    -1.4268740     0.9259980
  H        3.1589730    -1.1612340    -0.7893850
units angstrom
no_reorient  #important for SAPT in psi4, default
symmetry c1  #important for SAPT in psi4, default
}

set PROPERTIES_ORIGIN ["COM"]
properties('MP2/aug-cc-pvtz', properties = ['dipole'])
--------------------------------------------------------------------------

    Molecular point group: c1
  Charge       = 0
  Multiplicity = 1
  Basis Set: AUG-CC-PVTZ
    Blend: AUG-CC-PVTZ
  Basis Set: (AUG-CC-PVTZ AUX)
    Blend: AUG-CC-PVTZ-JKFIT

    Orbital Energies [Eh]
    ---------------------

    Doubly Occupied:

       1A    -15.537564     2A    -11.275575     3A    -11.241273
       4A    -11.233068     5A    -11.223520     6A    -11.220613
       7A    -11.202059     8A     -1.217484     9A     -1.057139
      10A     -0.996587    11A     -0.972341    12A     -0.878135
      13A     -0.816859    14A     -0.710214    15A     -0.654362
      16A     -0.626150    17A     -0.613428    18A     -0.590053
      19A     -0.575001    20A     -0.551737    21A     -0.535186
      22A     -0.514907    23A     -0.510119    24A     -0.494878
      25A     -0.490571    26A     -0.475433    27A     -0.385238
      28A     -0.378832

  @DF-RHF Final Energy:  -289.31112374101190

   => Energetics <=

    Nuclear Repulsion Energy =            307.5251810154630334
    One-Electron Energy =                -999.7159558930881076
    Two-Electron Energy =                 402.8796511366131199
    Total Energy =                       -289.3111237410118974
  Basis Set: (AUG-CC-PVTZ AUX)
    Blend: AUG-CC-PVTZ-RI
    Molecular point group: c1

    Geometry (in Angstrom), charge = 0, multiplicity = 1:

       Center              X                  Y                   Z               Mass
    ------------   -----------------  -----------------  -----------------  -----------------
         N            0.623576502312    -0.408019002874    -0.254487267805    14.003074004430
         C           -1.711782497688    -0.579168202874    -0.608945867805    12.000000000000
         C           -0.493055497688     0.234972997126    -0.261405267805    12.000000000000
         C            1.837196502312     0.325427997126     0.110608732195    12.000000000000
         C           -2.653493497688    -0.708524002874     0.616977732195    12.000000000000
         C           -0.650663497688     1.699704997126     0.083297732195    12.000000000000
         C            3.008429502312    -0.640891002874     0.189708732195    12.000000000000
         H           -1.431177497688    -1.512411002874    -0.984047267805     1.007825032230
         H           -2.286489497688    -0.015799002874    -1.400402267805     1.007825032230
         H            2.044025502312     1.104542997126    -0.637853267805     1.007825032230
         H            1.710229502312     0.842459997126     1.073016732195     1.007825032230
         H           -3.546923497688    -1.282721002874     0.355671732195     1.007825032230
         H           -2.981735497688     0.256020997126     1.015624732195     1.007825032230
         H           -2.124363497688    -1.243449002874     1.410612732195     1.007825032230
         H           -0.421348497688     1.879479997126     1.140031732195     1.007825032230
         H           -1.667648497688     2.047997997126    -0.109051267805     1.007825032230
         H            0.042122502312     2.311799997126    -0.503710267805     1.007825032230
         H            3.933405502312    -0.117760002874     0.451950732195     1.007825032230
         H            2.815326502312    -1.407014002874     0.944353732195     1.007825032230
         H            3.149007502312    -1.141374002874    -0.771029267805     1.007825032230

  Basis Set: AUG-CC-PVTZ
    Blend: AUG-CC-PVTZ
  Basis Set: (AUG-CC-PVTZ AUX)
    Blend: AUG-CC-PVTZ-JKFIT
	 Reference Energy          =    -289.3111237410118974 [Eh]
	 Singles Energy            =      -0.0000000000000000 [Eh]
	 Same-Spin Energy          =      -0.3062532745827886 [Eh]
	 Opposite-Spin Energy      =      -1.0922752184603954 [Eh]
	 Correlation Energy        =      -1.3985284930431841 [Eh]
	 Total Energy              =    -290.7096522340550564 [Eh]

	 ================> DF-SCS-MP2 Energies <==================
	-----------------------------------------------------------
	 SCS Same-Spin Scale       =       0.3333333333333333 [-]
	 SCS Opposite-Spin Scale   =       1.2000000000000000 [-]
	 SCS Same-Spin Energy      =      -0.1020844248609295 [Eh]
	 SCS Opposite-Spin Energy  =      -1.3107302621524746 [Eh]
	 SCS Correlation Energy    =      -1.4128146870134042 [Eh]
	 SCS Total Energy          =    -290.7239384280252921 [Eh]
	-----------------------------------------------------------

  Dipole Moment: [D]
     X:    -0.8313      Y:     1.7567      Z:     0.3870     Total:     1.9816

*** Psi4 exiting successfully. Buy a developer a beer!
