                               Psi4 1.4a3.dev225

  ==> Input File <==

--------------------------------------------------------------------------
#psi4
#
memory 32 gb

molecule  {
0 1
  N        0.6335420    -0.4278790    -0.2728430
  C       -1.7313700    -0.5561300    -0.6201830
  C       -0.4830900     0.2151130    -0.2797610
  C        1.8471620     0.3055680     0.0922530
  C       -2.6435280    -0.7283840     0.5986220
  C       -0.6406980     1.6798450     0.0649420
  C        3.0224000    -0.6534694     0.1965550
  H       -1.4212120    -1.5322710    -1.0024030
  H       -2.2765240    -0.0356590    -1.4187580
  H        2.0539910     1.0846830    -0.6562090
  H        1.7201950     0.8226000     1.0546610
  H       -3.5369580    -1.3025810     0.3373160
  H       -2.9717700     0.2361610     0.9972690
  H       -2.1143980    -1.2633090     1.3922570
  H       -0.4113830     1.8596200     1.1216760
  H       -1.6576830     2.0281380    -0.1274070
  H        0.0520880     2.2919400    -0.5220660
  H        3.9433710    -0.1376200     0.4335950
  H        2.8252920    -1.4268740     0.9259980
  H        3.1589730    -1.1612340    -0.7893850
units angstrom
no_reorient  #important for SAPT in psi4, default
symmetry c1  #important for SAPT in psi4, default
}

set PROPERTIES_ORIGIN ["COM"]
properties('MP2/aug-cc-pvtz', properties = ['dipole'])
--------------------------------------------------------------------------

    Molecular point group: c1
  Charge       = 0
  Multiplicity = 1
  Basis Set: AUG-CC-PVTZ
    Blend: AUG-CC-PVTZ
  Basis Set: (AUG-CC-PVTZ AUX)
    Blend: AUG-CC-PVTZ-JKFIT

    Orbital Energies [Eh]
    ---------------------

    Doubly Occupied:

       1A    -15.538951     2A    -11.275904     3A    -11.242122
       4A    -11.231643     5A    -11.223628     6A    -11.219931
       7A    -11.202519     8A     -1.217385     9A     -1.059307
      10A     -0.998301    11A     -0.971887    12A     -0.877478
      13A     -0.817120    14A     -0.708646    15A     -0.651971
      16A     -0.627147    17A     -0.616003    18A     -0.589783
      19A     -0.575336    20A     -0.552163    21A     -0.537864
      22A     -0.515605    23A     -0.512521    24A     -0.489615
      25A     -0.486275    26A     -0.477373    27A     -0.385217
      28A     -0.380636

  @DF-RHF Final Energy:  -289.31332958905512

   => Energetics <=

    Nuclear Repulsion Energy =            307.5588430202437848
    One-Electron Energy =                -999.7796839040960322
    Two-Electron Energy =                 402.9075112947971320
    Total Energy =                       -289.3133295890551153
  Basis Set: (AUG-CC-PVTZ AUX)
    Blend: AUG-CC-PVTZ-RI
    Molecular point group: c1

    Geometry (in Angstrom), charge = 0, multiplicity = 1:

       Center              X                  Y                   Z               Mass
    ------------   -----------------  -----------------  -----------------  -----------------
         N            0.626669954917    -0.414094970975    -0.258400773530    14.003074004430
         C           -1.738242045083    -0.542345970975    -0.605740773530    12.000000000000
         C           -0.489962045083     0.228897029025    -0.265318773530    12.000000000000
         C            1.840289954917     0.319352029025     0.106695226470    12.000000000000
         C           -2.650400045083    -0.714599970975     0.613064226470    12.000000000000
         C           -0.647570045083     1.693629029025     0.079384226470    12.000000000000
         C            3.015527954917    -0.639685370975     0.210997226470    12.000000000000
         H           -1.428084045083    -1.518486970975    -0.987960773530     1.007825032230
         H           -2.283396045083    -0.021874970975    -1.404315773530     1.007825032230
         H            2.047118954917     1.098467029025    -0.641766773530     1.007825032230
         H            1.713322954917     0.836384029025     1.069103226470     1.007825032230
         H           -3.543830045083    -1.288796970975     0.351758226470     1.007825032230
         H           -2.978642045083     0.249945029025     1.011711226470     1.007825032230
         H           -2.121270045083    -1.249524970975     1.406699226470     1.007825032230
         H           -0.418255045083     1.873404029025     1.136118226470     1.007825032230
         H           -1.664555045083     2.041922029025    -0.112964773530     1.007825032230
         H            0.045215954917     2.305724029025    -0.507623773530     1.007825032230
         H            3.936498954917    -0.123835970975     0.448037226470     1.007825032230
         H            2.818419954917    -1.413089970975     0.940440226470     1.007825032230
         H            3.152100954917    -1.147449970975    -0.774942773530     1.007825032230

  Basis Set: AUG-CC-PVTZ
    Blend: AUG-CC-PVTZ
  Basis Set: (AUG-CC-PVTZ AUX)
    Blend: AUG-CC-PVTZ-JKFIT
	 Reference Energy          =    -289.3133295890551153 [Eh]
	 Singles Energy            =      -0.0000000000000000 [Eh]
	 Same-Spin Energy          =      -0.3063513964374929 [Eh]
	 Opposite-Spin Energy      =      -1.0923061086140573 [Eh]
	 Correlation Energy        =      -1.3986575050515502 [Eh]
	 Total Energy              =    -290.7119870941066893 [Eh]

	 ================> DF-SCS-MP2 Energies <==================
	-----------------------------------------------------------
	 SCS Same-Spin Scale       =       0.3333333333333333 [-]
	 SCS Opposite-Spin Scale   =       1.2000000000000000 [-]
	 SCS Same-Spin Energy      =      -0.1021171321458310 [Eh]
	 SCS Opposite-Spin Energy  =      -1.3107673303368688 [Eh]
	 SCS Correlation Energy    =      -1.4128844624826997 [Eh]
	 SCS Total Energy          =    -290.7262140515377951 [Eh]
	-----------------------------------------------------------

  Dipole Moment: [D]
     X:    -0.8203      Y:     1.7647      Z:     0.3912     Total:     1.9850

*** Psi4 exiting successfully. Buy a developer a beer!
