                               Psi4 1.4a3.dev225

  ==> Input File <==

--------------------------------------------------------------------------
#psi4
#
memory 32 gb

molecule  {
0 1
  N        0.6335420    -0.4278790    -0.2728430
  C       -1.7313700    -0.5561300    -0.6201830
  C       -0.4535660     0.2044516    -0.3801032
  C        1.8471620     0.3055680     0.0922530
  C       -2.6435280    -0.7283840     0.5986220
  C       -0.6406980     1.6798450     0.0649420
  C        3.0183950    -0.6607510     0.1713530
  H       -1.4212120    -1.5322710    -1.0024030
  H       -2.2765240    -0.0356590    -1.4187580
  H        2.0539910     1.0846830    -0.6562090
  H        1.7201950     0.8226000     1.0546610
  H       -3.5369580    -1.3025810     0.3373160
  H       -2.9717700     0.2361610     0.9972690
  H       -2.1143980    -1.2633090     1.3922570
  H       -0.4113830     1.8596200     1.1216760
  H       -1.6576830     2.0281380    -0.1274070
  H        0.0520880     2.2919400    -0.5220660
  H        3.9433710    -0.1376200     0.4335950
  H        2.8252920    -1.4268740     0.9259980
  H        3.1589730    -1.1612340    -0.7893850
units angstrom
no_reorient  #important for SAPT in psi4, default
symmetry c1  #important for SAPT in psi4, default
}

set PROPERTIES_ORIGIN ["COM"]
properties('MP2/aug-cc-pvtz', properties = ['dipole'])
--------------------------------------------------------------------------

    Molecular point group: c1
  Charge       = 0
  Multiplicity = 1
  Basis Set: AUG-CC-PVTZ
    Blend: AUG-CC-PVTZ
  Basis Set: (AUG-CC-PVTZ AUX)
    Blend: AUG-CC-PVTZ-JKFIT

    Orbital Energies [Eh]
    ---------------------

    Doubly Occupied:

       1A    -15.538601     2A    -11.273882     3A    -11.244364
       4A    -11.230358     5A    -11.222790     6A    -11.220984
       7A    -11.203543     8A     -1.226321     9A     -1.056881
      10A     -0.999558    11A     -0.965865    12A     -0.880037
      13A     -0.820608    14A     -0.705406    15A     -0.649968
      16A     -0.628710    17A     -0.613628    18A     -0.588719
      19A     -0.573890    20A     -0.548009    21A     -0.538870
      22A     -0.515296    23A     -0.512494    24A     -0.494381
      25A     -0.485790    26A     -0.477848    27A     -0.389758
      28A     -0.380145

  @DF-RHF Final Energy:  -289.31039276174005

   => Energetics <=

    Nuclear Repulsion Energy =            307.4489583633433085
    One-Electron Energy =                -999.5452959546635157
    Two-Electron Energy =                 402.7859448295801599
    Total Energy =                       -289.3103927617400473
  Basis Set: (AUG-CC-PVTZ AUX)
    Blend: AUG-CC-PVTZ-RI
    Molecular point group: c1

    Geometry (in Angstrom), charge = 0, multiplicity = 1:

       Center              X                  Y                   Z               Mass
    ------------   -----------------  -----------------  -----------------  -----------------
         N            0.623580013746    -0.411922361765    -0.243199386627    14.003074004430
         C           -1.741331986254    -0.540173361765    -0.590539386627    12.000000000000
         C           -0.463527986254     0.220408238235    -0.350459586627    12.000000000000
         C            1.837200013746     0.321524638235     0.121896613373    12.000000000000
         C           -2.653489986254    -0.712427361765     0.628265613373    12.000000000000
         C           -0.650659986254     1.695801638235     0.094585613373    12.000000000000
         C            3.008433013746    -0.644794361765     0.200996613373    12.000000000000
         H           -1.431173986254    -1.516314361765    -0.972759386627     1.007825032230
         H           -2.286485986254    -0.019702361765    -1.389114386627     1.007825032230
         H            2.044029013746     1.100639638235    -0.626565386627     1.007825032230
         H            1.710233013746     0.838556638235     1.084304613373     1.007825032230
         H           -3.546919986254    -1.286624361765     0.366959613373     1.007825032230
         H           -2.981731986254     0.252117638235     1.026912613373     1.007825032230
         H           -2.124359986254    -1.247352361765     1.421900613373     1.007825032230
         H           -0.421344986254     1.875576638235     1.151319613373     1.007825032230
         H           -1.667644986254     2.044094638235    -0.097763386627     1.007825032230
         H            0.042126013746     2.307896638235    -0.492422386627     1.007825032230
         H            3.933409013746    -0.121663361765     0.463238613373     1.007825032230
         H            2.815330013746    -1.410917361765     0.955641613373     1.007825032230
         H            3.149011013746    -1.145277361765    -0.759741386627     1.007825032230

  Basis Set: AUG-CC-PVTZ
    Blend: AUG-CC-PVTZ
  Basis Set: (AUG-CC-PVTZ AUX)
    Blend: AUG-CC-PVTZ-JKFIT
	 Reference Energy          =    -289.3103927617400473 [Eh]
	 Singles Energy            =      -0.0000000000000000 [Eh]
	 Same-Spin Energy          =      -0.3057684132653710 [Eh]
	 Opposite-Spin Energy      =      -1.0915367470847874 [Eh]
	 Correlation Energy        =      -1.3973051603501585 [Eh]
	 Total Energy              =    -290.7076979220902331 [Eh]

	 ================> DF-SCS-MP2 Energies <==================
	-----------------------------------------------------------
	 SCS Same-Spin Scale       =       0.3333333333333333 [-]
	 SCS Opposite-Spin Scale   =       1.2000000000000000 [-]
	 SCS Same-Spin Energy      =      -0.1019228044217903 [Eh]
	 SCS Opposite-Spin Energy  =      -1.3098440965017448 [Eh]
	 SCS Correlation Energy    =      -1.4117669009235352 [Eh]
	 SCS Total Energy          =    -290.7221596626635574 [Eh]
	-----------------------------------------------------------

  Dipole Moment: [D]
     X:    -0.7409      Y:     1.6523      Z:     0.3966     Total:     1.8537

*** Psi4 exiting successfully. Buy a developer a beer!
