                               Psi4 1.4a3.dev225

  ==> Input File <==

--------------------------------------------------------------------------
#psi4
#
memory 32 gb

molecule  {
0 1
  N        0.6335420    -0.4278790    -0.2728430
  C       -1.7313700    -0.5561300    -0.6201830
  C       -0.4830900     0.2151130    -0.2797610
  C        1.8471620     0.3055680     0.0922530
  C       -2.6435280    -0.7283840     0.5986220
  C       -0.6406980     1.6798450     0.0649420
  C        3.0183950    -0.6607510     0.1713530
  H       -1.4212120    -1.5322710    -1.0024030
  H       -2.2765240    -0.0356590    -1.4187580
  H        2.0539910     1.0846830    -0.6562090
  H        1.7201950     0.8226000     1.0546610
  H       -3.5369580    -1.3025810     0.3373160
  H       -2.9717700     0.2361610     0.9972690
  H       -2.1143980    -1.2633090     1.3922570
  H       -0.4113830     1.8596200     1.1216760
  H       -1.6576830     2.0281380    -0.1274070
  H        0.0520880     2.2919400    -0.5220660
  H        3.9433710    -0.1376200     0.4335950
  H        2.8606402    -1.2866324     0.7878575
  H        3.1589730    -1.1612340    -0.7893850
units angstrom
no_reorient  #important for SAPT in psi4, default
symmetry c1  #important for SAPT in psi4, default
}

set PROPERTIES_ORIGIN ["COM"]
properties('MP2/aug-cc-pvtz', properties = ['dipole'])
--------------------------------------------------------------------------

    Molecular point group: c1
  Charge       = 0
  Multiplicity = 1
  Basis Set: AUG-CC-PVTZ
    Blend: AUG-CC-PVTZ
  Basis Set: (AUG-CC-PVTZ AUX)
    Blend: AUG-CC-PVTZ-JKFIT

    Orbital Energies [Eh]
    ---------------------

    Doubly Occupied:

       1A    -15.538410     2A    -11.275450     3A    -11.240277
       4A    -11.231334     5A    -11.223405     6A    -11.219813
       7A    -11.177245     8A     -1.217134     9A     -1.061398
      10A     -1.006842    11A     -0.974455    12A     -0.884055
      13A     -0.827554    14A     -0.709105    15A     -0.651463
      16A     -0.632538    17A     -0.621213    18A     -0.589750
      19A     -0.580657    20A     -0.553436    21A     -0.536156
      22A     -0.525128    23A     -0.514226    24A     -0.500221
      25A     -0.486018    26A     -0.476265    27A     -0.384924
      28A     -0.380279

  @DF-RHF Final Energy:  -289.27943238159554

   => Energetics <=

    Nuclear Repulsion Energy =            308.5146590013081322
    One-Electron Energy =               -1001.5506840223713425
    Two-Electron Energy =                 403.7565926394676694
    Total Energy =                       -289.2794323815955408
  Basis Set: (AUG-CC-PVTZ AUX)
    Blend: AUG-CC-PVTZ-RI
    Molecular point group: c1

    Geometry (in Angstrom), charge = 0, multiplicity = 1:

       Center              X                  Y                   Z               Mass
    ------------   -----------------  -----------------  -----------------  -----------------
         N            0.626795430164    -0.414639443043    -0.253944425741    14.003074004430
         C           -1.738116569836    -0.542890443043    -0.601284425741    12.000000000000
         C           -0.489836569836     0.228352556957    -0.260862425741    12.000000000000
         C            1.840415430164     0.318807556957     0.111151574259    12.000000000000
         C           -2.650274569836    -0.715144443043     0.617520574259    12.000000000000
         C           -0.647444569836     1.693084556957     0.083840574259    12.000000000000
         C            3.011648430164    -0.647511443043     0.190251574259    12.000000000000
         H           -1.427958569836    -1.519031443043    -0.983504425741     1.007825032230
         H           -2.283270569836    -0.022419443043    -1.399859425741     1.007825032230
         H            2.047244430164     1.097922556957    -0.637310425741     1.007825032230
         H            1.713448430164     0.835839556957     1.073559574259     1.007825032230
         H           -3.543704569836    -1.289341443043     0.356214574259     1.007825032230
         H           -2.978516569836     0.249400556957     1.016167574259     1.007825032230
         H           -2.121144569836    -1.250069443043     1.411155574259     1.007825032230
         H           -0.418129569836     1.872859556957     1.140574574259     1.007825032230
         H           -1.664429569836     2.041377556957    -0.108508425741     1.007825032230
         H            0.045341430164     2.305179556957    -0.503167425741     1.007825032230
         H            3.936624430164    -0.124380443043     0.452493574259     1.007825032230
         H            2.853893630164    -1.273392843043     0.806756074259     1.007825032230
         H            3.152226430164    -1.147994443043    -0.770486425741     1.007825032230

  Basis Set: AUG-CC-PVTZ
    Blend: AUG-CC-PVTZ
  Basis Set: (AUG-CC-PVTZ AUX)
    Blend: AUG-CC-PVTZ-JKFIT
	 Reference Energy          =    -289.2794323815955408 [Eh]
	 Singles Energy            =      -0.0000000000000000 [Eh]
	 Same-Spin Energy          =      -0.3065585508094673 [Eh]
	 Opposite-Spin Energy      =      -1.0918050149439669 [Eh]
	 Correlation Energy        =      -1.3983635657534341 [Eh]
	 Total Energy              =    -290.6777959473489545 [Eh]

	 ================> DF-SCS-MP2 Energies <==================
	-----------------------------------------------------------
	 SCS Same-Spin Scale       =       0.3333333333333333 [-]
	 SCS Opposite-Spin Scale   =       1.2000000000000000 [-]
	 SCS Same-Spin Energy      =      -0.1021861836031557 [Eh]
	 SCS Opposite-Spin Energy  =      -1.3101660179327601 [Eh]
	 SCS Correlation Energy    =      -1.4123522015359158 [Eh]
	 SCS Total Energy          =    -290.6917845831314366 [Eh]
	-----------------------------------------------------------

  Dipole Moment: [D]
     X:    -0.7985      Y:     1.6979      Z:     0.4366     Total:     1.9264

*** Psi4 exiting successfully. Buy a developer a beer!
