                               Psi4 1.4a3.dev225

  ==> Input File <==

--------------------------------------------------------------------------
#psi4
#
memory 32 gb

molecule  {
0 1
  N        0.6335420    -0.4278790    -0.2728430
  C       -1.7313700    -0.5561300    -0.6201830
  C       -0.4830900     0.2151130    -0.2797610
  C        1.8471620     0.3055680     0.0922530
  C       -2.6435280    -0.7283840     0.5986220
  C       -0.6406980     1.6798450     0.0649420
  C        3.0183950    -0.6607510     0.1713530
  H       -1.4212120    -1.5322710    -1.0024030
  H       -2.2765240    -0.0356590    -1.4187580
  H        2.0539910     1.0846830    -0.6562090
  H        1.7201950     0.8226000     1.0546610
  H       -3.5369580    -1.3025810     0.3373160
  H       -2.9717700     0.2361610     0.9972690
  H       -2.1143980    -1.2633090     1.3922570
  H       -0.4113830     1.8596200     1.1216760
  H       -1.6576830     2.0281380    -0.1274070
  H        0.0520880     2.2919400    -0.5220660
  H        3.9433710    -0.1376200     0.4335950
  H        2.8341291    -1.3918136     0.8914629
  H        3.1589730    -1.1612340    -0.7893850
units angstrom
no_reorient  #important for SAPT in psi4, default
symmetry c1  #important for SAPT in psi4, default
}

set PROPERTIES_ORIGIN ["COM"]
properties('MP2/aug-cc-pvtz', properties = ['dipole'])
--------------------------------------------------------------------------

    Molecular point group: c1
  Charge       = 0
  Multiplicity = 1
  Basis Set: AUG-CC-PVTZ
    Blend: AUG-CC-PVTZ
  Basis Set: (AUG-CC-PVTZ AUX)
    Blend: AUG-CC-PVTZ-JKFIT

    Orbital Energies [Eh]
    ---------------------

    Doubly Occupied:

       1A    -15.538585     2A    -11.275623     3A    -11.241487
       4A    -11.231552     5A    -11.223513     6A    -11.219863
       7A    -11.196079     8A     -1.217244     9A     -1.059594
      10A     -0.999564    11A     -0.972311    12A     -0.878536
      13A     -0.819370    14A     -0.708694    15A     -0.651633
      16A     -0.627945    17A     -0.617290    18A     -0.589979
      19A     -0.576652    20A     -0.552266    21A     -0.535530
      22A     -0.515802    23A     -0.513182    24A     -0.496641
      25A     -0.486080    26A     -0.477010    27A     -0.385222
      28A     -0.380490

  @DF-RHF Final Energy:  -289.31296629008312

   => Energetics <=

    Nuclear Repulsion Energy =            307.8062131639220524
    One-Electron Energy =               -1000.2628821297735158
    Two-Electron Energy =                 403.1437026757683384
    Total Energy =                       -289.3129662900831249
  Basis Set: (AUG-CC-PVTZ AUX)
    Blend: AUG-CC-PVTZ-RI
    Molecular point group: c1

    Geometry (in Angstrom), charge = 0, multiplicity = 1:

       Center              X                  Y                   Z               Mass
    ------------   -----------------  -----------------  -----------------  -----------------
         N            0.627065029118    -0.413569825356    -0.254998018667    14.003074004430
         C           -1.737846970882    -0.541820825356    -0.602338018667    12.000000000000
         C           -0.489566970882     0.229422174644    -0.261916018667    12.000000000000
         C            1.840685029118     0.319877174644     0.110097981333    12.000000000000
         C           -2.650004970882    -0.714074825356     0.616466981333    12.000000000000
         C           -0.647174970882     1.694154174644     0.082786981333    12.000000000000
         C            3.011918029118    -0.646441825356     0.189197981333    12.000000000000
         H           -1.427688970882    -1.517961825356    -0.984558018667     1.007825032230
         H           -2.283000970882    -0.021349825356    -1.400913018667     1.007825032230
         H            2.047514029118     1.098992174644    -0.638364018667     1.007825032230
         H            1.713718029118     0.836909174644     1.072505981333     1.007825032230
         H           -3.543434970882    -1.288271825356     0.355160981333     1.007825032230
         H           -2.978246970882     0.250470174644     1.015113981333     1.007825032230
         H           -2.120874970882    -1.248999825356     1.410101981333     1.007825032230
         H           -0.417859970882     1.873929174644     1.139520981333     1.007825032230
         H           -1.664159970882     2.042447174644    -0.109562018667     1.007825032230
         H            0.045611029118     2.306249174644    -0.504221018667     1.007825032230
         H            3.936894029118    -0.123310825356     0.451439981333     1.007825032230
         H            2.827652129118    -1.377504425356     0.909307881333     1.007825032230
         H            3.152496029118    -1.146924825356    -0.771540018667     1.007825032230

  Basis Set: AUG-CC-PVTZ
    Blend: AUG-CC-PVTZ
  Basis Set: (AUG-CC-PVTZ AUX)
    Blend: AUG-CC-PVTZ-JKFIT
	 Reference Energy          =    -289.3129662900831249 [Eh]
	 Singles Energy            =      -0.0000000000000000 [Eh]
	 Same-Spin Energy          =      -0.3063794420991162 [Eh]
	 Opposite-Spin Energy      =      -1.0920432466281298 [Eh]
	 Correlation Energy        =      -1.3984226887272460 [Eh]
	 Total Energy              =    -290.7113889788103620 [Eh]

	 ================> DF-SCS-MP2 Energies <==================
	-----------------------------------------------------------
	 SCS Same-Spin Scale       =       0.3333333333333333 [-]
	 SCS Opposite-Spin Scale   =       1.2000000000000000 [-]
	 SCS Same-Spin Energy      =      -0.1021264806997054 [Eh]
	 SCS Opposite-Spin Energy  =      -1.3104518959537557 [Eh]
	 SCS Correlation Energy    =      -1.4125783766534610 [Eh]
	 SCS Total Energy          =    -290.7255446667365959 [Eh]
	-----------------------------------------------------------

  Dipole Moment: [D]
     X:    -0.8155      Y:     1.7403      Z:     0.3987     Total:     1.9628

*** Psi4 exiting successfully. Buy a developer a beer!
