                               Psi4 1.4a3.dev225

  ==> Input File <==

--------------------------------------------------------------------------
#psi4
#
memory 32 gb

molecule  {
0 1
  N        0.6335420    -0.4278790    -0.2728430
  C       -1.7313700    -0.5561300    -0.6201830
  C       -0.4830900     0.2151130    -0.2797610
  C        1.8471620     0.3055680     0.0922530
  C       -2.6435280    -0.7283840     0.5986220
  C       -0.6406980     1.6798450     0.0649420
  C        3.0183950    -0.6607510     0.1713530
  H       -1.4212120    -1.5322710    -1.0024030
  H       -2.2765240    -0.0356590    -1.4187580
  H        2.0539910     1.0846830    -0.6562090
  H        1.6971070     0.9166186     1.2296680
  H       -3.5369580    -1.3025810     0.3373160
  H       -2.9717700     0.2361610     0.9972690
  H       -2.1143980    -1.2633090     1.3922570
  H       -0.4113830     1.8596200     1.1216760
  H       -1.6576830     2.0281380    -0.1274070
  H        0.0520880     2.2919400    -0.5220660
  H        3.9433710    -0.1376200     0.4335950
  H        2.8252920    -1.4268740     0.9259980
  H        3.1589730    -1.1612340    -0.7893850
units angstrom
no_reorient  #important for SAPT in psi4, default
symmetry c1  #important for SAPT in psi4, default
}

set PROPERTIES_ORIGIN ["COM"]
properties('MP2/aug-cc-pvtz', properties = ['dipole'])
--------------------------------------------------------------------------

    Molecular point group: c1
  Charge       = 0
  Multiplicity = 1
  Basis Set: AUG-CC-PVTZ
    Blend: AUG-CC-PVTZ
  Basis Set: (AUG-CC-PVTZ AUX)
    Blend: AUG-CC-PVTZ-JKFIT

    Orbital Energies [Eh]
    ---------------------

    Doubly Occupied:

       1A    -15.541790     2A    -11.278219     3A    -11.265357
       4A    -11.231462     5A    -11.224828     6A    -11.220692
       7A    -11.204997     8A     -1.218659     9A     -1.058913
      10A     -0.997467    11A     -0.971418    12A     -0.877666
      13A     -0.809989    14A     -0.703980    15A     -0.651157
      16A     -0.624036    17A     -0.610865    18A     -0.587389
      19A     -0.572969    20A     -0.552419    21A     -0.536937
      22A     -0.516419    23A     -0.510152    24A     -0.487233
      25A     -0.485997    26A     -0.474291    27A     -0.386631
      28A     -0.376932

  @DF-RHF Final Energy:  -289.29460621886284

   => Energetics <=

    Nuclear Repulsion Energy =            306.8118904886492828
    One-Electron Energy =                -998.2552701353644125
    Two-Electron Energy =                 402.1487734278522908
    Total Energy =                       -289.2946062188628389
  Basis Set: (AUG-CC-PVTZ AUX)
    Blend: AUG-CC-PVTZ-RI
    Molecular point group: c1

    Geometry (in Angstrom), charge = 0, multiplicity = 1:

       Center              X                  Y                   Z               Mass
    ------------   -----------------  -----------------  -----------------  -----------------
         N            0.627389684585    -0.414169388144    -0.257128912174    14.003074004430
         C           -1.737522315415    -0.542420388144    -0.604468912174    12.000000000000
         C           -0.489242315415     0.228822611856    -0.264046912174    12.000000000000
         C            1.841009684585     0.319277611856     0.107967087826    12.000000000000
         C           -2.649680315415    -0.714674388144     0.614336087826    12.000000000000
         C           -0.646850315415     1.693554611856     0.080656087826    12.000000000000
         C            3.012242684585    -0.647041388144     0.187067087826    12.000000000000
         H           -1.427364315415    -1.518561388144    -0.986688912174     1.007825032230
         H           -2.282676315415    -0.021949388144    -1.403043912174     1.007825032230
         H            2.047838684585     1.098392611856    -0.640494912174     1.007825032230
         H            1.690954684585     0.930328211856     1.245382087826     1.007825032230
         H           -3.543110315415    -1.288871388144     0.353030087826     1.007825032230
         H           -2.977922315415     0.249870611856     1.012983087826     1.007825032230
         H           -2.120550315415    -1.249599388144     1.407971087826     1.007825032230
         H           -0.417535315415     1.873329611856     1.137390087826     1.007825032230
         H           -1.663835315415     2.041847611856    -0.111692912174     1.007825032230
         H            0.045935684585     2.305649611856    -0.506351912174     1.007825032230
         H            3.937218684585    -0.123910388144     0.449309087826     1.007825032230
         H            2.819139684585    -1.413164388144     0.941712087826     1.007825032230
         H            3.152820684585    -1.147524388144    -0.773670912174     1.007825032230

  Basis Set: AUG-CC-PVTZ
    Blend: AUG-CC-PVTZ
  Basis Set: (AUG-CC-PVTZ AUX)
    Blend: AUG-CC-PVTZ-JKFIT
	 Reference Energy          =    -289.2946062188628389 [Eh]
	 Singles Energy            =      -0.0000000000000000 [Eh]
	 Same-Spin Energy          =      -0.3066808980676105 [Eh]
	 Opposite-Spin Energy      =      -1.0939589204131819 [Eh]
	 Correlation Energy        =      -1.4006398184807924 [Eh]
	 Total Energy              =    -290.6952460373436224 [Eh]

	 ================> DF-SCS-MP2 Energies <==================
	-----------------------------------------------------------
	 SCS Same-Spin Scale       =       0.3333333333333333 [-]
	 SCS Opposite-Spin Scale   =       1.2000000000000000 [-]
	 SCS Same-Spin Energy      =      -0.1022269660225368 [Eh]
	 SCS Opposite-Spin Energy  =      -1.3127507044958182 [Eh]
	 SCS Correlation Energy    =      -1.4149776705183550 [Eh]
	 SCS Total Energy          =    -290.7095838893811788 [Eh]
	-----------------------------------------------------------

  Dipole Moment: [D]
     X:    -0.8558      Y:     1.6339      Z:     0.2210     Total:     1.8577

*** Psi4 exiting successfully. Buy a developer a beer!
