                               Psi4 1.4a3.dev225

  ==> Input File <==

--------------------------------------------------------------------------
#psi4
#
memory 32 gb

molecule  {
0 1
  N        0.6335420    -0.4278790    -0.2728430
  C       -1.7313700    -0.5561300    -0.6201830
  C       -0.4830900     0.2151130    -0.2797610
  C        1.8471620     0.3055680     0.0922530
  C       -2.6435280    -0.7283840     0.5986220
  C       -0.6406980     1.6798450     0.0649420
  C        3.0183950    -0.6607510     0.1713530
  H       -1.4212120    -1.5322710    -1.0024030
  H       -2.2765240    -0.0356590    -1.4187580
  H        2.0539910     1.0846830    -0.6562090
  H        1.7432830     0.7285814     0.8796540
  H       -3.5369580    -1.3025810     0.3373160
  H       -2.9717700     0.2361610     0.9972690
  H       -2.1143980    -1.2633090     1.3922570
  H       -0.4113830     1.8596200     1.1216760
  H       -1.6576830     2.0281380    -0.1274070
  H        0.0520880     2.2919400    -0.5220660
  H        3.9433710    -0.1376200     0.4335950
  H        2.8252920    -1.4268740     0.9259980
  H        3.1589730    -1.1612340    -0.7893850
units angstrom
no_reorient  #important for SAPT in psi4, default
symmetry c1  #important for SAPT in psi4, default
}

set PROPERTIES_ORIGIN ["COM"]
properties('MP2/aug-cc-pvtz', properties = ['dipole'])
--------------------------------------------------------------------------

    Molecular point group: c1
  Charge       = 0
  Multiplicity = 1
  Basis Set: AUG-CC-PVTZ
    Blend: AUG-CC-PVTZ
  Basis Set: (AUG-CC-PVTZ AUX)
    Blend: AUG-CC-PVTZ-JKFIT

    Orbital Energies [Eh]
    ---------------------

    Doubly Occupied:

       1A    -15.536786     2A    -11.274491     3A    -11.231877
       4A    -11.222907     5A    -11.219470     6A    -11.216694
       7A    -11.200813     8A     -1.218268     9A     -1.063143
      10A     -1.002310    11A     -0.973173    12A     -0.879197
      13A     -0.833406    14A     -0.718641    15A     -0.656176
      16A     -0.634937    17A     -0.617638    18A     -0.592612
      19A     -0.576996    20A     -0.551838    21A     -0.534985
      22A     -0.515962    23A     -0.514354    24A     -0.497768
      25A     -0.485539    26A     -0.476948    27A     -0.386318
      28A     -0.381397

  @DF-RHF Final Energy:  -289.28213101709946

   => Energetics <=

    Nuclear Repulsion Energy =            308.6001920165448382
    One-Electron Energy =               -1001.7353597012636328
    Two-Electron Energy =                 403.8530366676193353
    Total Energy =                       -289.2821310170994593
  Basis Set: (AUG-CC-PVTZ AUX)
    Blend: AUG-CC-PVTZ-RI
    Molecular point group: c1

    Geometry (in Angstrom), charge = 0, multiplicity = 1:

       Center              X                  Y                   Z               Mass
    ------------   -----------------  -----------------  -----------------  -----------------
         N            0.626920107642    -0.412257184111    -0.253569519765    14.003074004430
         C           -1.737991892358    -0.540508184111    -0.600909519765    12.000000000000
         C           -0.489711892358     0.230734815889    -0.260487519765    12.000000000000
         C            1.840540107642     0.321189815889     0.111526480235    12.000000000000
         C           -2.650149892358    -0.712762184111     0.617895480235    12.000000000000
         C           -0.647319892358     1.695466815889     0.084215480235    12.000000000000
         C            3.011773107642    -0.645129184111     0.190626480235    12.000000000000
         H           -1.427833892358    -1.516649184111    -0.983129519765     1.007825032230
         H           -2.283145892358    -0.020037184111    -1.399484519765     1.007825032230
         H            2.047369107642     1.100304815889    -0.636935519765     1.007825032230
         H            1.736661107642     0.744203215889     0.898927480235     1.007825032230
         H           -3.543579892358    -1.286959184111     0.356589480235     1.007825032230
         H           -2.978391892358     0.251782815889     1.016542480235     1.007825032230
         H           -2.121019892358    -1.247687184111     1.411530480235     1.007825032230
         H           -0.418004892358     1.875241815889     1.140949480235     1.007825032230
         H           -1.664304892358     2.043759815889    -0.108133519765     1.007825032230
         H            0.045466107642     2.307561815889    -0.502792519765     1.007825032230
         H            3.936749107642    -0.121998184111     0.452868480235     1.007825032230
         H            2.818670107642    -1.411252184111     0.945271480235     1.007825032230
         H            3.152351107642    -1.145612184111    -0.770111519765     1.007825032230

  Basis Set: AUG-CC-PVTZ
    Blend: AUG-CC-PVTZ
  Basis Set: (AUG-CC-PVTZ AUX)
    Blend: AUG-CC-PVTZ-JKFIT
	 Reference Energy          =    -289.2821310170994593 [Eh]
	 Singles Energy            =      -0.0000000000000000 [Eh]
	 Same-Spin Energy          =      -0.3061531350414429 [Eh]
	 Opposite-Spin Energy      =      -1.0914913002363673 [Eh]
	 Correlation Energy        =      -1.3976444352778103 [Eh]
	 Total Energy              =    -290.6797754523772710 [Eh]

	 ================> DF-SCS-MP2 Energies <==================
	-----------------------------------------------------------
	 SCS Same-Spin Scale       =       0.3333333333333333 [-]
	 SCS Opposite-Spin Scale   =       1.2000000000000000 [-]
	 SCS Same-Spin Energy      =      -0.1020510450138143 [Eh]
	 SCS Opposite-Spin Energy  =      -1.3097895602836407 [Eh]
	 SCS Correlation Energy    =      -1.4118406052974550 [Eh]
	 SCS Total Energy          =    -290.6939716223969299 [Eh]
	-----------------------------------------------------------

  Dipole Moment: [D]
     X:    -0.8063      Y:     1.8370      Z:     0.4639     Total:     2.0591

*** Psi4 exiting successfully. Buy a developer a beer!
