                               Psi4 1.4a3.dev225

  ==> Input File <==

--------------------------------------------------------------------------
#psi4
#
memory 32 gb

molecule  {
0 1
  N        0.6335420    -0.4278790    -0.2728430
  C       -1.8107693    -0.4220122    -0.5963760
  C       -0.4830900     0.2151130    -0.2797610
  C        1.8471620     0.3055680     0.0922530
  C       -2.6435280    -0.7283840     0.5986220
  C       -0.6406980     1.6798450     0.0649420
  C        3.0183950    -0.6607510     0.1713530
  H       -1.4212120    -1.5322710    -1.0024030
  H       -2.2765240    -0.0356590    -1.4187580
  H        2.0539910     1.0846830    -0.6562090
  H        1.7201950     0.8226000     1.0546610
  H       -3.5369580    -1.3025810     0.3373160
  H       -2.9717700     0.2361610     0.9972690
  H       -2.1143980    -1.2633090     1.3922570
  H       -0.4113830     1.8596200     1.1216760
  H       -1.6576830     2.0281380    -0.1274070
  H        0.0520880     2.2919400    -0.5220660
  H        3.9433710    -0.1376200     0.4335950
  H        2.8252920    -1.4268740     0.9259980
  H        3.1589730    -1.1612340    -0.7893850
units angstrom
no_reorient  #important for SAPT in psi4, default
symmetry c1  #important for SAPT in psi4, default
}

set PROPERTIES_ORIGIN ["COM"]
properties('MP2/aug-cc-pvtz', properties = ['dipole'])
--------------------------------------------------------------------------

    Molecular point group: c1
  Charge       = 0
  Multiplicity = 1
  Basis Set: AUG-CC-PVTZ
    Blend: AUG-CC-PVTZ
  Basis Set: (AUG-CC-PVTZ AUX)
    Blend: AUG-CC-PVTZ-JKFIT

    Orbital Energies [Eh]
    ---------------------

    Doubly Occupied:

       1A    -15.542538     2A    -11.278371     3A    -11.244519
       4A    -11.228515     5A    -11.228486     6A    -11.220275
       7A    -11.203427     8A     -1.218026     9A     -1.067312
      10A     -1.002929    11A     -0.971397    12A     -0.877099
      13A     -0.820596    14A     -0.712000    15A     -0.648481
      16A     -0.631466    17A     -0.620836    18A     -0.588873
      19A     -0.579629    20A     -0.556844    21A     -0.539863
      22A     -0.529922    23A     -0.512166    24A     -0.495421
      25A     -0.484133    26A     -0.437816    27A     -0.385181
      28A     -0.384128

  @DF-RHF Final Energy:  -289.28761204840515

   => Energetics <=

    Nuclear Repulsion Energy =            307.8449849640064713
    One-Electron Energy =               -1000.2446933172581112
    Two-Electron Energy =                 403.1120963048464887
    Total Energy =                       -289.2876120484051512
  Basis Set: (AUG-CC-PVTZ AUX)
    Blend: AUG-CC-PVTZ-RI
    Molecular point group: c1

    Geometry (in Angstrom), charge = 0, multiplicity = 1:

       Center              X                  Y                   Z               Mass
    ------------   -----------------  -----------------  -----------------  -----------------
         N            0.636768876522    -0.429452798335    -0.258231861428    14.003074004430
         C           -1.807542423478    -0.423585998335    -0.581764861428    12.000000000000
         C           -0.479863123478     0.213539201665    -0.265149861428    12.000000000000
         C            1.850388876522     0.303994201665     0.106864138572    12.000000000000
         C           -2.640301123478    -0.729957798335     0.613233138572    12.000000000000
         C           -0.637471123478     1.678271201665     0.079553138572    12.000000000000
         C            3.021621876522    -0.662324798335     0.185964138572    12.000000000000
         H           -1.417985123478    -1.533844798335    -0.987791861428     1.007825032230
         H           -2.273297123478    -0.037232798335    -1.404146861428     1.007825032230
         H            2.057217876522     1.083109201665    -0.641597861428     1.007825032230
         H            1.723421876522     0.821026201665     1.069272138572     1.007825032230
         H           -3.533731123478    -1.304154798335     0.351927138572     1.007825032230
         H           -2.968543123478     0.234587201665     1.011880138572     1.007825032230
         H           -2.111171123478    -1.264882798335     1.406868138572     1.007825032230
         H           -0.408156123478     1.858046201665     1.136287138572     1.007825032230
         H           -1.654456123478     2.026564201665    -0.112795861428     1.007825032230
         H            0.055314876522     2.290366201665    -0.507454861428     1.007825032230
         H            3.946597876522    -0.139193798335     0.448206138572     1.007825032230
         H            2.828518876522    -1.428447798335     0.940609138572     1.007825032230
         H            3.162199876522    -1.162807798335    -0.774773861428     1.007825032230

  Basis Set: AUG-CC-PVTZ
    Blend: AUG-CC-PVTZ
  Basis Set: (AUG-CC-PVTZ AUX)
    Blend: AUG-CC-PVTZ-JKFIT
	 Reference Energy          =    -289.2876120484051512 [Eh]
	 Singles Energy            =      -0.0000000000000000 [Eh]
	 Same-Spin Energy          =      -0.3073258167836935 [Eh]
	 Opposite-Spin Energy      =      -1.0943672137352309 [Eh]
	 Correlation Energy        =      -1.4016930305189246 [Eh]
	 Total Energy              =    -290.6893050789240647 [Eh]

	 ================> DF-SCS-MP2 Energies <==================
	-----------------------------------------------------------
	 SCS Same-Spin Scale       =       0.3333333333333333 [-]
	 SCS Opposite-Spin Scale   =       1.2000000000000000 [-]
	 SCS Same-Spin Energy      =      -0.1024419389278978 [Eh]
	 SCS Opposite-Spin Energy  =      -1.3132406564822772 [Eh]
	 SCS Correlation Energy    =      -1.4156825954101750 [Eh]
	 SCS Total Energy          =    -290.7032946438153544 [Eh]
	-----------------------------------------------------------

  Dipole Moment: [D]
     X:    -0.7774      Y:     1.8049      Z:     0.4105     Total:     2.0076

*** Psi4 exiting successfully. Buy a developer a beer!
