                               Psi4 1.4a3.dev225

  ==> Input File <==

--------------------------------------------------------------------------
#psi4
#
memory 32 gb

molecule  {
0 1
  N        0.6335420    -0.4278790    -0.2728430
  C       -1.7313700    -0.5561300    -0.6201830
  C       -0.4830900     0.2151130    -0.2797610
  C        1.8471620     0.3055680     0.0922530
  C       -2.6435280    -0.7283840     0.5986220
  C       -0.6406980     1.6798450     0.0649420
  C        2.9988212    -0.6869131     0.0703810
  H       -1.4212120    -1.5322710    -1.0024030
  H       -2.2765240    -0.0356590    -1.4187580
  H        2.0539910     1.0846830    -0.6562090
  H        1.7201950     0.8226000     1.0546610
  H       -3.5369580    -1.3025810     0.3373160
  H       -2.9717700     0.2361610     0.9972690
  H       -2.1143980    -1.2633090     1.3922570
  H       -0.4113830     1.8596200     1.1216760
  H       -1.6576830     2.0281380    -0.1274070
  H        0.0520880     2.2919400    -0.5220660
  H        3.9433710    -0.1376200     0.4335950
  H        2.8252920    -1.4268740     0.9259980
  H        3.1589730    -1.1612340    -0.7893850
units angstrom
no_reorient  #important for SAPT in psi4, default
symmetry c1  #important for SAPT in psi4, default
}

set PROPERTIES_ORIGIN ["COM"]
properties('MP2/aug-cc-pvtz', properties = ['dipole'])
--------------------------------------------------------------------------

    Molecular point group: c1
  Charge       = 0
  Multiplicity = 1
  Basis Set: AUG-CC-PVTZ
    Blend: AUG-CC-PVTZ
  Basis Set: (AUG-CC-PVTZ AUX)
    Blend: AUG-CC-PVTZ-JKFIT

    Orbital Energies [Eh]
    ---------------------

    Doubly Occupied:

       1A    -15.537879     2A    -11.275263     3A    -11.242893
       4A    -11.231954     5A    -11.223506     6A    -11.219875
       7A    -11.204101     8A     -1.217586     9A     -1.059858
      10A     -0.998522    11A     -0.971720    12A     -0.877683
      13A     -0.819295    14A     -0.709304    15A     -0.651426
      16A     -0.630586    17A     -0.615361    18A     -0.593544
      19A     -0.578014    20A     -0.551841    21A     -0.533066
      22A     -0.525775    23A     -0.512947    24A     -0.487102
      25A     -0.479170    26A     -0.470897    27A     -0.386369
      28A     -0.380262

  @DF-RHF Final Energy:  -289.30031418597679

   => Energetics <=

    Nuclear Repulsion Energy =            307.8050429135847139
    One-Electron Energy =               -1000.2391117081981520
    Two-Electron Energy =                 403.1337546086367070
    Total Energy =                       -289.3003141859767879
  Basis Set: (AUG-CC-PVTZ AUX)
    Blend: AUG-CC-PVTZ-RI
    Molecular point group: c1

    Geometry (in Angstrom), charge = 0, multiplicity = 1:

       Center              X                  Y                   Z               Mass
    ------------   -----------------  -----------------  -----------------  -----------------
         N            0.629524969020    -0.410045475872    -0.243123127959    14.003074004430
         C           -1.735387030980    -0.538296475872    -0.590463127959    12.000000000000
         C           -0.487107030980     0.232946524128    -0.250041127959    12.000000000000
         C            1.843144969020     0.323401524128     0.121972872041    12.000000000000
         C           -2.647545030980    -0.710550475872     0.628341872041    12.000000000000
         C           -0.644715030980     1.697678524128     0.094661872041    12.000000000000
         C            2.994804169020    -0.669079575872     0.100100872041    12.000000000000
         H           -1.425229030980    -1.514437475872    -0.972683127959     1.007825032230
         H           -2.280541030980    -0.017825475872    -1.389038127959     1.007825032230
         H            2.049973969020     1.102516524128    -0.626489127959     1.007825032230
         H            1.716177969020     0.840433524128     1.084380872041     1.007825032230
         H           -3.540975030980    -1.284747475872     0.367035872041     1.007825032230
         H           -2.975787030980     0.253994524128     1.026988872041     1.007825032230
         H           -2.118415030980    -1.245475475872     1.421976872041     1.007825032230
         H           -0.415400030980     1.877453524128     1.151395872041     1.007825032230
         H           -1.661700030980     2.045971524128    -0.097687127959     1.007825032230
         H            0.048070969020     2.309773524128    -0.492346127959     1.007825032230
         H            3.939353969020    -0.119786475872     0.463314872041     1.007825032230
         H            2.821274969020    -1.409040475872     0.955717872041     1.007825032230
         H            3.154955969020    -1.143400475872    -0.759665127959     1.007825032230

  Basis Set: AUG-CC-PVTZ
    Blend: AUG-CC-PVTZ
  Basis Set: (AUG-CC-PVTZ AUX)
    Blend: AUG-CC-PVTZ-JKFIT
	 Reference Energy          =    -289.3003141859767879 [Eh]
	 Singles Energy            =      -0.0000000000000000 [Eh]
	 Same-Spin Energy          =      -0.3065268415950779 [Eh]
	 Opposite-Spin Energy      =      -1.0928633480969938 [Eh]
	 Correlation Energy        =      -1.3993901896920717 [Eh]
	 Total Energy              =    -290.6997043756688868 [Eh]

	 ================> DF-SCS-MP2 Energies <==================
	-----------------------------------------------------------
	 SCS Same-Spin Scale       =       0.3333333333333333 [-]
	 SCS Opposite-Spin Scale   =       1.2000000000000000 [-]
	 SCS Same-Spin Energy      =      -0.1021756138650260 [Eh]
	 SCS Opposite-Spin Energy  =      -1.3114360177163926 [Eh]
	 SCS Correlation Energy    =      -1.4136116315814187 [Eh]
	 SCS Total Energy          =    -290.7139258175582199 [Eh]
	-----------------------------------------------------------

  Dipole Moment: [D]
     X:    -0.8571      Y:     1.7600      Z:     0.3474     Total:     1.9882

*** Psi4 exiting successfully. Buy a developer a beer!
