                               Psi4 1.4a3.dev225

  ==> Input File <==

--------------------------------------------------------------------------
#psi4
#
memory 32 gb

molecule  {
0 1
  N        0.6335420    -0.4278790    -0.2728430
  C       -1.7313700    -0.5561300    -0.6201830
  C       -0.4751327     0.2127982    -0.3047100
  C        1.8471620     0.3055680     0.0922530
  C       -2.6435280    -0.7283840     0.5986220
  C       -0.6406980     1.6798450     0.0649420
  C        3.0183950    -0.6607510     0.1713530
  H       -1.4212120    -1.5322710    -1.0024030
  H       -2.2765240    -0.0356590    -1.4187580
  H        2.0539910     1.0846830    -0.6562090
  H        1.7201950     0.8226000     1.0546610
  H       -3.5369580    -1.3025810     0.3373160
  H       -2.9717700     0.2361610     0.9972690
  H       -2.1143980    -1.2633090     1.3922570
  H       -0.4113830     1.8596200     1.1216760
  H       -1.6576830     2.0281380    -0.1274070
  H        0.0520880     2.2919400    -0.5220660
  H        3.9433710    -0.1376200     0.4335950
  H        2.8252920    -1.4268740     0.9259980
  H        3.1589730    -1.1612340    -0.7893850
units angstrom
no_reorient  #important for SAPT in psi4, default
symmetry c1  #important for SAPT in psi4, default
}

set PROPERTIES_ORIGIN ["COM"]
properties('MP2/aug-cc-pvtz', properties = ['dipole'])
--------------------------------------------------------------------------

    Molecular point group: c1
  Charge       = 0
  Multiplicity = 1
  Basis Set: AUG-CC-PVTZ
    Blend: AUG-CC-PVTZ
  Basis Set: (AUG-CC-PVTZ AUX)
    Blend: AUG-CC-PVTZ-JKFIT

    Orbital Energies [Eh]
    ---------------------

    Doubly Occupied:

       1A    -15.538364     2A    -11.275046     3A    -11.242574
       4A    -11.231329     5A    -11.223318     6A    -11.220153
       7A    -11.202618     8A     -1.219809     9A     -1.058660
      10A     -0.998405    11A     -0.970630    12A     -0.877998
      13A     -0.817976    14A     -0.707725    15A     -0.651421
      16A     -0.627772    17A     -0.615334    18A     -0.589787
      19A     -0.575274    20A     -0.551029    21A     -0.536499
      22A     -0.515111    23A     -0.511577    24A     -0.493303
      25A     -0.485829    26A     -0.478001    27A     -0.384542
      28A     -0.382770

  @DF-RHF Final Energy:  -289.31436626270204

   => Energetics <=

    Nuclear Repulsion Energy =            307.5872817126590917
    One-Electron Energy =                -999.8375900086938373
    Two-Electron Energy =                 402.9359420333327080
    Total Energy =                       -289.3143662627020376
  Basis Set: (AUG-CC-PVTZ AUX)
    Blend: AUG-CC-PVTZ-RI
    Molecular point group: c1

    Geometry (in Angstrom), charge = 0, multiplicity = 1:

       Center              X                  Y                   Z               Mass
    ------------   -----------------  -----------------  -----------------  -----------------
         N            0.626191394845    -0.412933001014    -0.252328292646    14.003074004430
         C           -1.738720605155    -0.541184001014    -0.599668292646    12.000000000000
         C           -0.482483305155     0.227744198986    -0.284195292646    12.000000000000
         C            1.839811394845     0.320513998986     0.112767707354    12.000000000000
         C           -2.650878605155    -0.713438001014     0.619136707354    12.000000000000
         C           -0.648048605155     1.694790998986     0.085456707354    12.000000000000
         C            3.011044394845    -0.645805001014     0.191867707354    12.000000000000
         H           -1.428562605155    -1.517325001014    -0.981888292646     1.007825032230
         H           -2.283874605155    -0.020713001014    -1.398243292646     1.007825032230
         H            2.046640394845     1.099628998986    -0.635694292646     1.007825032230
         H            1.712844394845     0.837545998986     1.075175707354     1.007825032230
         H           -3.544308605155    -1.287635001014     0.357830707354     1.007825032230
         H           -2.979120605155     0.251106998986     1.017783707354     1.007825032230
         H           -2.121748605155    -1.248363001014     1.412771707354     1.007825032230
         H           -0.418733605155     1.874565998986     1.142190707354     1.007825032230
         H           -1.665033605155     2.043083998986    -0.106892292646     1.007825032230
         H            0.044737394845     2.306885998986    -0.501551292646     1.007825032230
         H            3.936020394845    -0.122674001014     0.454109707354     1.007825032230
         H            2.817941394845    -1.411928001014     0.946512707354     1.007825032230
         H            3.151622394845    -1.146288001014    -0.768870292646     1.007825032230

  Basis Set: AUG-CC-PVTZ
    Blend: AUG-CC-PVTZ
  Basis Set: (AUG-CC-PVTZ AUX)
    Blend: AUG-CC-PVTZ-JKFIT
	 Reference Energy          =    -289.3143662627020376 [Eh]
	 Singles Energy            =      -0.0000000000000000 [Eh]
	 Same-Spin Energy          =      -0.3061292867375762 [Eh]
	 Opposite-Spin Energy      =      -1.0919186516356767 [Eh]
	 Correlation Energy        =      -1.3980479383732529 [Eh]
	 Total Energy              =    -290.7124142010752621 [Eh]

	 ================> DF-SCS-MP2 Energies <==================
	-----------------------------------------------------------
	 SCS Same-Spin Scale       =       0.3333333333333333 [-]
	 SCS Opposite-Spin Scale   =       1.2000000000000000 [-]
	 SCS Same-Spin Energy      =      -0.1020430955791921 [Eh]
	 SCS Opposite-Spin Energy  =      -1.3103023819628119 [Eh]
	 SCS Correlation Energy    =      -1.4123454775420039 [Eh]
	 SCS Total Energy          =    -290.7267117402440135 [Eh]
	-----------------------------------------------------------

  Dipole Moment: [D]
     X:    -0.8057      Y:     1.7367      Z:     0.3852     Total:     1.9529

*** Psi4 exiting successfully. Buy a developer a beer!
