                               Psi4 1.4a3.dev225

  ==> Input File <==

--------------------------------------------------------------------------
#psi4
#
memory 32 gb

molecule  {
0 1
  N        0.6335420    -0.4278790    -0.2728430
  C       -1.7313700    -0.5561300    -0.6201830
  C       -0.4830900     0.2151130    -0.2797610
  C        1.8471620     0.3055680     0.0922530
  C       -2.6435280    -0.7283840     0.5986220
  C       -0.6406980     1.6798450     0.0649420
  C        2.9413638    -0.5971969     0.1661506
  H       -1.4212120    -1.5322710    -1.0024030
  H       -2.2765240    -0.0356590    -1.4187580
  H        2.0539910     1.0846830    -0.6562090
  H        1.7201950     0.8226000     1.0546610
  H       -3.5369580    -1.3025810     0.3373160
  H       -2.9717700     0.2361610     0.9972690
  H       -2.1143980    -1.2633090     1.3922570
  H       -0.4113830     1.8596200     1.1216760
  H       -1.6576830     2.0281380    -0.1274070
  H        0.0520880     2.2919400    -0.5220660
  H        3.9433710    -0.1376200     0.4335950
  H        2.8252920    -1.4268740     0.9259980
  H        3.1589730    -1.1612340    -0.7893850
units angstrom
no_reorient  #important for SAPT in psi4, default
symmetry c1  #important for SAPT in psi4, default
}

set PROPERTIES_ORIGIN ["COM"]
properties('MP2/aug-cc-pvtz', properties = ['dipole'])
--------------------------------------------------------------------------

    Molecular point group: c1
  Charge       = 0
  Multiplicity = 1
  Basis Set: AUG-CC-PVTZ
    Blend: AUG-CC-PVTZ
  Basis Set: (AUG-CC-PVTZ AUX)
    Blend: AUG-CC-PVTZ-JKFIT

    Orbital Energies [Eh]
    ---------------------

    Doubly Occupied:

       1A    -15.538729     2A    -11.276334     3A    -11.237421
       4A    -11.232124     5A    -11.223942     6A    -11.220164
       7A    -11.207764     8A     -1.220011     9A     -1.066624
      10A     -1.007824    11A     -0.974158    12A     -0.875193
      13A     -0.810940    14A     -0.711579    15A     -0.654291
      16A     -0.631046    17A     -0.619750    18A     -0.591171
      19A     -0.576536    20A     -0.555284    21A     -0.543133
      22A     -0.519962    23A     -0.501616    24A     -0.485870
      25A     -0.481159    26A     -0.472039    27A     -0.387069
      28A     -0.380846

  @DF-RHF Final Energy:  -289.30240563217205

   => Energetics <=

    Nuclear Repulsion Energy =            309.0531455207654403
    One-Electron Energy =               -1002.7059438400096951
    Two-Electron Energy =                 404.3503926870722580
    Total Energy =                       -289.3024056321720536
  Basis Set: (AUG-CC-PVTZ AUX)
    Blend: AUG-CC-PVTZ-RI
    Molecular point group: c1

    Geometry (in Angstrom), charge = 0, multiplicity = 1:

       Center              X                  Y                   Z               Mass
    ------------   -----------------  -----------------  -----------------  -----------------
         N            0.636482137633    -0.420908667224    -0.254719288858    14.003074004430
         C           -1.728429862367    -0.549159667224    -0.602059288858    12.000000000000
         C           -0.480149862367     0.222083332776    -0.261637288858    12.000000000000
         C            1.850102137633     0.312538332776     0.110376711142    12.000000000000
         C           -2.640587862367    -0.721413667224     0.616745711142    12.000000000000
         C           -0.637757862367     1.686815332776     0.083065711142    12.000000000000
         C            2.944303937633    -0.590226567224     0.184274311142    12.000000000000
         H           -1.418271862367    -1.525300667224    -0.984279288858     1.007825032230
         H           -2.273583862367    -0.028688667224    -1.400634288858     1.007825032230
         H            2.056931137633     1.091653332776    -0.638085288858     1.007825032230
         H            1.723135137633     0.829570332776     1.072784711142     1.007825032230
         H           -3.534017862367    -1.295610667224     0.355439711142     1.007825032230
         H           -2.968829862367     0.243131332776     1.015392711142     1.007825032230
         H           -2.111457862367    -1.256338667224     1.410380711142     1.007825032230
         H           -0.408442862367     1.866590332776     1.139799711142     1.007825032230
         H           -1.654742862367     2.035108332776    -0.109283288858     1.007825032230
         H            0.055028137633     2.298910332776    -0.503942288858     1.007825032230
         H            3.946311137633    -0.130649667224     0.451718711142     1.007825032230
         H            2.828232137633    -1.419903667224     0.944121711142     1.007825032230
         H            3.161913137633    -1.154263667224    -0.771261288858     1.007825032230

  Basis Set: AUG-CC-PVTZ
    Blend: AUG-CC-PVTZ
  Basis Set: (AUG-CC-PVTZ AUX)
    Blend: AUG-CC-PVTZ-JKFIT
	 Reference Energy          =    -289.3024056321720536 [Eh]
	 Singles Energy            =      -0.0000000000000000 [Eh]
	 Same-Spin Energy          =      -0.3072382636317964 [Eh]
	 Opposite-Spin Energy      =      -1.0933217302490446 [Eh]
	 Correlation Energy        =      -1.4005599938808411 [Eh]
	 Total Energy              =    -290.7029656260529009 [Eh]

	 ================> DF-SCS-MP2 Energies <==================
	-----------------------------------------------------------
	 SCS Same-Spin Scale       =       0.3333333333333333 [-]
	 SCS Opposite-Spin Scale   =       1.2000000000000000 [-]
	 SCS Same-Spin Energy      =      -0.1024127545439321 [Eh]
	 SCS Opposite-Spin Energy  =      -1.3119860762988533 [Eh]
	 SCS Correlation Energy    =      -1.4143988308427855 [Eh]
	 SCS Total Energy          =    -290.7168044630148529 [Eh]
	-----------------------------------------------------------

  Dipole Moment: [D]
     X:    -0.8313      Y:     1.7632      Z:     0.3809     Total:     1.9861

*** Psi4 exiting successfully. Buy a developer a beer!
