                               Psi4 1.4a3.dev225

  ==> Input File <==

--------------------------------------------------------------------------
#psi4
#
memory 32 gb

molecule  {
0 1
  N        0.6335420    -0.4278790    -0.2728430
  C       -1.7313700    -0.5561300    -0.6201830
  C       -0.4830900     0.2151130    -0.2797610
  C        1.8471620     0.3055680     0.0922530
  C       -2.6435280    -0.7283840     0.5986220
  C       -0.6406980     1.6798450     0.0649420
  C        3.0093160    -0.6744290     0.1208844
  H       -1.4212120    -1.5322710    -1.0024030
  H       -2.2765240    -0.0356590    -1.4187580
  H        2.0539910     1.0846830    -0.6562090
  H        1.7201950     0.8226000     1.0546610
  H       -3.5369580    -1.3025810     0.3373160
  H       -2.9717700     0.2361610     0.9972690
  H       -2.1143980    -1.2633090     1.3922570
  H       -0.4113830     1.8596200     1.1216760
  H       -1.6576830     2.0281380    -0.1274070
  H        0.0520880     2.2919400    -0.5220660
  H        3.9433710    -0.1376200     0.4335950
  H        2.8252920    -1.4268740     0.9259980
  H        3.1589730    -1.1612340    -0.7893850
units angstrom
no_reorient  #important for SAPT in psi4, default
symmetry c1  #important for SAPT in psi4, default
}

set PROPERTIES_ORIGIN ["COM"]
properties('MP2/aug-cc-pvtz', properties = ['dipole'])
--------------------------------------------------------------------------

    Molecular point group: c1
  Charge       = 0
  Multiplicity = 1
  Basis Set: AUG-CC-PVTZ
    Blend: AUG-CC-PVTZ
  Basis Set: (AUG-CC-PVTZ AUX)
    Blend: AUG-CC-PVTZ-JKFIT

    Orbital Energies [Eh]
    ---------------------

    Doubly Occupied:

       1A    -15.538229     2A    -11.275426     3A    -11.242221
       4A    -11.231761     5A    -11.223498     6A    -11.219850
       7A    -11.202748     8A     -1.217384     9A     -1.059504
      10A     -0.998189    11A     -0.971624    12A     -0.877292
      13A     -0.817649    14A     -0.708864    15A     -0.651513
      16A     -0.628571    17A     -0.615679    18A     -0.591397
      19A     -0.576559    20A     -0.551816    21A     -0.532162
      22A     -0.518006    23A     -0.514032    24A     -0.490727
      25A     -0.485124    26A     -0.475138    27A     -0.385796
      28A     -0.380440

  @DF-RHF Final Energy:  -289.31074716129689

   => Energetics <=

    Nuclear Repulsion Energy =            307.6971517014096662
    One-Electron Energy =               -1000.0534037721610048
    Two-Electron Energy =                 403.0455049094544506
    Total Energy =                       -289.3107471612968880
  Basis Set: (AUG-CC-PVTZ AUX)
    Blend: AUG-CC-PVTZ-RI
    Molecular point group: c1

    Geometry (in Angstrom), charge = 0, multiplicity = 1:

       Center              X                  Y                   Z               Mass
    ------------   -----------------  -----------------  -----------------  -----------------
         N            0.628254217243    -0.411557099939    -0.249238278825    14.003074004430
         C           -1.736657782757    -0.539808099939    -0.596578278825    12.000000000000
         C           -0.488377782757     0.231434900061    -0.256156278825    12.000000000000
         C            1.841874217243     0.321889900061     0.115857721175    12.000000000000
         C           -2.648815782757    -0.712062099939     0.622226721175    12.000000000000
         C           -0.645985782757     1.696166900061     0.088546721175    12.000000000000
         C            3.004028217243    -0.658107099939     0.144489121175    12.000000000000
         H           -1.426499782757    -1.515949099939    -0.978798278825     1.007825032230
         H           -2.281811782757    -0.019337099939    -1.395153278825     1.007825032230
         H            2.048703217243     1.101004900061    -0.632604278825     1.007825032230
         H            1.714907217243     0.838921900061     1.078265721175     1.007825032230
         H           -3.542245782757    -1.286259099939     0.360920721175     1.007825032230
         H           -2.977057782757     0.252482900061     1.020873721175     1.007825032230
         H           -2.119685782757    -1.246987099939     1.415861721175     1.007825032230
         H           -0.416670782757     1.875941900061     1.145280721175     1.007825032230
         H           -1.662970782757     2.044459900061    -0.103802278825     1.007825032230
         H            0.046800217243     2.308261900061    -0.498461278825     1.007825032230
         H            3.938083217243    -0.121298099939     0.457199721175     1.007825032230
         H            2.820004217243    -1.410552099939     0.949602721175     1.007825032230
         H            3.153685217243    -1.144912099939    -0.765780278825     1.007825032230

  Basis Set: AUG-CC-PVTZ
    Blend: AUG-CC-PVTZ
  Basis Set: (AUG-CC-PVTZ AUX)
    Blend: AUG-CC-PVTZ-JKFIT
	 Reference Energy          =    -289.3107471612968880 [Eh]
	 Singles Energy            =      -0.0000000000000000 [Eh]
	 Same-Spin Energy          =      -0.3063915811547336 [Eh]
	 Opposite-Spin Energy      =      -1.0924319716392332 [Eh]
	 Correlation Energy        =      -1.3988235527939668 [Eh]
	 Total Energy              =    -290.7095707140908303 [Eh]

	 ================> DF-SCS-MP2 Energies <==================
	-----------------------------------------------------------
	 SCS Same-Spin Scale       =       0.3333333333333333 [-]
	 SCS Opposite-Spin Scale   =       1.2000000000000000 [-]
	 SCS Same-Spin Energy      =      -0.1021305270515779 [Eh]
	 SCS Opposite-Spin Energy  =      -1.3109183659670798 [Eh]
	 SCS Correlation Energy    =      -1.4130488930186575 [Eh]
	 SCS Total Energy          =    -290.7237960543155282 [Eh]
	-----------------------------------------------------------

  Dipole Moment: [D]
     X:    -0.8336      Y:     1.7569      Z:     0.3621     Total:     1.9780

*** Psi4 exiting successfully. Buy a developer a beer!
