                               Psi4 1.4a3.dev225

  ==> Input File <==

--------------------------------------------------------------------------
#psi4
#
memory 32 gb

molecule  {
0 1
  N        0.6335420    -0.4278790    -0.2728430
  C       -1.6707791    -0.6409345    -0.6339967
  C       -0.4830900     0.2151130    -0.2797610
  C        1.8471620     0.3055680     0.0922530
  C       -2.6435280    -0.7283840     0.5986220
  C       -0.6406980     1.6798450     0.0649420
  C        3.0183950    -0.6607510     0.1713530
  H       -1.4212120    -1.5322710    -1.0024030
  H       -2.2765240    -0.0356590    -1.4187580
  H        2.0539910     1.0846830    -0.6562090
  H        1.7201950     0.8226000     1.0546610
  H       -3.5369580    -1.3025810     0.3373160
  H       -2.9717700     0.2361610     0.9972690
  H       -2.1143980    -1.2633090     1.3922570
  H       -0.4113830     1.8596200     1.1216760
  H       -1.6576830     2.0281380    -0.1274070
  H        0.0520880     2.2919400    -0.5220660
  H        3.9433710    -0.1376200     0.4335950
  H        2.8252920    -1.4268740     0.9259980
  H        3.1589730    -1.1612340    -0.7893850
units angstrom
no_reorient  #important for SAPT in psi4, default
symmetry c1  #important for SAPT in psi4, default
}

set PROPERTIES_ORIGIN ["COM"]
properties('MP2/aug-cc-pvtz', properties = ['dipole'])
--------------------------------------------------------------------------

    Molecular point group: c1
  Charge       = 0
  Multiplicity = 1
  Basis Set: AUG-CC-PVTZ
    Blend: AUG-CC-PVTZ
  Basis Set: (AUG-CC-PVTZ AUX)
    Blend: AUG-CC-PVTZ-JKFIT

    Orbital Energies [Eh]
    ---------------------

    Doubly Occupied:

       1A    -15.536544     2A    -11.275844     3A    -11.240548
       4A    -11.234637     5A    -11.224252     6A    -11.221713
       7A    -11.201807     8A     -1.217829     9A     -1.055259
      10A     -0.995090    11A     -0.973147    12A     -0.879350
      13A     -0.817345    14A     -0.713532    15A     -0.656720
      16A     -0.625361    17A     -0.611455    18A     -0.589379
      19A     -0.574511    20A     -0.552077    21A     -0.534735
      22A     -0.522278    23A     -0.509993    24A     -0.495933
      25A     -0.486323    26A     -0.472166    27A     -0.385012
      28A     -0.376730

  @DF-RHF Final Energy:  -289.30093437377332

   => Energetics <=

    Nuclear Repulsion Energy =            307.4565388274490942
    One-Electron Energy =                -999.5558083126373958
    Two-Electron Energy =                 402.7983351114149855
    Total Energy =                       -289.3009343737733161
  Basis Set: (AUG-CC-PVTZ AUX)
    Blend: AUG-CC-PVTZ-RI
    Molecular point group: c1

    Geometry (in Angstrom), charge = 0, multiplicity = 1:

       Center              X                  Y                   Z               Mass
    ------------   -----------------  -----------------  -----------------  -----------------
         N            0.619818310961    -0.402944822785    -0.253676598690    14.003074004430
         C           -1.684502789039    -0.616000322785    -0.614830298690    12.000000000000
         C           -0.496813689039     0.240047177215    -0.260594598690    12.000000000000
         C            1.833438310961     0.330502177215     0.111419401310    12.000000000000
         C           -2.657251689039    -0.703449822785     0.617788401310    12.000000000000
         C           -0.654421689039     1.704779177215     0.084108401310    12.000000000000
         C            3.004671310961    -0.635816822785     0.190519401310    12.000000000000
         H           -1.434935689039    -1.507336822785    -0.983236598690     1.007825032230
         H           -2.290247689039    -0.010724822785    -1.399591598690     1.007825032230
         H            2.040267310961     1.109617177215    -0.637042598690     1.007825032230
         H            1.706471310961     0.847534177215     1.073827401310     1.007825032230
         H           -3.550681689039    -1.277646822785     0.356482401310     1.007825032230
         H           -2.985493689039     0.261095177215     1.016435401310     1.007825032230
         H           -2.128121689039    -1.238374822785     1.411423401310     1.007825032230
         H           -0.425106689039     1.884554177215     1.140842401310     1.007825032230
         H           -1.671406689039     2.053072177215    -0.108240598690     1.007825032230
         H            0.038364310961     2.316874177215    -0.502899598690     1.007825032230
         H            3.929647310961    -0.112685822785     0.452761401310     1.007825032230
         H            2.811568310961    -1.401939822785     0.945164401310     1.007825032230
         H            3.145249310961    -1.136299822785    -0.770218598690     1.007825032230

  Basis Set: AUG-CC-PVTZ
    Blend: AUG-CC-PVTZ
  Basis Set: (AUG-CC-PVTZ AUX)
    Blend: AUG-CC-PVTZ-JKFIT
	 Reference Energy          =    -289.3009343737733161 [Eh]
	 Singles Energy            =      -0.0000000000000000 [Eh]
	 Same-Spin Energy          =      -0.3062892788818984 [Eh]
	 Opposite-Spin Energy      =      -1.0926378351230053 [Eh]
	 Correlation Energy        =      -1.3989271140049038 [Eh]
	 Total Energy              =    -290.6998614877782074 [Eh]

	 ================> DF-SCS-MP2 Energies <==================
	-----------------------------------------------------------
	 SCS Same-Spin Scale       =       0.3333333333333333 [-]
	 SCS Opposite-Spin Scale   =       1.2000000000000000 [-]
	 SCS Same-Spin Energy      =      -0.1020964262939661 [Eh]
	 SCS Opposite-Spin Energy  =      -1.3111654021476062 [Eh]
	 SCS Correlation Energy    =      -1.4132618284415723 [Eh]
	 SCS Total Energy          =    -290.7141962022149073 [Eh]
	-----------------------------------------------------------

  Dipole Moment: [D]
     X:    -0.8366      Y:     1.7583      Z:     0.4019     Total:     1.9882

*** Psi4 exiting successfully. Buy a developer a beer!
