                               Psi4 1.4a3.dev225

  ==> Input File <==

--------------------------------------------------------------------------
#psi4
#
memory 32 gb

molecule  {
0 1
  N        0.6335420    -0.4278790    -0.2728430
  C       -1.7313700    -0.5561300    -0.6201830
  C       -0.4830900     0.2151130    -0.2797610
  C        1.8471620     0.3055680     0.0922530
  C       -2.6435280    -0.7283840     0.5986220
  C       -0.6406980     1.6798450     0.0649420
  C        3.0183950    -0.6607510     0.1713530
  H       -1.4212120    -1.5322710    -1.0024030
  H       -2.2765240    -0.0356590    -1.4187580
  H        2.0502305     1.0705172    -0.6426006
  H        1.7201950     0.8226000     1.0546610
  H       -3.5369580    -1.3025810     0.3373160
  H       -2.9717700     0.2361610     0.9972690
  H       -2.1143980    -1.2633090     1.3922570
  H       -0.4113830     1.8596200     1.1216760
  H       -1.6576830     2.0281380    -0.1274070
  H        0.0520880     2.2919400    -0.5220660
  H        3.9433710    -0.1376200     0.4335950
  H        2.8252920    -1.4268740     0.9259980
  H        3.1589730    -1.1612340    -0.7893850
units angstrom
no_reorient  #important for SAPT in psi4, default
symmetry c1  #important for SAPT in psi4, default
}

set PROPERTIES_ORIGIN ["COM"]
properties('MP2/aug-cc-pvtz', properties = ['dipole'])
--------------------------------------------------------------------------

    Molecular point group: c1
  Charge       = 0
  Multiplicity = 1
  Basis Set: AUG-CC-PVTZ
    Blend: AUG-CC-PVTZ
  Basis Set: (AUG-CC-PVTZ AUX)
    Blend: AUG-CC-PVTZ-JKFIT

    Orbital Energies [Eh]
    ---------------------

    Doubly Occupied:

       1A    -15.538462     2A    -11.275544     3A    -11.239531
       4A    -11.231674     5A    -11.223472     6A    -11.219820
       7A    -11.202145     8A     -1.217328     9A     -1.059524
      10A     -0.998418    11A     -0.971828    12A     -0.877377
      13A     -0.818310    14A     -0.709227    15A     -0.651875
      16A     -0.628286    17A     -0.616575    18A     -0.590038
      19A     -0.575834    20A     -0.551973    21A     -0.535538
      22A     -0.515117    23A     -0.511548    24A     -0.493889
      25A     -0.486010    26A     -0.477198    27A     -0.385312
      28A     -0.380854

  @DF-RHF Final Energy:  -289.31412742773250

   => Energetics <=

    Nuclear Repulsion Energy =            307.6942284786865685
    One-Electron Energy =               -1000.0513047895037744
    Two-Electron Energy =                 403.0429488830847049
    Total Energy =                       -289.3141274277325010
  Basis Set: (AUG-CC-PVTZ AUX)
    Blend: AUG-CC-PVTZ-RI
    Molecular point group: c1

    Geometry (in Angstrom), charge = 0, multiplicity = 1:

       Center              X                  Y                   Z               Mass
    ------------   -----------------  -----------------  -----------------  -----------------
         N            0.627193137713    -0.413069230058    -0.255487603679    14.003074004430
         C           -1.737718862287    -0.541320230058    -0.602827603679    12.000000000000
         C           -0.489438862287     0.229922769942    -0.262405603679    12.000000000000
         C            1.840813137713     0.320377769942     0.109608396321    12.000000000000
         C           -2.649876862287    -0.713574230058     0.615977396321    12.000000000000
         C           -0.647046862287     1.694654769942     0.082297396321    12.000000000000
         C            3.012046137713    -0.645941230058     0.188708396321    12.000000000000
         H           -1.427560862287    -1.517461230058    -0.985047603679     1.007825032230
         H           -2.282872862287    -0.020849230058    -1.401402603679     1.007825032230
         H            2.043881637713     1.085326969942    -0.625245203679     1.007825032230
         H            1.713846137713     0.837409769942     1.072016396321     1.007825032230
         H           -3.543306862287    -1.287771230058     0.354671396321     1.007825032230
         H           -2.978118862287     0.250970769942     1.014624396321     1.007825032230
         H           -2.120746862287    -1.248499230058     1.409612396321     1.007825032230
         H           -0.417731862287     1.874429769942     1.139031396321     1.007825032230
         H           -1.664031862287     2.042947769942    -0.110051603679     1.007825032230
         H            0.045739137713     2.306749769942    -0.504710603679     1.007825032230
         H            3.937022137713    -0.122810230058     0.450950396321     1.007825032230
         H            2.818943137713    -1.412064230058     0.943353396321     1.007825032230
         H            3.152624137713    -1.146424230058    -0.772029603679     1.007825032230

  Basis Set: AUG-CC-PVTZ
    Blend: AUG-CC-PVTZ
  Basis Set: (AUG-CC-PVTZ AUX)
    Blend: AUG-CC-PVTZ-JKFIT
	 Reference Energy          =    -289.3141274277325010 [Eh]
	 Singles Energy            =      -0.0000000000000000 [Eh]
	 Same-Spin Energy          =      -0.3063188587663669 [Eh]
	 Opposite-Spin Energy      =      -1.0921596005773107 [Eh]
	 Correlation Energy        =      -1.3984784593436776 [Eh]
	 Total Energy              =    -290.7126058870761653 [Eh]

	 ================> DF-SCS-MP2 Energies <==================
	-----------------------------------------------------------
	 SCS Same-Spin Scale       =       0.3333333333333333 [-]
	 SCS Opposite-Spin Scale   =       1.2000000000000000 [-]
	 SCS Same-Spin Energy      =      -0.1021062862554556 [Eh]
	 SCS Opposite-Spin Energy  =      -1.3105915206927727 [Eh]
	 SCS Correlation Energy    =      -1.4126978069482283 [Eh]
	 SCS Total Energy          =    -290.7268252346807458 [Eh]
	-----------------------------------------------------------

  Dipole Moment: [D]
     X:    -0.8170      Y:     1.7728      Z:     0.3737     Total:     1.9874

*** Psi4 exiting successfully. Buy a developer a beer!
