                               Psi4 1.4a3.dev225

  ==> Input File <==

--------------------------------------------------------------------------
#psi4
#
memory 32 gb

molecule  {
0 1
  N        0.6335420    -0.4278790    -0.2728430
  C       -1.7313700    -0.5561300    -0.6201830
  C       -0.4830900     0.2151130    -0.2797610
  C        1.8471620     0.3055680     0.0922530
  C       -2.5622506    -0.7774605     0.6478231
  C       -0.6406980     1.6798450     0.0649420
  C        3.0183950    -0.6607510     0.1713530
  H       -1.4212120    -1.5322710    -1.0024030
  H       -2.2765240    -0.0356590    -1.4187580
  H        2.0539910     1.0846830    -0.6562090
  H        1.7201950     0.8226000     1.0546610
  H       -3.5369580    -1.3025810     0.3373160
  H       -2.9717700     0.2361610     0.9972690
  H       -2.1143980    -1.2633090     1.3922570
  H       -0.4113830     1.8596200     1.1216760
  H       -1.6576830     2.0281380    -0.1274070
  H        0.0520880     2.2919400    -0.5220660
  H        3.9433710    -0.1376200     0.4335950
  H        2.8252920    -1.4268740     0.9259980
  H        3.1589730    -1.1612340    -0.7893850
units angstrom
no_reorient  #important for SAPT in psi4, default
symmetry c1  #important for SAPT in psi4, default
}

set PROPERTIES_ORIGIN ["COM"]
properties('MP2/aug-cc-pvtz', properties = ['dipole'])
--------------------------------------------------------------------------

    Molecular point group: c1
  Charge       = 0
  Multiplicity = 1
  Basis Set: AUG-CC-PVTZ
    Blend: AUG-CC-PVTZ
  Basis Set: (AUG-CC-PVTZ AUX)
    Blend: AUG-CC-PVTZ-JKFIT

    Orbital Energies [Eh]
    ---------------------

    Doubly Occupied:

       1A    -15.537996     2A    -11.275038     3A    -11.241721
       4A    -11.231395     5A    -11.224527     6A    -11.221990
       7A    -11.202235     8A     -1.217153     9A     -1.060137
      10A     -0.998264    11A     -0.971647    12A     -0.878412
      13A     -0.818320    14A     -0.709162    15A     -0.650969
      16A     -0.628464    17A     -0.620554    18A     -0.591121
      19A     -0.577977    20A     -0.541476    21A     -0.534653
      22A     -0.530583    23A     -0.511063    24A     -0.494029
      25A     -0.479942    26A     -0.469265    27A     -0.384606
      28A     -0.379969

  @DF-RHF Final Energy:  -289.30030288116507

   => Energetics <=

    Nuclear Repulsion Energy =            307.9506380654867144
    One-Electron Energy =               -1000.5365432906053229
    Two-Electron Energy =                 403.2856023439535420
    Total Energy =                       -289.3003028811650665
  Basis Set: (AUG-CC-PVTZ AUX)
    Blend: AUG-CC-PVTZ-RI
    Molecular point group: c1

    Geometry (in Angstrom), charge = 0, multiplicity = 1:

       Center              X                  Y                   Z               Mass
    ------------   -----------------  -----------------  -----------------  -----------------
         N            0.617313507950    -0.407270909942    -0.261306679215    14.003074004430
         C           -1.747598492050    -0.535521909942    -0.608646679215    12.000000000000
         C           -0.499318492050     0.235721090058    -0.268224679215    12.000000000000
         C            1.830933507950     0.326176090058     0.103789320785    12.000000000000
         C           -2.578479092050    -0.756852409942     0.659359420785    12.000000000000
         C           -0.656926492050     1.700453090058     0.076478320785    12.000000000000
         C            3.002166507950    -0.640142909942     0.182889320785    12.000000000000
         H           -1.437440492050    -1.511662909942    -0.990866679215     1.007825032230
         H           -2.292752492050    -0.015050909942    -1.407221679215     1.007825032230
         H            2.037762507950     1.105291090058    -0.644672679215     1.007825032230
         H            1.703966507950     0.843208090058     1.066197320785     1.007825032230
         H           -3.553186492050    -1.281972909942     0.348852320785     1.007825032230
         H           -2.987998492050     0.256769090058     1.008805320785     1.007825032230
         H           -2.130626492050    -1.242700909942     1.403793320785     1.007825032230
         H           -0.427611492050     1.880228090058     1.133212320785     1.007825032230
         H           -1.673911492050     2.048746090058    -0.115870679215     1.007825032230
         H            0.035859507950     2.312548090058    -0.510529679215     1.007825032230
         H            3.927142507950    -0.117011909942     0.445131320785     1.007825032230
         H            2.809063507950    -1.406265909942     0.937534320785     1.007825032230
         H            3.142744507950    -1.140625909942    -0.777848679215     1.007825032230

  Basis Set: AUG-CC-PVTZ
    Blend: AUG-CC-PVTZ
  Basis Set: (AUG-CC-PVTZ AUX)
    Blend: AUG-CC-PVTZ-JKFIT
	 Reference Energy          =    -289.3003028811650665 [Eh]
	 Singles Energy            =      -0.0000000000000000 [Eh]
	 Same-Spin Energy          =      -0.3065632585355282 [Eh]
	 Opposite-Spin Energy      =      -1.0929240415513255 [Eh]
	 Correlation Energy        =      -1.3994873000868537 [Eh]
	 Total Energy              =    -290.6997901812518990 [Eh]

	 ================> DF-SCS-MP2 Energies <==================
	-----------------------------------------------------------
	 SCS Same-Spin Scale       =       0.3333333333333333 [-]
	 SCS Opposite-Spin Scale   =       1.2000000000000000 [-]
	 SCS Same-Spin Energy      =      -0.1021877528451761 [Eh]
	 SCS Opposite-Spin Energy  =      -1.3115088498615906 [Eh]
	 SCS Correlation Energy    =      -1.4136966027067666 [Eh]
	 SCS Total Energy          =    -290.7139994838718167 [Eh]
	-----------------------------------------------------------

  Dipole Moment: [D]
     X:    -0.8072      Y:     1.7434      Z:     0.3728     Total:     1.9570

*** Psi4 exiting successfully. Buy a developer a beer!
