                               Psi4 1.4a3.dev225

  ==> Input File <==

--------------------------------------------------------------------------
#psi4
#
memory 32 gb

molecule  {
0 1
  N        0.6335420    -0.4278790    -0.2728430
  C       -1.6551873    -0.6078214    -0.5657820
  C       -0.4830900     0.2151130    -0.2797610
  C        1.8471620     0.3055680     0.0922530
  C       -2.6435280    -0.7283840     0.5986220
  C       -0.6406980     1.6798450     0.0649420
  C        3.0183950    -0.6607510     0.1713530
  H       -1.4212120    -1.5322710    -1.0024030
  H       -2.2765240    -0.0356590    -1.4187580
  H        2.0539910     1.0846830    -0.6562090
  H        1.7201950     0.8226000     1.0546610
  H       -3.5369580    -1.3025810     0.3373160
  H       -2.9717700     0.2361610     0.9972690
  H       -2.1143980    -1.2633090     1.3922570
  H       -0.4113830     1.8596200     1.1216760
  H       -1.6576830     2.0281380    -0.1274070
  H        0.0520880     2.2919400    -0.5220660
  H        3.9433710    -0.1376200     0.4335950
  H        2.8252920    -1.4268740     0.9259980
  H        3.1589730    -1.1612340    -0.7893850
units angstrom
no_reorient  #important for SAPT in psi4, default
symmetry c1  #important for SAPT in psi4, default
}

set PROPERTIES_ORIGIN ["COM"]
properties('MP2/aug-cc-pvtz', properties = ['dipole'])
--------------------------------------------------------------------------

    Molecular point group: c1
  Charge       = 0
  Multiplicity = 1
  Basis Set: AUG-CC-PVTZ
    Blend: AUG-CC-PVTZ
  Basis Set: (AUG-CC-PVTZ AUX)
    Blend: AUG-CC-PVTZ-JKFIT

    Orbital Energies [Eh]
    ---------------------

    Doubly Occupied:

       1A    -15.538061     2A    -11.274151     3A    -11.241267
       4A    -11.233783     5A    -11.226972     6A    -11.221062
       7A    -11.202278     8A     -1.220847     9A     -1.062074
      10A     -0.997901    11A     -0.973408    12A     -0.882425
      13A     -0.814355    14A     -0.712399    15A     -0.656546
      16A     -0.627217    17A     -0.613160    18A     -0.589692
      19A     -0.574698    20A     -0.554137    21A     -0.541209
      22A     -0.515780    23A     -0.510268    24A     -0.494299
      25A     -0.487804    26A     -0.467727    27A     -0.388564
      28A     -0.375923

  @DF-RHF Final Energy:  -289.30229943855852

   => Energetics <=

    Nuclear Repulsion Energy =            308.4058591244325385
    One-Electron Energy =               -1001.4202987133157876
    Two-Electron Energy =                 403.7121401503247853
    Total Energy =                       -289.3022994385585207
  Basis Set: (AUG-CC-PVTZ AUX)
    Blend: AUG-CC-PVTZ-RI
    Molecular point group: c1

    Geometry (in Angstrom), charge = 0, multiplicity = 1:

       Center              X                  Y                   Z               Mass
    ------------   -----------------  -----------------  -----------------  -----------------
         N            0.617930394320    -0.406954287536    -0.261936303616    14.003074004430
         C           -1.670798905680    -0.586896687536    -0.554875303616    12.000000000000
         C           -0.498701605680     0.236037712464    -0.268854303616    12.000000000000
         C            1.831550394320     0.326492712464     0.103159696384    12.000000000000
         C           -2.659139605680    -0.707459287536     0.609528696384    12.000000000000
         C           -0.656309605680     1.700769712464     0.075848696384    12.000000000000
         C            3.002783394320    -0.639826287536     0.182259696384    12.000000000000
         H           -1.436823605680    -1.511346287536    -0.991496303616     1.007825032230
         H           -2.292135605680    -0.014734287536    -1.407851303616     1.007825032230
         H            2.038379394320     1.105607712464    -0.645302303616     1.007825032230
         H            1.704583394320     0.843524712464     1.065567696384     1.007825032230
         H           -3.552569605680    -1.281656287536     0.348222696384     1.007825032230
         H           -2.987381605680     0.257085712464     1.008175696384     1.007825032230
         H           -2.130009605680    -1.242384287536     1.403163696384     1.007825032230
         H           -0.426994605680     1.880544712464     1.132582696384     1.007825032230
         H           -1.673294605680     2.049062712464    -0.116500303616     1.007825032230
         H            0.036476394320     2.312864712464    -0.511159303616     1.007825032230
         H            3.927759394320    -0.116695287536     0.444501696384     1.007825032230
         H            2.809680394320    -1.405949287536     0.936904696384     1.007825032230
         H            3.143361394320    -1.140309287536    -0.778478303616     1.007825032230

  Basis Set: AUG-CC-PVTZ
    Blend: AUG-CC-PVTZ
  Basis Set: (AUG-CC-PVTZ AUX)
    Blend: AUG-CC-PVTZ-JKFIT
	 Reference Energy          =    -289.3022994385585207 [Eh]
	 Singles Energy            =      -0.0000000000000000 [Eh]
	 Same-Spin Energy          =      -0.3068632853042152 [Eh]
	 Opposite-Spin Energy      =      -1.0931602972953236 [Eh]
	 Correlation Energy        =      -1.4000235825995389 [Eh]
	 Total Energy              =    -290.7023230211580653 [Eh]

	 ================> DF-SCS-MP2 Energies <==================
	-----------------------------------------------------------
	 SCS Same-Spin Scale       =       0.3333333333333333 [-]
	 SCS Opposite-Spin Scale   =       1.2000000000000000 [-]
	 SCS Same-Spin Energy      =      -0.1022877617680717 [Eh]
	 SCS Opposite-Spin Energy  =      -1.3117923567543883 [Eh]
	 SCS Correlation Energy    =      -1.4140801185224601 [Eh]
	 SCS Total Energy          =    -290.7163795570809839 [Eh]
	-----------------------------------------------------------

  Dipole Moment: [D]
     X:    -0.8309      Y:     1.7257      Z:     0.4352     Total:     1.9642

*** Psi4 exiting successfully. Buy a developer a beer!
