                               Psi4 1.4a3.dev225

  ==> Input File <==

--------------------------------------------------------------------------
#psi4
#
memory 32 gb

molecule  {
0 1
  N        0.6335420    -0.4278790    -0.2728430
  C       -1.7313700    -0.5561300    -0.6201830
  C       -0.4830900     0.2151130    -0.2797610
  C        1.8471620     0.3055680     0.0922530
  C       -2.5839898    -0.7171407     0.5190683
  C       -0.6406980     1.6798450     0.0649420
  C        3.0183950    -0.6607510     0.1713530
  H       -1.4212120    -1.5322710    -1.0024030
  H       -2.2765240    -0.0356590    -1.4187580
  H        2.0539910     1.0846830    -0.6562090
  H        1.7201950     0.8226000     1.0546610
  H       -3.5369580    -1.3025810     0.3373160
  H       -2.9717700     0.2361610     0.9972690
  H       -2.1143980    -1.2633090     1.3922570
  H       -0.4113830     1.8596200     1.1216760
  H       -1.6576830     2.0281380    -0.1274070
  H        0.0520880     2.2919400    -0.5220660
  H        3.9433710    -0.1376200     0.4335950
  H        2.8252920    -1.4268740     0.9259980
  H        3.1589730    -1.1612340    -0.7893850
units angstrom
no_reorient  #important for SAPT in psi4, default
symmetry c1  #important for SAPT in psi4, default
}

set PROPERTIES_ORIGIN ["COM"]
properties('MP2/aug-cc-pvtz', properties = ['dipole'])
--------------------------------------------------------------------------

    Molecular point group: c1
  Charge       = 0
  Multiplicity = 1
  Basis Set: AUG-CC-PVTZ
    Blend: AUG-CC-PVTZ
  Basis Set: (AUG-CC-PVTZ AUX)
    Blend: AUG-CC-PVTZ-JKFIT

    Orbital Energies [Eh]
    ---------------------

    Doubly Occupied:

       1A    -15.539695     2A    -11.276406     3A    -11.242524
       4A    -11.231921     5A    -11.225286     6A    -11.219402
       7A    -11.202667     8A     -1.218820     9A     -1.072714
      10A     -1.004288    11A     -0.972448    12A     -0.870457
      13A     -0.815041    14A     -0.711344    15A     -0.654443
      16A     -0.629348    17A     -0.618258    18A     -0.592140
      19A     -0.577403    20A     -0.556062    21A     -0.542528
      22A     -0.515626    23A     -0.511640    24A     -0.493723
      25A     -0.469966    26A     -0.469137    27A     -0.385743
      28A     -0.383228

  @DF-RHF Final Energy:  -289.30263954489266

   => Energetics <=

    Nuclear Repulsion Energy =            308.9844789431174377
    One-Electron Energy =               -1002.5697175379187911
    Two-Electron Energy =                 404.2825990499086970
    Total Energy =                       -289.3026395448926564
  Basis Set: (AUG-CC-PVTZ AUX)
    Blend: AUG-CC-PVTZ-RI
    Molecular point group: c1

    Geometry (in Angstrom), charge = 0, multiplicity = 1:

       Center              X                  Y                   Z               Mass
    ------------   -----------------  -----------------  -----------------  -----------------
         N            0.619945776029    -0.414574669237    -0.245716540200    14.003074004430
         C           -1.744966223971    -0.542825669237    -0.593056540200    12.000000000000
         C           -0.496686223971     0.228417330763    -0.252634540200    12.000000000000
         C            1.833565776029     0.318872330763     0.119379459800    12.000000000000
         C           -2.597586023971    -0.703836369237     0.546194759800    12.000000000000
         C           -0.654294223971     1.693149330763     0.092068459800    12.000000000000
         C            3.004798776029    -0.647446669237     0.198479459800    12.000000000000
         H           -1.434808223971    -1.518966669237    -0.975276540200     1.007825032230
         H           -2.290120223971    -0.022354669237    -1.391631540200     1.007825032230
         H            2.040394776029     1.097987330763    -0.629082540200     1.007825032230
         H            1.706598776029     0.835904330763     1.081787459800     1.007825032230
         H           -3.550554223971    -1.289276669237     0.364442459800     1.007825032230
         H           -2.985366223971     0.249465330763     1.024395459800     1.007825032230
         H           -2.127994223971    -1.250004669237     1.419383459800     1.007825032230
         H           -0.424979223971     1.872924330763     1.148802459800     1.007825032230
         H           -1.671279223971     2.041442330763    -0.100280540200     1.007825032230
         H            0.038491776029     2.305244330763    -0.494939540200     1.007825032230
         H            3.929774776029    -0.124315669237     0.460721459800     1.007825032230
         H            2.811695776029    -1.413569669237     0.953124459800     1.007825032230
         H            3.145376776029    -1.147929669237    -0.762258540200     1.007825032230

  Basis Set: AUG-CC-PVTZ
    Blend: AUG-CC-PVTZ
  Basis Set: (AUG-CC-PVTZ AUX)
    Blend: AUG-CC-PVTZ-JKFIT
	 Reference Energy          =    -289.3026395448926564 [Eh]
	 Singles Energy            =      -0.0000000000000000 [Eh]
	 Same-Spin Energy          =      -0.3072847836368638 [Eh]
	 Opposite-Spin Energy      =      -1.0934156559248245 [Eh]
	 Correlation Energy        =      -1.4007004395616884 [Eh]
	 Total Energy              =    -290.7033399844543169 [Eh]

	 ================> DF-SCS-MP2 Energies <==================
	-----------------------------------------------------------
	 SCS Same-Spin Scale       =       0.3333333333333333 [-]
	 SCS Opposite-Spin Scale   =       1.2000000000000000 [-]
	 SCS Same-Spin Energy      =      -0.1024282612122879 [Eh]
	 SCS Opposite-Spin Energy  =      -1.3120987871097893 [Eh]
	 SCS Correlation Energy    =      -1.4145270483220773 [Eh]
	 SCS Total Energy          =    -290.7171665932147562 [Eh]
	-----------------------------------------------------------

  Dipole Moment: [D]
     X:    -0.7782      Y:     1.7683      Z:     0.3584     Total:     1.9649

*** Psi4 exiting successfully. Buy a developer a beer!
