                               Psi4 1.4a3.dev225

  ==> Input File <==

--------------------------------------------------------------------------
#psi4
#
memory 32 gb

molecule  {
0 1
  N        0.6335420    -0.4278790    -0.2728430
  C       -1.7313700    -0.5561300    -0.6201830
  C       -0.4830900     0.2151130    -0.2797610
  C        1.8471620     0.3055680     0.0922530
  C       -2.6034205    -0.7530422     0.6239805
  C       -0.6406980     1.6798450     0.0649420
  C        3.0183950    -0.6607510     0.1713530
  H       -1.4212120    -1.5322710    -1.0024030
  H       -2.2765240    -0.0356590    -1.4187580
  H        2.0539910     1.0846830    -0.6562090
  H        1.7201950     0.8226000     1.0546610
  H       -3.5369580    -1.3025810     0.3373160
  H       -2.9717700     0.2361610     0.9972690
  H       -2.1143980    -1.2633090     1.3922570
  H       -0.4113830     1.8596200     1.1216760
  H       -1.6576830     2.0281380    -0.1274070
  H        0.0520880     2.2919400    -0.5220660
  H        3.9433710    -0.1376200     0.4335950
  H        2.8252920    -1.4268740     0.9259980
  H        3.1589730    -1.1612340    -0.7893850
units angstrom
no_reorient  #important for SAPT in psi4, default
symmetry c1  #important for SAPT in psi4, default
}

set PROPERTIES_ORIGIN ["COM"]
properties('MP2/aug-cc-pvtz', properties = ['dipole'])
--------------------------------------------------------------------------

    Molecular point group: c1
  Charge       = 0
  Multiplicity = 1
  Basis Set: AUG-CC-PVTZ
    Blend: AUG-CC-PVTZ
  Basis Set: (AUG-CC-PVTZ AUX)
    Blend: AUG-CC-PVTZ-JKFIT

    Orbital Energies [Eh]
    ---------------------

    Doubly Occupied:

       1A    -15.538306     2A    -11.275311     3A    -11.241853
       4A    -11.231494     5A    -11.223791     6A    -11.220461
       7A    -11.202278     8A     -1.217200     9A     -1.059584
      10A     -0.998074    11A     -0.971655    12A     -0.877385
      13A     -0.817442    14A     -0.708742    15A     -0.651159
      16A     -0.627767    17A     -0.617961    18A     -0.590571
      19A     -0.576433    20A     -0.544922    21A     -0.533614
      22A     -0.525335    23A     -0.511214    24A     -0.493785
      25A     -0.483830    26A     -0.474404    27A     -0.384904
      28A     -0.380359

  @DF-RHF Final Energy:  -289.31076252141412

   => Energetics <=

    Nuclear Repulsion Energy =            307.7697243704638481
    One-Electron Energy =               -1000.2013076098627380
    Two-Electron Energy =                 403.1208207179847136
    Total Energy =                       -289.3107625214141194
  Basis Set: (AUG-CC-PVTZ AUX)
    Blend: AUG-CC-PVTZ-RI
    Molecular point group: c1

    Geometry (in Angstrom), charge = 0, multiplicity = 1:

       Center              X                  Y                   Z               Mass
    ------------   -----------------  -----------------  -----------------  -----------------
         N            0.622298521823    -0.410227574016    -0.258419723168    14.003074004430
         C           -1.742613478177    -0.538478574016    -0.605759723168    12.000000000000
         C           -0.494333478177     0.232764425984    -0.265337723168    12.000000000000
         C            1.835918521823     0.323219425984     0.106676276832    12.000000000000
         C           -2.614663978177    -0.735390774016     0.638403776832    12.000000000000
         C           -0.651941478177     1.697496425984     0.079365276832    12.000000000000
         C            3.007151521823    -0.643099574016     0.185776276832    12.000000000000
         H           -1.432455478177    -1.514619574016    -0.987979723168     1.007825032230
         H           -2.287767478177    -0.018007574016    -1.404334723168     1.007825032230
         H            2.042747521823     1.102334425984    -0.641785723168     1.007825032230
         H            1.708951521823     0.840251425984     1.069084276832     1.007825032230
         H           -3.548201478177    -1.284929574016     0.351739276832     1.007825032230
         H           -2.983013478177     0.253812425984     1.011692276832     1.007825032230
         H           -2.125641478177    -1.245657574016     1.406680276832     1.007825032230
         H           -0.422626478177     1.877271425984     1.136099276832     1.007825032230
         H           -1.668926478177     2.045789425984    -0.112983723168     1.007825032230
         H            0.040844521823     2.309591425984    -0.507642723168     1.007825032230
         H            3.932127521823    -0.119968574016     0.448018276832     1.007825032230
         H            2.814048521823    -1.409222574016     0.940421276832     1.007825032230
         H            3.147729521823    -1.143582574016    -0.774961723168     1.007825032230

  Basis Set: AUG-CC-PVTZ
    Blend: AUG-CC-PVTZ
  Basis Set: (AUG-CC-PVTZ AUX)
    Blend: AUG-CC-PVTZ-JKFIT
	 Reference Energy          =    -289.3107625214141194 [Eh]
	 Singles Energy            =      -0.0000000000000000 [Eh]
	 Same-Spin Energy          =      -0.3064061530922467 [Eh]
	 Opposite-Spin Energy      =      -1.0924485842028668 [Eh]
	 Correlation Energy        =      -1.3988547372951134 [Eh]
	 Total Energy              =    -290.7096172587092155 [Eh]

	 ================> DF-SCS-MP2 Energies <==================
	-----------------------------------------------------------
	 SCS Same-Spin Scale       =       0.3333333333333333 [-]
	 SCS Opposite-Spin Scale   =       1.2000000000000000 [-]
	 SCS Same-Spin Energy      =      -0.1021353843640822 [Eh]
	 SCS Opposite-Spin Energy  =      -1.3109383010434401 [Eh]
	 SCS Correlation Energy    =      -1.4130736854075223 [Eh]
	 SCS Total Energy          =    -290.7238362068216588 [Eh]
	-----------------------------------------------------------

  Dipole Moment: [D]
     X:    -0.8163      Y:     1.7497      Z:     0.3819     Total:     1.9682

*** Psi4 exiting successfully. Buy a developer a beer!
