                               Psi4 1.4a3.dev225

  ==> Input File <==

--------------------------------------------------------------------------
#psi4
#
memory 32 gb

molecule  {
0 1
  N        0.6335420    -0.4278790    -0.2728430
  C       -1.7313700    -0.5561300    -0.6201830
  C       -0.5004216     0.2250931    -0.2798684
  C        1.8471620     0.3055680     0.0922530
  C       -2.6435280    -0.7283840     0.5986220
  C       -0.6406980     1.6798450     0.0649420
  C        3.0183950    -0.6607510     0.1713530
  H       -1.4212120    -1.5322710    -1.0024030
  H       -2.2765240    -0.0356590    -1.4187580
  H        2.0539910     1.0846830    -0.6562090
  H        1.7201950     0.8226000     1.0546610
  H       -3.5369580    -1.3025810     0.3373160
  H       -2.9717700     0.2361610     0.9972690
  H       -2.1143980    -1.2633090     1.3922570
  H       -0.4113830     1.8596200     1.1216760
  H       -1.6576830     2.0281380    -0.1274070
  H        0.0520880     2.2919400    -0.5220660
  H        3.9433710    -0.1376200     0.4335950
  H        2.8252920    -1.4268740     0.9259980
  H        3.1589730    -1.1612340    -0.7893850
units angstrom
no_reorient  #important for SAPT in psi4, default
symmetry c1  #important for SAPT in psi4, default
}

set PROPERTIES_ORIGIN ["COM"]
properties('MP2/aug-cc-pvtz', properties = ['dipole'])
--------------------------------------------------------------------------

    Molecular point group: c1
  Charge       = 0
  Multiplicity = 1
  Basis Set: AUG-CC-PVTZ
    Blend: AUG-CC-PVTZ
  Basis Set: (AUG-CC-PVTZ AUX)
    Blend: AUG-CC-PVTZ-JKFIT

    Orbital Energies [Eh]
    ---------------------

    Doubly Occupied:

       1A    -15.539905     2A    -11.277657     3A    -11.241157
       4A    -11.232172     5A    -11.224096     6A    -11.220382
       7A    -11.201851     8A     -1.210945     9A     -1.061317
      10A     -0.997939    11A     -0.972114    12A     -0.878359
      13A     -0.815601    14A     -0.709817    15A     -0.652568
      16A     -0.627096    17A     -0.615583    18A     -0.589480
      19A     -0.576423    20A     -0.553399    21A     -0.535485
      22A     -0.515479    23A     -0.510512    24A     -0.492242
      25A     -0.487238    26A     -0.477094    27A     -0.386798
      28A     -0.374708

  @DF-RHF Final Energy:  -289.31159912892122

   => Energetics <=

    Nuclear Repulsion Energy =            307.4789849588095194
    One-Electron Energy =                -999.6263358637687588
    Two-Electron Energy =                 402.8357517760380233
    Total Energy =                       -289.3115991289212161
  Basis Set: (AUG-CC-PVTZ AUX)
    Blend: AUG-CC-PVTZ-RI
    Molecular point group: c1

    Geometry (in Angstrom), charge = 0, multiplicity = 1:

       Center              X                  Y                   Z               Mass
    ------------   -----------------  -----------------  -----------------  -----------------
         N            0.629253474600    -0.414421715999    -0.255336211554    14.003074004430
         C           -1.735658525400    -0.542672715999    -0.602676211554    12.000000000000
         C           -0.504710125400     0.238550384001    -0.262361611554    12.000000000000
         C            1.842873474600     0.319025284001     0.109759788446    12.000000000000
         C           -2.647816525400    -0.714926715999     0.616128788446    12.000000000000
         C           -0.644986525400     1.693302284001     0.082448788446    12.000000000000
         C            3.014106474600    -0.647293715999     0.188859788446    12.000000000000
         H           -1.425500525400    -1.518813715999    -0.984896211554     1.007825032230
         H           -2.280812525400    -0.022201715999    -1.401251211554     1.007825032230
         H            2.049702474600     1.098140284001    -0.638702211554     1.007825032230
         H            1.715906474600     0.836057284001     1.072167788446     1.007825032230
         H           -3.541246525400    -1.289123715999     0.354822788446     1.007825032230
         H           -2.976058525400     0.249618284001     1.014775788446     1.007825032230
         H           -2.118686525400    -1.249851715999     1.409763788446     1.007825032230
         H           -0.415671525400     1.873077284001     1.139182788446     1.007825032230
         H           -1.661971525400     2.041595284001    -0.109900211554     1.007825032230
         H            0.047799474600     2.305397284001    -0.504559211554     1.007825032230
         H            3.939082474600    -0.124162715999     0.451101788446     1.007825032230
         H            2.821003474600    -1.413416715999     0.943504788446     1.007825032230
         H            3.154684474600    -1.147776715999    -0.771878211554     1.007825032230

  Basis Set: AUG-CC-PVTZ
    Blend: AUG-CC-PVTZ
  Basis Set: (AUG-CC-PVTZ AUX)
    Blend: AUG-CC-PVTZ-JKFIT
	 Reference Energy          =    -289.3115991289212161 [Eh]
	 Singles Energy            =      -0.0000000000000000 [Eh]
	 Same-Spin Energy          =      -0.3069223089170607 [Eh]
	 Opposite-Spin Energy      =      -1.0933444422077312 [Eh]
	 Correlation Energy        =      -1.4002667511247919 [Eh]
	 Total Energy              =    -290.7118658800459912 [Eh]

	 ================> DF-SCS-MP2 Energies <==================
	-----------------------------------------------------------
	 SCS Same-Spin Scale       =       0.3333333333333333 [-]
	 SCS Opposite-Spin Scale   =       1.2000000000000000 [-]
	 SCS Same-Spin Energy      =      -0.1023074363056869 [Eh]
	 SCS Opposite-Spin Energy  =      -1.3120133306492774 [Eh]
	 SCS Correlation Energy    =      -1.4143207669549642 [Eh]
	 SCS Total Energy          =    -290.7259198958761885 [Eh]
	-----------------------------------------------------------

  Dipole Moment: [D]
     X:    -0.8688      Y:     1.7810      Z:     0.3816     Total:     2.0181

*** Psi4 exiting successfully. Buy a developer a beer!
