                               Psi4 1.4a3.dev225

  ==> Input File <==

--------------------------------------------------------------------------
#psi4
#
memory 32 gb

molecule  {
0 1
  N        0.6335420    -0.4278790    -0.2728430
  C       -1.7501705    -0.3979899    -0.6013536
  C       -0.4830900     0.2151130    -0.2797610
  C        1.8471620     0.3055680     0.0922530
  C       -2.6435280    -0.7283840     0.5986220
  C       -0.6406980     1.6798450     0.0649420
  C        3.0183950    -0.6607510     0.1713530
  H       -1.4212120    -1.5322710    -1.0024030
  H       -2.2765240    -0.0356590    -1.4187580
  H        2.0539910     1.0846830    -0.6562090
  H        1.7201950     0.8226000     1.0546610
  H       -3.5369580    -1.3025810     0.3373160
  H       -2.9717700     0.2361610     0.9972690
  H       -2.1143980    -1.2633090     1.3922570
  H       -0.4113830     1.8596200     1.1216760
  H       -1.6576830     2.0281380    -0.1274070
  H        0.0520880     2.2919400    -0.5220660
  H        3.9433710    -0.1376200     0.4335950
  H        2.8252920    -1.4268740     0.9259980
  H        3.1589730    -1.1612340    -0.7893850
units angstrom
no_reorient  #important for SAPT in psi4, default
symmetry c1  #important for SAPT in psi4, default
}

set PROPERTIES_ORIGIN ["COM"]
properties('MP2/aug-cc-pvtz', properties = ['dipole'])
--------------------------------------------------------------------------

    Molecular point group: c1
  Charge       = 0
  Multiplicity = 1
  Basis Set: AUG-CC-PVTZ
    Blend: AUG-CC-PVTZ
  Basis Set: (AUG-CC-PVTZ AUX)
    Blend: AUG-CC-PVTZ-JKFIT

    Orbital Energies [Eh]
    ---------------------

    Doubly Occupied:

       1A    -15.542362     2A    -11.275391     3A    -11.244183
       4A    -11.228684     5A    -11.228453     6A    -11.223231
       7A    -11.203328     8A     -1.220632     9A     -1.068557
      10A     -0.998717    11A     -0.971521    12A     -0.883384
      13A     -0.820039    14A     -0.713966    15A     -0.651526
      16A     -0.631998    17A     -0.621515    18A     -0.586537
      19A     -0.579291    20A     -0.554812    21A     -0.535786
      22A     -0.525467    23A     -0.512270    24A     -0.496008
      25A     -0.489732    26A     -0.437797    27A     -0.388033
      28A     -0.381703

  @DF-RHF Final Energy:  -289.28698962593114

   => Energetics <=

    Nuclear Repulsion Energy =            308.4769608928013440
    One-Electron Energy =               -1001.4980528546117284
    Two-Electron Energy =                 403.7341023358792427
    Total Energy =                       -289.2869896259311417
  Basis Set: (AUG-CC-PVTZ AUX)
    Blend: AUG-CC-PVTZ-RI
    Molecular point group: c1

    Geometry (in Angstrom), charge = 0, multiplicity = 1:

       Center              X                  Y                   Z               Mass
    ------------   -----------------  -----------------  -----------------  -----------------
         N            0.629431334806    -0.432361513167    -0.257629153988    14.003074004430
         C           -1.754281165194    -0.402472413167    -0.586139753988    12.000000000000
         C           -0.487200665194     0.210630486833    -0.264547153988    12.000000000000
         C            1.843051334806     0.301085486833     0.107466846012    12.000000000000
         C           -2.647638665194    -0.732866513167     0.613835846012    12.000000000000
         C           -0.644808665194     1.675362486833     0.080155846012    12.000000000000
         C            3.014284334806    -0.665233513167     0.186566846012    12.000000000000
         H           -1.425322665194    -1.536753513167    -0.987189153988     1.007825032230
         H           -2.280634665194    -0.040141513167    -1.403544153988     1.007825032230
         H            2.049880334806     1.080200486833    -0.640995153988     1.007825032230
         H            1.716084334806     0.818117486833     1.069874846012     1.007825032230
         H           -3.541068665194    -1.307063513167     0.352529846012     1.007825032230
         H           -2.975880665194     0.231678486833     1.012482846012     1.007825032230
         H           -2.118508665194    -1.267791513167     1.407470846012     1.007825032230
         H           -0.415493665194     1.855137486833     1.136889846012     1.007825032230
         H           -1.661793665194     2.023655486833    -0.112193153988     1.007825032230
         H            0.047977334806     2.287457486833    -0.506852153988     1.007825032230
         H            3.939260334806    -0.142102513167     0.448808846012     1.007825032230
         H            2.821181334806    -1.431356513167     0.941211846012     1.007825032230
         H            3.154862334806    -1.165716513167    -0.774171153988     1.007825032230

  Basis Set: AUG-CC-PVTZ
    Blend: AUG-CC-PVTZ
  Basis Set: (AUG-CC-PVTZ AUX)
    Blend: AUG-CC-PVTZ-JKFIT
	 Reference Energy          =    -289.2869896259311417 [Eh]
	 Singles Energy            =      -0.0000000000000000 [Eh]
	 Same-Spin Energy          =      -0.3076759765534262 [Eh]
	 Opposite-Spin Energy      =      -1.0947679103936085 [Eh]
	 Correlation Energy        =      -1.4024438869470348 [Eh]
	 Total Energy              =    -290.6894335128781677 [Eh]

	 ================> DF-SCS-MP2 Energies <==================
	-----------------------------------------------------------
	 SCS Same-Spin Scale       =       0.3333333333333333 [-]
	 SCS Opposite-Spin Scale   =       1.2000000000000000 [-]
	 SCS Same-Spin Energy      =      -0.1025586588511420 [Eh]
	 SCS Opposite-Spin Energy  =      -1.3137214924723302 [Eh]
	 SCS Correlation Energy    =      -1.4162801513234722 [Eh]
	 SCS Total Energy          =    -290.7032697772546044 [Eh]
	-----------------------------------------------------------

  Dipole Moment: [D]
     X:    -0.8213      Y:     1.7901      Z:     0.3981     Total:     2.0094

*** Psi4 exiting successfully. Buy a developer a beer!
