                               Psi4 1.4a3.dev225

  ==> Input File <==

--------------------------------------------------------------------------
#psi4
#
memory 32 gb

molecule  {
0 1
  N        0.6335420    -0.4278790    -0.2728430
  C       -1.7313700    -0.5561300    -0.6201830
  C       -0.4830900     0.2151130    -0.2797610
  C        1.8471620     0.3055680     0.0922530
  C       -2.6435280    -0.7283840     0.5986220
  C       -0.6406980     1.6798450     0.0649420
  C        3.0183950    -0.6607510     0.1713530
  H       -1.4212120    -1.5322710    -1.0024030
  H       -2.2765240    -0.0356590    -1.4187580
  H        2.0539910     1.0846830    -0.6562090
  H        1.7201950     0.8226000     1.0546610
  H       -3.4961140    -1.2763310     0.3492619
  H       -2.9717700     0.2361610     0.9972690
  H       -2.1143980    -1.2633090     1.3922570
  H       -0.4113830     1.8596200     1.1216760
  H       -1.6576830     2.0281380    -0.1274070
  H        0.0520880     2.2919400    -0.5220660
  H        3.9433710    -0.1376200     0.4335950
  H        2.8252920    -1.4268740     0.9259980
  H        3.1589730    -1.1612340    -0.7893850
units angstrom
no_reorient  #important for SAPT in psi4, default
symmetry c1  #important for SAPT in psi4, default
}

set PROPERTIES_ORIGIN ["COM"]
properties('MP2/aug-cc-pvtz', properties = ['dipole'])
--------------------------------------------------------------------------

    Molecular point group: c1
  Charge       = 0
  Multiplicity = 1
  Basis Set: AUG-CC-PVTZ
    Blend: AUG-CC-PVTZ
  Basis Set: (AUG-CC-PVTZ AUX)
    Blend: AUG-CC-PVTZ-JKFIT

    Orbital Energies [Eh]
    ---------------------

    Doubly Occupied:

       1A    -15.538265     2A    -11.275392     3A    -11.241780
       4A    -11.231405     5A    -11.223137     6A    -11.213698
       7A    -11.202167     8A     -1.217000     9A     -1.059898
      10A     -0.999475    11A     -0.971597    12A     -0.880347
      13A     -0.817663    14A     -0.708386    15A     -0.651872
      16A     -0.628220    17A     -0.616272    18A     -0.589787
      19A     -0.575823    20A     -0.557385    21A     -0.536238
      22A     -0.515092    23A     -0.511063    24A     -0.492865
      25A     -0.485718    26A     -0.478695    27A     -0.385130
      28A     -0.380293

  @DF-RHF Final Energy:  -289.31305887974622

   => Energetics <=

    Nuclear Repulsion Energy =            307.8287707795645360
    One-Electron Energy =               -1000.3143341877980674
    Two-Electron Energy =                 403.1725045284872522
    Total Energy =                       -289.3130588797462224
  Basis Set: (AUG-CC-PVTZ AUX)
    Blend: AUG-CC-PVTZ-RI
    Molecular point group: c1

    Geometry (in Angstrom), charge = 0, multiplicity = 1:

       Center              X                  Y                   Z               Mass
    ------------   -----------------  -----------------  -----------------  -----------------
         N            0.626739541803    -0.413480229881    -0.255470697241    14.003074004430
         C           -1.738172458197    -0.541731229881    -0.602810697241    12.000000000000
         C           -0.489892458197     0.229511770119    -0.262388697241    12.000000000000
         C            1.840359541803     0.319966770119     0.109625302759    12.000000000000
         C           -2.650330458197    -0.713985229881     0.615994302759    12.000000000000
         C           -0.647500458197     1.694243770119     0.082314302759    12.000000000000
         C            3.011592541803    -0.646352229881     0.188725302759    12.000000000000
         H           -1.428014458197    -1.517872229881    -0.985030697241     1.007825032230
         H           -2.283326458197    -0.021260229881    -1.401385697241     1.007825032230
         H            2.047188541803     1.099081770119    -0.638836697241     1.007825032230
         H            1.713392541803     0.836998770119     1.072033302759     1.007825032230
         H           -3.502916458197    -1.261932229881     0.366634202759     1.007825032230
         H           -2.978572458197     0.250559770119     1.014641302759     1.007825032230
         H           -2.121200458197    -1.248910229881     1.409629302759     1.007825032230
         H           -0.418185458197     1.874018770119     1.139048302759     1.007825032230
         H           -1.664485458197     2.042536770119    -0.110034697241     1.007825032230
         H            0.045285541803     2.306338770119    -0.504693697241     1.007825032230
         H            3.936568541803    -0.123221229881     0.450967302759     1.007825032230
         H            2.818489541803    -1.412475229881     0.943370302759     1.007825032230
         H            3.152170541803    -1.146835229881    -0.772012697241     1.007825032230

  Basis Set: AUG-CC-PVTZ
    Blend: AUG-CC-PVTZ
  Basis Set: (AUG-CC-PVTZ AUX)
    Blend: AUG-CC-PVTZ-JKFIT
	 Reference Energy          =    -289.3130588797462224 [Eh]
	 Singles Energy            =      -0.0000000000000000 [Eh]
	 Same-Spin Energy          =      -0.3063682415144029 [Eh]
	 Opposite-Spin Energy      =      -1.0920182651449590 [Eh]
	 Correlation Energy        =      -1.3983865066593619 [Eh]
	 Total Energy              =    -290.7114453864055577 [Eh]

	 ================> DF-SCS-MP2 Energies <==================
	-----------------------------------------------------------
	 SCS Same-Spin Scale       =       0.3333333333333333 [-]
	 SCS Opposite-Spin Scale   =       1.2000000000000000 [-]
	 SCS Same-Spin Energy      =      -0.1021227471714676 [Eh]
	 SCS Opposite-Spin Energy  =      -1.3104219181739507 [Eh]
	 SCS Correlation Energy    =      -1.4125446653454183 [Eh]
	 SCS Total Energy          =    -290.7256035450916443 [Eh]
	-----------------------------------------------------------

  Dipole Moment: [D]
     X:    -0.8569      Y:     1.7443      Z:     0.3815     Total:     1.9805

*** Psi4 exiting successfully. Buy a developer a beer!
