                               Psi4 1.4a3.dev225

  ==> Input File <==

--------------------------------------------------------------------------
#psi4
#
memory 32 gb

molecule  {
0 1
  N        0.6335420    -0.4278790    -0.2728430
  C       -1.7313700    -0.5561300    -0.6201830
  C       -0.4675581     0.2102492    -0.3297552
  C        1.8471620     0.3055680     0.0922530
  C       -2.6435280    -0.7283840     0.5986220
  C       -0.6406980     1.6798450     0.0649420
  C        3.0183950    -0.6607510     0.1713530
  H       -1.4212120    -1.5322710    -1.0024030
  H       -2.2765240    -0.0356590    -1.4187580
  H        2.0539910     1.0846830    -0.6562090
  H        1.7201950     0.8226000     1.0546610
  H       -3.5369580    -1.3025810     0.3373160
  H       -2.9717700     0.2361610     0.9972690
  H       -2.1143980    -1.2633090     1.3922570
  H       -0.4113830     1.8596200     1.1216760
  H       -1.6576830     2.0281380    -0.1274070
  H        0.0520880     2.2919400    -0.5220660
  H        3.9433710    -0.1376200     0.4335950
  H        2.8252920    -1.4268740     0.9259980
  H        3.1589730    -1.1612340    -0.7893850
units angstrom
no_reorient  #important for SAPT in psi4, default
symmetry c1  #important for SAPT in psi4, default
}

set PROPERTIES_ORIGIN ["COM"]
properties('MP2/aug-cc-pvtz', properties = ['dipole'])
--------------------------------------------------------------------------

    Molecular point group: c1
  Charge       = 0
  Multiplicity = 1
  Basis Set: AUG-CC-PVTZ
    Blend: AUG-CC-PVTZ
  Basis Set: (AUG-CC-PVTZ AUX)
    Blend: AUG-CC-PVTZ-JKFIT

    Orbital Energies [Eh]
    ---------------------

    Doubly Occupied:

       1A    -15.538240     2A    -11.274515     3A    -11.243143
       4A    -11.231001     5A    -11.223103     6A    -11.220424
       7A    -11.202907     8A     -1.222138     9A     -1.058026
      10A     -0.998722    11A     -0.969256    12A     -0.878671
      13A     -0.818865    14A     -0.706868    15A     -0.651008
      16A     -0.628107    17A     -0.614766    18A     -0.589448
      19A     -0.574878    20A     -0.550038    21A     -0.537329
      22A     -0.515112    23A     -0.511878    24A     -0.493593
      25A     -0.485707    26A     -0.478290    27A     -0.385720
      28A     -0.382711

  @DF-RHF Final Energy:  -289.31384562792857

   => Energetics <=

    Nuclear Repulsion Energy =            307.5568931109154960
    One-Electron Energy =                -999.7725536702848785
    Two-Electron Energy =                 402.9018149314407538
    Total Energy =                       -289.3138456279285720
  Basis Set: (AUG-CC-PVTZ AUX)
    Blend: AUG-CC-PVTZ-RI
    Molecular point group: c1

    Geometry (in Angstrom), charge = 0, multiplicity = 1:

       Center              X                  Y                   Z               Mass
    ------------   -----------------  -----------------  -----------------  -----------------
         N            0.625274232401    -0.412624358040    -0.249295721048    14.003074004430
         C           -1.739637767599    -0.540875358040    -0.596635721048    12.000000000000
         C           -0.475825867599     0.225503841960    -0.306207921048    12.000000000000
         C            1.838894232401     0.320822641960     0.115800278952    12.000000000000
         C           -2.651795767599    -0.713129358040     0.622169278952    12.000000000000
         C           -0.648965767599     1.695099641960     0.088489278952    12.000000000000
         C            3.010127232401    -0.645496358040     0.194900278952    12.000000000000
         H           -1.429479767599    -1.517016358040    -0.978855721048     1.007825032230
         H           -2.284791767599    -0.020404358040    -1.395210721048     1.007825032230
         H            2.045723232401     1.099937641960    -0.632661721048     1.007825032230
         H            1.711927232401     0.837854641960     1.078208278952     1.007825032230
         H           -3.545225767599    -1.287326358040     0.360863278952     1.007825032230
         H           -2.980037767599     0.251415641960     1.020816278952     1.007825032230
         H           -2.122665767599    -1.248054358040     1.415804278952     1.007825032230
         H           -0.419650767599     1.874874641960     1.145223278952     1.007825032230
         H           -1.665950767599     2.043392641960    -0.103859721048     1.007825032230
         H            0.043820232401     2.307194641960    -0.498518721048     1.007825032230
         H            3.935103232401    -0.122365358040     0.457142278952     1.007825032230
         H            2.817024232401    -1.411619358040     0.949545278952     1.007825032230
         H            3.150705232401    -1.145979358040    -0.765837721048     1.007825032230

  Basis Set: AUG-CC-PVTZ
    Blend: AUG-CC-PVTZ
  Basis Set: (AUG-CC-PVTZ AUX)
    Blend: AUG-CC-PVTZ-JKFIT
	 Reference Energy          =    -289.3138456279285720 [Eh]
	 Singles Energy            =      -0.0000000000000000 [Eh]
	 Same-Spin Energy          =      -0.3059621761243843 [Eh]
	 Opposite-Spin Energy      =      -1.0916739682340149 [Eh]
	 Correlation Energy        =      -1.3976361443583991 [Eh]
	 Total Energy              =    -290.7114817722869589 [Eh]

	 ================> DF-SCS-MP2 Energies <==================
	-----------------------------------------------------------
	 SCS Same-Spin Scale       =       0.3333333333333333 [-]
	 SCS Opposite-Spin Scale   =       1.2000000000000000 [-]
	 SCS Same-Spin Energy      =      -0.1019873920414614 [Eh]
	 SCS Opposite-Spin Energy  =      -1.3100087618808178 [Eh]
	 SCS Correlation Energy    =      -1.4119961539222792 [Eh]
	 SCS Total Energy          =    -290.7258417818508747 [Eh]
	-----------------------------------------------------------

  Dipole Moment: [D]
     X:    -0.7866      Y:     1.7107      Z:     0.3894     Total:     1.9227

*** Psi4 exiting successfully. Buy a developer a beer!
