                               Psi4 1.4a3.dev225

  ==> Input File <==

--------------------------------------------------------------------------
#psi4
#
memory 32 gb

molecule  {
0 1
  N        0.6335420    -0.4278790    -0.2728430
  C       -1.7167814    -0.5776999    -0.6237947
  C       -0.4830900     0.2151130    -0.2797610
  C        1.8471620     0.3055680     0.0922530
  C       -2.6435280    -0.7283840     0.5986220
  C       -0.6406980     1.6798450     0.0649420
  C        3.0183950    -0.6607510     0.1713530
  H       -1.4212120    -1.5322710    -1.0024030
  H       -2.2765240    -0.0356590    -1.4187580
  H        2.0539910     1.0846830    -0.6562090
  H        1.7201950     0.8226000     1.0546610
  H       -3.5369580    -1.3025810     0.3373160
  H       -2.9717700     0.2361610     0.9972690
  H       -2.1143980    -1.2633090     1.3922570
  H       -0.4113830     1.8596200     1.1216760
  H       -1.6576830     2.0281380    -0.1274070
  H        0.0520880     2.2919400    -0.5220660
  H        3.9433710    -0.1376200     0.4335950
  H        2.8252920    -1.4268740     0.9259980
  H        3.1589730    -1.1612340    -0.7893850
units angstrom
no_reorient  #important for SAPT in psi4, default
symmetry c1  #important for SAPT in psi4, default
}

set PROPERTIES_ORIGIN ["COM"]
properties('MP2/aug-cc-pvtz', properties = ['dipole'])
--------------------------------------------------------------------------

    Molecular point group: c1
  Charge       = 0
  Multiplicity = 1
  Basis Set: AUG-CC-PVTZ
    Blend: AUG-CC-PVTZ
  Basis Set: (AUG-CC-PVTZ AUX)
    Blend: AUG-CC-PVTZ-JKFIT

    Orbital Energies [Eh]
    ---------------------

    Doubly Occupied:

       1A    -15.538113     2A    -11.275595     3A    -11.241650
       4A    -11.232343     5A    -11.223446     6A    -11.220201
       7A    -11.202201     8A     -1.217390     9A     -1.058198
      10A     -0.997379    11A     -0.972017    12A     -0.877684
      13A     -0.816890    14A     -0.709224    15A     -0.653066
      16A     -0.626717    17A     -0.614655    18A     -0.590149
      19A     -0.575263    20A     -0.551797    21A     -0.535406
      22A     -0.513900    23A     -0.510771    24A     -0.492744
      25A     -0.490627    26A     -0.476656    27A     -0.385314
      28A     -0.379751

  @DF-RHF Final Energy:  -289.31344362620911

   => Energetics <=

    Nuclear Repulsion Energy =            307.5629129588486990
    One-Electron Energy =                -999.7944218175558717
    Two-Electron Energy =                 402.9180652324981224
    Total Energy =                       -289.3134436262091072
  Basis Set: (AUG-CC-PVTZ AUX)
    Blend: AUG-CC-PVTZ-RI
    Molecular point group: c1

    Geometry (in Angstrom), charge = 0, multiplicity = 1:

       Center              X                  Y                   Z               Mass
    ------------   -----------------  -----------------  -----------------  -----------------
         N            0.625388450886    -0.410601517560    -0.254911897088    14.003074004430
         C           -1.724934949114    -0.560422417560    -0.605863597088    12.000000000000
         C           -0.491243549114     0.232390482440    -0.261829897088    12.000000000000
         C            1.839008450886     0.322845482440     0.110184102912    12.000000000000
         C           -2.651681549114    -0.711106517560     0.616553102912    12.000000000000
         C           -0.648851549114     1.697122482440     0.082873102912    12.000000000000
         C            3.010241450886    -0.643473517560     0.189284102912    12.000000000000
         H           -1.429365549114    -1.514993517560    -0.984471897088     1.007825032230
         H           -2.284677549114    -0.018381517560    -1.400826897088     1.007825032230
         H            2.045837450886     1.101960482440    -0.638277897088     1.007825032230
         H            1.712041450886     0.839877482440     1.072592102912     1.007825032230
         H           -3.545111549114    -1.285303517560     0.355247102912     1.007825032230
         H           -2.979923549114     0.253438482440     1.015200102912     1.007825032230
         H           -2.122551549114    -1.246031517560     1.410188102912     1.007825032230
         H           -0.419536549114     1.876897482440     1.139607102912     1.007825032230
         H           -1.665836549114     2.045415482440    -0.109475897088     1.007825032230
         H            0.043934450886     2.309217482440    -0.504134897088     1.007825032230
         H            3.935217450886    -0.120342517560     0.451526102912     1.007825032230
         H            2.817138450886    -1.409596517560     0.943929102912     1.007825032230
         H            3.150819450886    -1.143956517560    -0.771453897088     1.007825032230

  Basis Set: AUG-CC-PVTZ
    Blend: AUG-CC-PVTZ
  Basis Set: (AUG-CC-PVTZ AUX)
    Blend: AUG-CC-PVTZ-JKFIT
	 Reference Energy          =    -289.3134436262091072 [Eh]
	 Singles Energy            =      -0.0000000000000000 [Eh]
	 Same-Spin Energy          =      -0.3062831178086904 [Eh]
	 Opposite-Spin Energy      =      -1.0922338341413851 [Eh]
	 Correlation Energy        =      -1.3985169519500755 [Eh]
	 Total Energy              =    -290.7119605781591645 [Eh]

	 ================> DF-SCS-MP2 Energies <==================
	-----------------------------------------------------------
	 SCS Same-Spin Scale       =       0.3333333333333333 [-]
	 SCS Opposite-Spin Scale   =       1.2000000000000000 [-]
	 SCS Same-Spin Energy      =      -0.1020943726028968 [Eh]
	 SCS Opposite-Spin Energy  =      -1.3106806009696621 [Eh]
	 SCS Correlation Energy    =      -1.4127749735725590 [Eh]
	 SCS Total Energy          =    -290.7262185997816459 [Eh]
	-----------------------------------------------------------

  Dipole Moment: [D]
     X:    -0.8270      Y:     1.7579      Z:     0.3827     Total:     1.9801

*** Psi4 exiting successfully. Buy a developer a beer!
