                               Psi4 1.4a3.dev225

  ==> Input File <==

--------------------------------------------------------------------------
#psi4
#
memory 32 gb

molecule  {
0 1
  N        0.6335420    -0.4278790    -0.2728430
  C       -1.7313700    -0.5561300    -0.6201830
  C       -0.4830900     0.2151130    -0.2797610
  C        1.8471620     0.3055680     0.0922530
  C       -2.6435280    -0.7283840     0.5986220
  C       -0.6406980     1.6798450     0.0649420
  C        3.0322627    -0.6298811     0.2719396
  H       -1.4212120    -1.5322710    -1.0024030
  H       -2.2765240    -0.0356590    -1.4187580
  H        2.0539910     1.0846830    -0.6562090
  H        1.7201950     0.8226000     1.0546610
  H       -3.5369580    -1.3025810     0.3373160
  H       -2.9717700     0.2361610     0.9972690
  H       -2.1143980    -1.2633090     1.3922570
  H       -0.4113830     1.8596200     1.1216760
  H       -1.6576830     2.0281380    -0.1274070
  H        0.0520880     2.2919400    -0.5220660
  H        3.9433710    -0.1376200     0.4335950
  H        2.8252920    -1.4268740     0.9259980
  H        3.1589730    -1.1612340    -0.7893850
units angstrom
no_reorient  #important for SAPT in psi4, default
symmetry c1  #important for SAPT in psi4, default
}

set PROPERTIES_ORIGIN ["COM"]
properties('MP2/aug-cc-pvtz', properties = ['dipole'])
--------------------------------------------------------------------------

    Molecular point group: c1
  Charge       = 0
  Multiplicity = 1
  Basis Set: AUG-CC-PVTZ
    Blend: AUG-CC-PVTZ
  Basis Set: (AUG-CC-PVTZ AUX)
    Blend: AUG-CC-PVTZ-JKFIT

    Orbital Energies [Eh]
    ---------------------

    Doubly Occupied:

       1A    -15.539886     2A    -11.276641     3A    -11.243031
       4A    -11.231721     5A    -11.223917     6A    -11.220144
       7A    -11.204512     8A     -1.217726     9A     -1.059488
      10A     -0.999087    11A     -0.972550    12A     -0.878295
      13A     -0.818184    14A     -0.709002    15A     -0.653007
      16A     -0.627488    17A     -0.616420    18A     -0.589829
      19A     -0.576218    20A     -0.552985    21A     -0.544782
      22A     -0.521131    23A     -0.516340    24A     -0.487184
      25A     -0.484320    26A     -0.462928    27A     -0.385136
      28A     -0.380360

  @DF-RHF Final Energy:  -289.30315774737926

   => Energetics <=

    Nuclear Repulsion Energy =            307.4396113890505831
    One-Electron Energy =                -999.5009136790040429
    Two-Electron Energy =                 402.7581445425742004
    Total Energy =                       -289.3031577473792595
  Basis Set: (AUG-CC-PVTZ AUX)
    Blend: AUG-CC-PVTZ-RI
    Molecular point group: c1

    Geometry (in Angstrom), charge = 0, multiplicity = 1:

       Center              X                  Y                   Z               Mass
    ------------   -----------------  -----------------  -----------------  -----------------
         N            0.625475740301    -0.416951135376    -0.267528638228    14.003074004430
         C           -1.739436259699    -0.545202135376    -0.614868638228    12.000000000000
         C           -0.491156259699     0.226040864624    -0.274446638228    12.000000000000
         C            1.839095740301     0.316495864624     0.097567361772    12.000000000000
         C           -2.651594259699    -0.717456135376     0.603936361772    12.000000000000
         C           -0.648764259699     1.690772864624     0.070256361772    12.000000000000
         C            3.024196440301    -0.618953235376     0.277253961772    12.000000000000
         H           -1.429278259699    -1.521343135376    -0.997088638228     1.007825032230
         H           -2.284590259699    -0.024731135376    -1.413443638228     1.007825032230
         H            2.045924740301     1.095610864624    -0.650894638228     1.007825032230
         H            1.712128740301     0.833527864624     1.059975361772     1.007825032230
         H           -3.545024259699    -1.291653135376     0.342630361772     1.007825032230
         H           -2.979836259699     0.247088864624     1.002583361772     1.007825032230
         H           -2.122464259699    -1.252381135376     1.397571361772     1.007825032230
         H           -0.419449259699     1.870547864624     1.126990361772     1.007825032230
         H           -1.665749259699     2.039065864624    -0.122092638228     1.007825032230
         H            0.044021740301     2.302867864624    -0.516751638228     1.007825032230
         H            3.935304740301    -0.126692135376     0.438909361772     1.007825032230
         H            2.817225740301    -1.415946135376     0.931312361772     1.007825032230
         H            3.150906740301    -1.150306135376    -0.784070638228     1.007825032230

  Basis Set: AUG-CC-PVTZ
    Blend: AUG-CC-PVTZ
  Basis Set: (AUG-CC-PVTZ AUX)
    Blend: AUG-CC-PVTZ-JKFIT
	 Reference Energy          =    -289.3031577473792595 [Eh]
	 Singles Energy            =      -0.0000000000000000 [Eh]
	 Same-Spin Energy          =      -0.3064932776028559 [Eh]
	 Opposite-Spin Energy      =      -1.0927396720713691 [Eh]
	 Correlation Energy        =      -1.3992329496742251 [Eh]
	 Total Energy              =    -290.7023906970534881 [Eh]

	 ================> DF-SCS-MP2 Energies <==================
	-----------------------------------------------------------
	 SCS Same-Spin Scale       =       0.3333333333333333 [-]
	 SCS Opposite-Spin Scale   =       1.2000000000000000 [-]
	 SCS Same-Spin Energy      =      -0.1021644258676186 [Eh]
	 SCS Opposite-Spin Energy  =      -1.3112876064856429 [Eh]
	 SCS Correlation Energy    =      -1.4134520323532616 [Eh]
	 SCS Total Energy          =    -290.7166097797324937 [Eh]
	-----------------------------------------------------------

  Dipole Moment: [D]
     X:    -0.8309      Y:     1.7860      Z:     0.4278     Total:     2.0157

*** Psi4 exiting successfully. Buy a developer a beer!
