                               Psi4 1.4a3.dev225

  ==> Input File <==

--------------------------------------------------------------------------
#psi4
#
memory 32 gb

molecule  {
0 1
  N        0.6335420    -0.4278790    -0.2728430
  C       -1.7313700    -0.5561300    -0.6201830
  C       -0.5001427     0.2190372    -0.2301816
  C        1.8471620     0.3055680     0.0922530
  C       -2.6435280    -0.7283840     0.5986220
  C       -0.6406980     1.6798450     0.0649420
  C        3.0183950    -0.6607510     0.1713530
  H       -1.4212120    -1.5322710    -1.0024030
  H       -2.2765240    -0.0356590    -1.4187580
  H        2.0539910     1.0846830    -0.6562090
  H        1.7201950     0.8226000     1.0546610
  H       -3.5369580    -1.3025810     0.3373160
  H       -2.9717700     0.2361610     0.9972690
  H       -2.1143980    -1.2633090     1.3922570
  H       -0.4113830     1.8596200     1.1216760
  H       -1.6576830     2.0281380    -0.1274070
  H        0.0520880     2.2919400    -0.5220660
  H        3.9433710    -0.1376200     0.4335950
  H        2.8252920    -1.4268740     0.9259980
  H        3.1589730    -1.1612340    -0.7893850
units angstrom
no_reorient  #important for SAPT in psi4, default
symmetry c1  #important for SAPT in psi4, default
}

set PROPERTIES_ORIGIN ["COM"]
properties('MP2/aug-cc-pvtz', properties = ['dipole'])
--------------------------------------------------------------------------

    Molecular point group: c1
  Charge       = 0
  Multiplicity = 1
  Basis Set: AUG-CC-PVTZ
    Blend: AUG-CC-PVTZ
  Basis Set: (AUG-CC-PVTZ AUX)
    Blend: AUG-CC-PVTZ-JKFIT

    Orbital Energies [Eh]
    ---------------------

    Doubly Occupied:

       1A    -15.539909     2A    -11.277439     3A    -11.241075
       4A    -11.232321     5A    -11.224147     6A    -11.219381
       7A    -11.201890     8A     -1.212089     9A     -1.060751
      10A     -0.998112    11A     -0.973135    12A     -0.876013
      13A     -0.815267    14A     -0.710700    15A     -0.652259
      16A     -0.626618    17A     -0.617066    18A     -0.590848
      19A     -0.575723    20A     -0.553874    21A     -0.533897
      22A     -0.515448    23A     -0.510743    24A     -0.492757
      25A     -0.486654    26A     -0.475292    27A     -0.387300
      28A     -0.375350

  @DF-RHF Final Energy:  -289.31085164583698

   => Energetics <=

    Nuclear Repulsion Energy =            307.5874379299427801
    One-Electron Energy =                -999.8444694165087867
    Two-Electron Energy =                 402.9461798407290303
    Total Energy =                       -289.3108516458369763
  Basis Set: (AUG-CC-PVTZ AUX)
    Blend: AUG-CC-PVTZ-RI
    Molecular point group: c1

    Geometry (in Angstrom), charge = 0, multiplicity = 1:

       Center              X                  Y                   Z               Mass
    ------------   -----------------  -----------------  -----------------  -----------------
         N            0.629219704288    -0.413688443741    -0.261352485271    14.003074004430
         C           -1.735692295712    -0.541939443741    -0.608692485271    12.000000000000
         C           -0.504464995712     0.233227756259    -0.218691085271    12.000000000000
         C            1.842839704288     0.319758556259     0.103743514729    12.000000000000
         C           -2.647850295712    -0.714193443741     0.610112514729    12.000000000000
         C           -0.645020295712     1.694035556259     0.076432514729    12.000000000000
         C            3.014072704288    -0.646560443741     0.182843514729    12.000000000000
         H           -1.425534295712    -1.518080443741    -0.990912485271     1.007825032230
         H           -2.280846295712    -0.021468443741    -1.407267485271     1.007825032230
         H            2.049668704288     1.098873556259    -0.644718485271     1.007825032230
         H            1.715872704288     0.836790556259     1.066151514729     1.007825032230
         H           -3.541280295712    -1.288390443741     0.348806514729     1.007825032230
         H           -2.976092295712     0.250351556259     1.008759514729     1.007825032230
         H           -2.118720295712    -1.249118443741     1.403747514729     1.007825032230
         H           -0.415705295712     1.873810556259     1.133166514729     1.007825032230
         H           -1.662005295712     2.042328556259    -0.115916485271     1.007825032230
         H            0.047765704288     2.306130556259    -0.510575485271     1.007825032230
         H            3.939048704288    -0.123429443741     0.445085514729     1.007825032230
         H            2.820969704288    -1.412683443741     0.937488514729     1.007825032230
         H            3.154650704288    -1.147043443741    -0.777894485271     1.007825032230

  Basis Set: AUG-CC-PVTZ
    Blend: AUG-CC-PVTZ
  Basis Set: (AUG-CC-PVTZ AUX)
    Blend: AUG-CC-PVTZ-JKFIT
	 Reference Energy          =    -289.3108516458369763 [Eh]
	 Singles Energy            =      -0.0000000000000000 [Eh]
	 Same-Spin Energy          =      -0.3069173292407157 [Eh]
	 Opposite-Spin Energy      =      -1.0933774038158779 [Eh]
	 Correlation Energy        =      -1.4002947330565936 [Eh]
	 Total Energy              =    -290.7111463788935453 [Eh]

	 ================> DF-SCS-MP2 Energies <==================
	-----------------------------------------------------------
	 SCS Same-Spin Scale       =       0.3333333333333333 [-]
	 SCS Opposite-Spin Scale   =       1.2000000000000000 [-]
	 SCS Same-Spin Energy      =      -0.1023057764135719 [Eh]
	 SCS Opposite-Spin Energy  =      -1.3120528845790533 [Eh]
	 SCS Correlation Energy    =      -1.4143586609926253 [Eh]
	 SCS Total Energy          =    -290.7252103068295810 [Eh]
	-----------------------------------------------------------

  Dipole Moment: [D]
     X:    -0.8445      Y:     1.8006      Z:     0.3695     Total:     2.0228

*** Psi4 exiting successfully. Buy a developer a beer!
