                               Psi4 1.3.2 release

  ==> Input File <==

--------------------------------------------------------------------------
#psi4
#
memory 32 gb

molecule  {
0 1
  O        1.6853730    -0.6083350    -0.1243790
  O        0.5719120     1.2863760     0.0695120
  N        0.6408460     0.0479760     0.0122270
  C       -0.6076984    -0.7453239     0.3127372
  C       -1.8590060     0.0884880    -0.1216840
  H       -0.5100060    -1.5905650    -0.5103580
  H       -0.6039710    -1.1163170     1.1909310
  H       -1.9382960     0.9237250     0.5735710
  H       -1.8356290     0.4847820    -1.1384320
  H       -2.7433030    -0.5458310    -0.0161270
units angstrom
no_reorient  #important for SAPT in psi4, default
symmetry c1  #important for SAPT in psi4, default
}

set PROPERTIES_ORIGIN ["COM"]
properties('MP2/aug-cc-pvtz', properties = ['dipole'])
--------------------------------------------------------------------------

    Molecular point group: c1
  Charge       = 0
  Multiplicity = 1
  Basis Set: AUG-CC-PVTZ
    Blend: AUG-CC-PVTZ
  Basis Set: (AUG-CC-PVTZ AUX)
    Blend: AUG-CC-PVTZ-JKFIT

    Orbital Energies [Eh]
    ---------------------

    Doubly Occupied:

       1A    -20.610810     2A    -20.608115     3A    -15.849770
       4A    -11.314368     5A    -11.253592     6A     -1.588241
       7A     -1.389600     8A     -1.119432     9A     -0.962870
      10A     -0.854494    11A     -0.763958    12A     -0.728028
      13A     -0.716666    14A     -0.631993    15A     -0.584707
      16A     -0.576169    17A     -0.524847    18A     -0.493067
      19A     -0.485403    20A     -0.452569

  @DF-RHF Final Energy:  -282.77706387589899

   => Energetics <=

    Nuclear Repulsion Energy =            182.0650109232047100
    One-Electron Energy =                -746.6667435162926267
    Two-Electron Energy =                 281.8246687171889562
    Total Energy =                       -282.7770638758989890
  Basis Set: (AUG-CC-PVTZ AUX)
    Blend: AUG-CC-PVTZ-RI
    Molecular point group: c1

    Geometry (in Angstrom), charge = 0, multiplicity = 1:

       Center              X                  Y                   Z               Mass
    ------------   -----------------  -----------------  -----------------  -----------------
         O            1.581583688276    -0.632009578022    -0.146857737375    15.994914619570
         O            0.468122688276     1.262701421978     0.047033262625    15.994914619570
         N            0.537056688276     0.024301421978    -0.010251737375    14.003074004430
         C           -0.711487711724    -0.768998478022     0.290258462625    12.000000000000
         C           -1.962795311724     0.064813421978    -0.144162737375    12.000000000000
         H           -0.613795311724    -1.614239578022    -0.532836737375     1.007825032230
         H           -0.707760311724    -1.139991578022     1.168452262625     1.007825032230
         H           -2.042085311724     0.900050421978     0.551092262625     1.007825032230
         H           -1.939418311724     0.461107421978    -1.160910737375     1.007825032230
         H           -2.847092311724    -0.569505578022    -0.038605737375     1.007825032230

  Basis Set: AUG-CC-PVTZ
    Blend: AUG-CC-PVTZ
  Basis Set: (AUG-CC-PVTZ AUX)
    Blend: AUG-CC-PVTZ-JKFIT
	 Reference Energy          =    -282.7770638758989890 [Eh]
	 Singles Energy            =      -0.0000000000000000 [Eh]
	 Same-Spin Energy          =      -0.2810885235140134 [Eh]
	 Opposite-Spin Energy      =      -0.8704923343263573 [Eh]
	 Correlation Energy        =      -1.1515808578403708 [Eh]
	 Total Energy              =    -283.9286447337393611 [Eh]

	 ================> DF-SCS-MP2 Energies <==================
	-----------------------------------------------------------
	 SCS Same-Spin Scale       =       0.3333333333333333 [-]
	 SCS Opposite-Spin Scale   =       1.2000000000000000 [-]
	 SCS Same-Spin Energy      =      -0.0936961745046711 [Eh]
	 SCS Opposite-Spin Energy  =      -1.0445908011916287 [Eh]
	 SCS Correlation Energy    =      -1.1382869756962999 [Eh]
	 SCS Total Energy          =    -283.9153508515952922 [Eh]
	-----------------------------------------------------------

  Dipole Moment: [D]
     X:    -3.1782      Y:    -1.5542      Z:     0.4266     Total:     3.5635

*** Psi4 exiting successfully. Buy a developer a beer!
