                               Psi4 1.3.2 release

  ==> Input File <==

--------------------------------------------------------------------------
#psi4
#
memory 32 gb

molecule  {
0 1
  O        1.6853730    -0.6083350    -0.1243790
  O        0.5719120     1.2863760     0.0695120
  N        0.6408460     0.0479760     0.0122270
  C       -0.6264930    -0.7411460     0.1639780
  C       -1.8590060     0.0884880    -0.1216840
  H       -0.5100060    -1.5905650    -0.5103580
  H       -0.6039710    -1.1163170     1.1909310
  H       -1.9382960     0.9237250     0.5735710
  H       -1.8356290     0.4847820    -1.1384320
  H       -2.7433030    -0.5458310    -0.0161270
units angstrom
no_reorient  #important for SAPT in psi4, default
symmetry c1  #important for SAPT in psi4, default
}

set PROPERTIES_ORIGIN ["COM"]
properties('MP2/aug-cc-pvtz', properties = ['dipole'])
--------------------------------------------------------------------------

    Molecular point group: c1
  Charge       = 0
  Multiplicity = 1
  Basis Set: AUG-CC-PVTZ
    Blend: AUG-CC-PVTZ
  Basis Set: (AUG-CC-PVTZ AUX)
    Blend: AUG-CC-PVTZ-JKFIT

    Orbital Energies [Eh]
    ---------------------

    Doubly Occupied:

       1A    -20.610073     2A    -20.607011     3A    -15.849408
       4A    -11.315097     5A    -11.250607     6A     -1.588234
       7A     -1.389182     8A     -1.124435     9A     -0.969267
      10A     -0.840592    11A     -0.750194    12A     -0.731728
      13A     -0.719966    14A     -0.633003    15A     -0.592211
      16A     -0.563327    17A     -0.537765    18A     -0.496033
      19A     -0.487782    20A     -0.452665

  @DF-RHF Final Energy:  -282.80630135428839

   => Energetics <=

    Nuclear Repulsion Energy =            182.5055072577504234
    One-Electron Energy =                -747.6064561990465336
    Two-Electron Energy =                 282.2946475870077165
    Total Energy =                       -282.8063013542883937
  Basis Set: (AUG-CC-PVTZ AUX)
    Blend: AUG-CC-PVTZ-RI
    Molecular point group: c1

    Geometry (in Angstrom), charge = 0, multiplicity = 1:

       Center              X                  Y                   Z               Mass
    ------------   -----------------  -----------------  -----------------  -----------------
         O            1.584589540640    -0.632677756679    -0.123066425346    15.994914619570
         O            0.471128540640     1.262033243321     0.070824574654    15.994914619570
         N            0.540062540640     0.023633243321     0.013539574654    14.003074004430
         C           -0.727276459360    -0.765488756679     0.165290574654    12.000000000000
         C           -1.959789459360     0.064145243321    -0.120371425346    12.000000000000
         H           -0.610789459360    -1.614907756679    -0.509045425346     1.007825032230
         H           -0.704754459360    -1.140659756679     1.192243574654     1.007825032230
         H           -2.039079459360     0.899382243321     0.574883574654     1.007825032230
         H           -1.936412459360     0.460439243321    -1.137119425346     1.007825032230
         H           -2.844086459360    -0.570173756679    -0.014814425346     1.007825032230

  Basis Set: AUG-CC-PVTZ
    Blend: AUG-CC-PVTZ
  Basis Set: (AUG-CC-PVTZ AUX)
    Blend: AUG-CC-PVTZ-JKFIT
	 Reference Energy          =    -282.8063013542883937 [Eh]
	 Singles Energy            =      -0.0000000000000000 [Eh]
	 Same-Spin Energy          =      -0.2810465988304995 [Eh]
	 Opposite-Spin Energy      =      -0.8690137228979269 [Eh]
	 Correlation Energy        =      -1.1500603217284264 [Eh]
	 Total Energy              =    -283.9563616760167974 [Eh]

	 ================> DF-SCS-MP2 Energies <==================
	-----------------------------------------------------------
	 SCS Same-Spin Scale       =       0.3333333333333333 [-]
	 SCS Opposite-Spin Scale   =       1.2000000000000000 [-]
	 SCS Same-Spin Energy      =      -0.0936821996101665 [Eh]
	 SCS Opposite-Spin Energy  =      -1.0428164674775122 [Eh]
	 SCS Correlation Energy    =      -1.1364986670876787 [Eh]
	 SCS Total Energy          =    -283.9428000213760583 [Eh]
	-----------------------------------------------------------

  Dipole Moment: [D]
     X:    -3.2715      Y:    -1.5959      Z:     0.2899     Total:     3.6515

*** Psi4 exiting successfully. Buy a developer a beer!
