                               Psi4 1.3.2 release

  ==> Input File <==

--------------------------------------------------------------------------
#psi4
#
memory 32 gb

molecule  {
0 1
  O        1.6853730    -0.6083350    -0.1243790
  O        0.5719120     1.2863760     0.0695120
  N        0.6408460     0.0479760     0.0122270
  C       -0.5951686    -0.7481092     0.4119100
  C       -1.8590060     0.0884880    -0.1216840
  H       -0.5100060    -1.5905650    -0.5103580
  H       -0.6039710    -1.1163170     1.1909310
  H       -1.9382960     0.9237250     0.5735710
  H       -1.8356290     0.4847820    -1.1384320
  H       -2.7433030    -0.5458310    -0.0161270
units angstrom
no_reorient  #important for SAPT in psi4, default
symmetry c1  #important for SAPT in psi4, default
}

set PROPERTIES_ORIGIN ["COM"]
properties('MP2/aug-cc-pvtz', properties = ['dipole'])
--------------------------------------------------------------------------

    Molecular point group: c1
  Charge       = 0
  Multiplicity = 1
  Basis Set: AUG-CC-PVTZ
    Blend: AUG-CC-PVTZ
  Basis Set: (AUG-CC-PVTZ AUX)
    Blend: AUG-CC-PVTZ-JKFIT

    Orbital Energies [Eh]
    ---------------------

    Doubly Occupied:

       1A    -20.611492     2A    -20.608858     3A    -15.851104
       4A    -11.316639     5A    -11.257355     6A     -1.588052
       7A     -1.389957     8A     -1.116509     9A     -0.958298
      10A     -0.875715    11A     -0.774328    12A     -0.726026
      13A     -0.713527    14A     -0.627188    15A     -0.589408
      16A     -0.577814    17A     -0.514100    18A     -0.487635
      19A     -0.479055    20A     -0.452476

  @DF-RHF Final Energy:  -282.71640215063775

   => Energetics <=

    Nuclear Repulsion Energy =            181.6798433292964035
    One-Electron Energy =                -745.7614169099514356
    Two-Electron Energy =                 281.3651714300172557
    Total Energy =                       -282.7164021506377480
  Basis Set: (AUG-CC-PVTZ AUX)
    Blend: AUG-CC-PVTZ-RI
    Molecular point group: c1

    Geometry (in Angstrom), charge = 0, multiplicity = 1:

       Center              X                  Y                   Z               Mass
    ------------   -----------------  -----------------  -----------------  -----------------
         O            1.579579776037    -0.631564120253    -0.162718612062    15.994914619570
         O            0.466118776037     1.263146879747     0.031172387938    15.994914619570
         N            0.535052776037     0.024746879747    -0.026112612062    14.003074004430
         C           -0.700961823963    -0.771338320253     0.373570387938    12.000000000000
         C           -1.964799223963     0.065258879747    -0.160023612062    12.000000000000
         H           -0.615799223963    -1.613794120253    -0.548697612062     1.007825032230
         H           -0.709764223963    -1.139546120253     1.152591387938     1.007825032230
         H           -2.044089223963     0.900495879747     0.535231387938     1.007825032230
         H           -1.941422223963     0.461552879747    -1.176771612062     1.007825032230
         H           -2.849096223963    -0.569060120253    -0.054466612062     1.007825032230

  Basis Set: AUG-CC-PVTZ
    Blend: AUG-CC-PVTZ
  Basis Set: (AUG-CC-PVTZ AUX)
    Blend: AUG-CC-PVTZ-JKFIT
	 Reference Energy          =    -282.7164021506377480 [Eh]
	 Singles Energy            =      -0.0000000000000000 [Eh]
	 Same-Spin Energy          =      -0.2816409569045367 [Eh]
	 Opposite-Spin Energy      =      -0.8731778488101802 [Eh]
	 Correlation Energy        =      -1.1548188057147168 [Eh]
	 Total Energy              =    -283.8712209563524880 [Eh]

	 ================> DF-SCS-MP2 Energies <==================
	-----------------------------------------------------------
	 SCS Same-Spin Scale       =       0.3333333333333333 [-]
	 SCS Opposite-Spin Scale   =       1.2000000000000000 [-]
	 SCS Same-Spin Energy      =      -0.0938803189681789 [Eh]
	 SCS Opposite-Spin Energy  =      -1.0478134185722163 [Eh]
	 SCS Correlation Energy    =      -1.1416937375403953 [Eh]
	 SCS Total Energy          =    -283.8580958881781271 [Eh]
	-----------------------------------------------------------

  Dipole Moment: [D]
     X:    -3.1105      Y:    -1.4920      Z:     0.4920     Total:     3.4848

*** Psi4 exiting successfully. Buy a developer a beer!
