                               Psi4 1.3.2 release

  ==> Input File <==

--------------------------------------------------------------------------
#psi4
#
memory 32 gb

molecule  {
0 1
  O        1.6853730    -0.6083350    -0.1243790
  O        0.5719120     1.2863760     0.0695120
  N        0.6408460     0.0479760     0.0122270
  C       -0.6014335    -0.7467166     0.3623236
  C       -1.8590060     0.0884880    -0.1216840
  H       -0.5100060    -1.5905650    -0.5103580
  H       -0.6039710    -1.1163170     1.1909310
  H       -1.9382960     0.9237250     0.5735710
  H       -1.8356290     0.4847820    -1.1384320
  H       -2.7433030    -0.5458310    -0.0161270
units angstrom
no_reorient  #important for SAPT in psi4, default
symmetry c1  #important for SAPT in psi4, default
}

set PROPERTIES_ORIGIN ["COM"]
properties('MP2/aug-cc-pvtz', properties = ['dipole'])
--------------------------------------------------------------------------

    Molecular point group: c1
  Charge       = 0
  Multiplicity = 1
  Basis Set: AUG-CC-PVTZ
    Blend: AUG-CC-PVTZ
  Basis Set: (AUG-CC-PVTZ AUX)
    Blend: AUG-CC-PVTZ-JKFIT

    Orbital Energies [Eh]
    ---------------------

    Doubly Occupied:

       1A    -20.611125     2A    -20.608478     3A    -15.850325
       4A    -11.315202     5A    -11.255310     6A     -1.588159
       7A     -1.389765     8A     -1.117867     9A     -0.960585
      10A     -0.863909    11A     -0.769508    12A     -0.726856
      13A     -0.715083    14A     -0.629995    15A     -0.585951
      16A     -0.578424    17A     -0.518691    18A     -0.490613
      19A     -0.483044    20A     -0.452531

  @DF-RHF Final Energy:  -282.75168854849670

   => Energetics <=

    Nuclear Repulsion Energy =            181.8790738747653677
    One-Electron Energy =                -746.2386822624653178
    Two-Electron Energy =                 281.6079198392032481
    Total Energy =                       -282.7516885484967020
  Basis Set: (AUG-CC-PVTZ AUX)
    Blend: AUG-CC-PVTZ-RI
    Molecular point group: c1

    Geometry (in Angstrom), charge = 0, multiplicity = 1:

       Center              X                  Y                   Z               Mass
    ------------   -----------------  -----------------  -----------------  -----------------
         O            1.580581732156    -0.631786841141    -0.154788174719    15.994914619570
         O            0.467120732156     1.262924158859     0.039102825281    15.994914619570
         N            0.536054732156     0.024524158859    -0.018182174719    14.003074004430
         C           -0.706224767844    -0.770168441141     0.331914425281    12.000000000000
         C           -1.963797267844     0.065036158859    -0.152093174719    12.000000000000
         H           -0.614797267844    -1.614016841141    -0.540767174719     1.007825032230
         H           -0.708762267844    -1.139768841141     1.160521825281     1.007825032230
         H           -2.043087267844     0.900273158859     0.543161825281     1.007825032230
         H           -1.940420267844     0.461330158859    -1.168841174719     1.007825032230
         H           -2.848094267844    -0.569282841141    -0.046536174719     1.007825032230

  Basis Set: AUG-CC-PVTZ
    Blend: AUG-CC-PVTZ
  Basis Set: (AUG-CC-PVTZ AUX)
    Blend: AUG-CC-PVTZ-JKFIT
	 Reference Energy          =    -282.7516885484967020 [Eh]
	 Singles Energy            =      -0.0000000000000000 [Eh]
	 Same-Spin Energy          =      -0.2813088590079232 [Eh]
	 Opposite-Spin Energy      =      -0.8716525202403907 [Eh]
	 Correlation Energy        =      -1.1529613792483140 [Eh]
	 Total Energy              =    -283.9046499277450266 [Eh]

	 ================> DF-SCS-MP2 Energies <==================
	-----------------------------------------------------------
	 SCS Same-Spin Scale       =       0.3333333333333333 [-]
	 SCS Opposite-Spin Scale   =       1.2000000000000000 [-]
	 SCS Same-Spin Energy      =      -0.0937696196693077 [Eh]
	 SCS Opposite-Spin Energy  =      -1.0459830242884689 [Eh]
	 SCS Correlation Energy    =      -1.1397526439577765 [Eh]
	 SCS Total Energy          =    -283.8914411924544652 [Eh]
	-----------------------------------------------------------

  Dipole Moment: [D]
     X:    -3.1454      Y:    -1.5265      Z:     0.4622     Total:     3.5266

*** Psi4 exiting successfully. Buy a developer a beer!
