                               Psi4 1.3.2 release

  ==> Input File <==

--------------------------------------------------------------------------
#psi4
#
memory 32 gb

molecule  {
0 1
  O        1.6853730    -0.6083350    -0.1243790
  O        0.5719120     1.2863760     0.0695120
  N        0.6408460     0.0479760     0.0122270
  C       -0.6139633    -0.7439313     0.2631508
  C       -1.8590060     0.0884880    -0.1216840
  H       -0.5100060    -1.5905650    -0.5103580
  H       -0.6039710    -1.1163170     1.1909310
  H       -1.9382960     0.9237250     0.5735710
  H       -1.8356290     0.4847820    -1.1384320
  H       -2.7433030    -0.5458310    -0.0161270
units angstrom
no_reorient  #important for SAPT in psi4, default
symmetry c1  #important for SAPT in psi4, default
}

set PROPERTIES_ORIGIN ["COM"]
properties('MP2/aug-cc-pvtz', properties = ['dipole'])
--------------------------------------------------------------------------

    Molecular point group: c1
  Charge       = 0
  Multiplicity = 1
  Basis Set: AUG-CC-PVTZ
    Blend: AUG-CC-PVTZ
  Basis Set: (AUG-CC-PVTZ AUX)
    Blend: AUG-CC-PVTZ-JKFIT

    Orbital Energies [Eh]
    ---------------------

    Doubly Occupied:

       1A    -20.610537     2A    -20.607757     3A    -15.849436
       4A    -11.314079     5A    -11.252222     6A     -1.588287
       7A     -1.389454     8A     -1.121096     9A     -0.965108
      10A     -0.847616    11A     -0.758224    12A     -0.729544
      13A     -0.718084    14A     -0.633124    15A     -0.586123
      16A     -0.570945    17A     -0.531632    18A     -0.494693
      19A     -0.486790    20A     -0.452604

  @DF-RHF Final Energy:  -282.79390340593227

   => Energetics <=

    Nuclear Repulsion Energy =            182.2337550805910666
    One-Electron Energy =                -747.0406091516159677
    Two-Electron Energy =                 282.0129506650926032
    Total Energy =                       -282.7939034059322694
  Basis Set: (AUG-CC-PVTZ AUX)
    Blend: AUG-CC-PVTZ-RI
    Molecular point group: c1

    Geometry (in Angstrom), charge = 0, multiplicity = 1:

       Center              X                  Y                   Z               Mass
    ------------   -----------------  -----------------  -----------------  -----------------
         O            1.582585644395    -0.632232298910    -0.138927300032    15.994914619570
         O            0.469124644395     1.262478701090     0.054963699968    15.994914619570
         N            0.538058644395     0.024078701090    -0.002321300032    14.003074004430
         C           -0.716750655605    -0.767828598910     0.248602499968    12.000000000000
         C           -1.961793355605     0.064590701090    -0.136232300032    12.000000000000
         H           -0.612793355605    -1.614462298910    -0.524906300032     1.007825032230
         H           -0.706758355605    -1.140214298910     1.176382699968     1.007825032230
         H           -2.041083355605     0.899827701090     0.559022699968     1.007825032230
         H           -1.938416355605     0.460884701090    -1.152980300032     1.007825032230
         H           -2.846090355605    -0.569728298910    -0.030675300032     1.007825032230

  Basis Set: AUG-CC-PVTZ
    Blend: AUG-CC-PVTZ
  Basis Set: (AUG-CC-PVTZ AUX)
    Blend: AUG-CC-PVTZ-JKFIT
	 Reference Energy          =    -282.7939034059322694 [Eh]
	 Singles Energy            =      -0.0000000000000000 [Eh]
	 Same-Spin Energy          =      -0.2809744366176455 [Eh]
	 Opposite-Spin Energy      =      -0.8696803129931636 [Eh]
	 Correlation Energy        =      -1.1506547496108093 [Eh]
	 Total Energy              =    -283.9445581555430635 [Eh]

	 ================> DF-SCS-MP2 Energies <==================
	-----------------------------------------------------------
	 SCS Same-Spin Scale       =       0.3333333333333333 [-]
	 SCS Opposite-Spin Scale   =       1.2000000000000000 [-]
	 SCS Same-Spin Energy      =      -0.0936581455392152 [Eh]
	 SCS Opposite-Spin Energy  =      -1.0436163755917962 [Eh]
	 SCS Correlation Energy    =      -1.1372745211310114 [Eh]
	 SCS Total Energy          =    -283.9311779270632883 [Eh]
	-----------------------------------------------------------

  Dipole Moment: [D]
     X:    -3.2098      Y:    -1.5750      Z:     0.3858     Total:     3.5961

*** Psi4 exiting successfully. Buy a developer a beer!
