                               Psi4 1.3.2 release

  ==> Input File <==

--------------------------------------------------------------------------
#psi4
#
memory 32 gb

molecule  {
0 1
  O        1.6853730    -0.6083350    -0.1243790
  O        0.5719120     1.2863760     0.0695120
  N        0.6408460     0.0479760     0.0122270
  C       -0.5889038    -0.7495019     0.4614965
  C       -1.8590060     0.0884880    -0.1216840
  H       -0.5100060    -1.5905650    -0.5103580
  H       -0.6039710    -1.1163170     1.1909310
  H       -1.9382960     0.9237250     0.5735710
  H       -1.8356290     0.4847820    -1.1384320
  H       -2.7433030    -0.5458310    -0.0161270
units angstrom
no_reorient  #important for SAPT in psi4, default
symmetry c1  #important for SAPT in psi4, default
}

set PROPERTIES_ORIGIN ["COM"]
properties('MP2/aug-cc-pvtz', properties = ['dipole'])
--------------------------------------------------------------------------

    Molecular point group: c1
  Charge       = 0
  Multiplicity = 1
  Basis Set: AUG-CC-PVTZ
    Blend: AUG-CC-PVTZ
  Basis Set: (AUG-CC-PVTZ AUX)
    Blend: AUG-CC-PVTZ-JKFIT

    Orbital Energies [Eh]
    ---------------------

    Doubly Occupied:

       1A    -20.611927     2A    -20.609269     3A    -15.852108
       4A    -11.318795     5A    -11.259703     6A     -1.587932
       7A     -1.390186     8A     -1.115505     9A     -0.956066
      10A     -0.889367    11A     -0.778213    12A     -0.725453
      13A     -0.712147    14A     -0.623712    15A     -0.592856
      16A     -0.576514    17A     -0.511192    18A     -0.484672
      19A     -0.473109    20A     -0.452355

  @DF-RHF Final Energy:  -282.66952881796101

   => Energetics <=

    Nuclear Repulsion Energy =            181.4715018570707912
    One-Electron Energy =                -745.2399001598572568
    Two-Electron Energy =                 281.0988694848253999
    Total Energy =                       -282.6695288179610088
  Basis Set: (AUG-CC-PVTZ AUX)
    Blend: AUG-CC-PVTZ-RI
    Molecular point group: c1

    Geometry (in Angstrom), charge = 0, multiplicity = 1:

       Center              X                  Y                   Z               Mass
    ------------   -----------------  -----------------  -----------------  -----------------
         O            1.578577835911    -0.631341383371    -0.170649065398    15.994914619570
         O            0.465116835911     1.263369616629     0.023241934602    15.994914619570
         N            0.534050835911     0.024969616629    -0.034043065398    14.003074004430
         C           -0.695698964089    -0.772508283371     0.415226434602    12.000000000000
         C           -1.965801164089     0.065481616629    -0.167954065398    12.000000000000
         H           -0.616801164089    -1.613571383371    -0.556628065398     1.007825032230
         H           -0.710766164089    -1.139323383371     1.144660934602     1.007825032230
         H           -2.045091164089     0.900718616629     0.527300934602     1.007825032230
         H           -1.942424164089     0.461775616629    -1.184702065398     1.007825032230
         H           -2.850098164089    -0.568837383371    -0.062397065398     1.007825032230

  Basis Set: AUG-CC-PVTZ
    Blend: AUG-CC-PVTZ
  Basis Set: (AUG-CC-PVTZ AUX)
    Blend: AUG-CC-PVTZ-JKFIT
	 Reference Energy          =    -282.6695288179610088 [Eh]
	 Singles Energy            =      -0.0000000000000000 [Eh]
	 Same-Spin Energy          =      -0.2820920689062971 [Eh]
	 Opposite-Spin Energy      =      -0.8750792562517451 [Eh]
	 Correlation Energy        =      -1.1571713251580422 [Eh]
	 Total Energy              =    -283.8267001431190693 [Eh]

	 ================> DF-SCS-MP2 Energies <==================
	-----------------------------------------------------------
	 SCS Same-Spin Scale       =       0.3333333333333333 [-]
	 SCS Opposite-Spin Scale   =       1.2000000000000000 [-]
	 SCS Same-Spin Energy      =      -0.0940306896354324 [Eh]
	 SCS Opposite-Spin Energy  =      -1.0500951075020941 [Eh]
	 SCS Correlation Energy    =      -1.1441257971375265 [Eh]
	 SCS Total Energy          =    -283.8136546150985282 [Eh]
	-----------------------------------------------------------

  Dipole Moment: [D]
     X:    -3.0729      Y:    -1.4511      Z:     0.5154     Total:     3.4372

*** Psi4 exiting successfully. Buy a developer a beer!
