                               Psi4 1.3.2 release

  ==> Input File <==

--------------------------------------------------------------------------
#psi4
#
memory 32 gb

molecule  {
0 1
  O        1.6853730    -0.6083350    -0.1243790
  O        0.5719120     1.2863760     0.0695120
  N        0.6408460     0.0479760     0.0122270
  C       -0.6202281    -0.7425386     0.2135644
  C       -1.8590060     0.0884880    -0.1216840
  H       -0.5100060    -1.5905650    -0.5103580
  H       -0.6039710    -1.1163170     1.1909310
  H       -1.9382960     0.9237250     0.5735710
  H       -1.8356290     0.4847820    -1.1384320
  H       -2.7433030    -0.5458310    -0.0161270
units angstrom
no_reorient  #important for SAPT in psi4, default
symmetry c1  #important for SAPT in psi4, default
}

set PROPERTIES_ORIGIN ["COM"]
properties('MP2/aug-cc-pvtz', properties = ['dipole'])
--------------------------------------------------------------------------

    Molecular point group: c1
  Charge       = 0
  Multiplicity = 1
  Basis Set: AUG-CC-PVTZ
    Blend: AUG-CC-PVTZ
  Basis Set: (AUG-CC-PVTZ AUX)
    Blend: AUG-CC-PVTZ-JKFIT

    Orbital Energies [Eh]
    ---------------------

    Doubly Occupied:

       1A    -20.610294     2A    -20.607393     3A    -15.849318
       4A    -11.314319     5A    -11.251221     6A     -1.588287
       7A     -1.389317     8A     -1.122780     9A     -0.967254
      10A     -0.843092    11A     -0.753216    12A     -0.731078
      13A     -0.719192    14A     -0.633421    15A     -0.588702
      16A     -0.565490    17A     -0.537156    18A     -0.495622
      19A     -0.487546    20A     -0.452638

  @DF-RHF Final Energy:  -282.80333696070954

   => Energetics <=

    Nuclear Repulsion Energy =            182.3816988733328515
    One-Electron Energy =                -747.3554029847049378
    Two-Electron Energy =                 282.1703671506625142
    Total Energy =                       -282.8033369607095437
  Basis Set: (AUG-CC-PVTZ AUX)
    Blend: AUG-CC-PVTZ-RI
    Molecular point group: c1

    Geometry (in Angstrom), charge = 0, multiplicity = 1:

       Center              X                  Y                   Z               Mass
    ------------   -----------------  -----------------  -----------------  -----------------
         O            1.583587584521    -0.632455035791    -0.130996862689    15.994914619570
         O            0.470126584521     1.262255964209     0.062894137311    15.994914619570
         N            0.539060584521     0.023855964209     0.005609137311    14.003074004430
         C           -0.722013515479    -0.766658635791     0.206946537311    12.000000000000
         C           -1.960791415479     0.064367964209    -0.128301862689    12.000000000000
         H           -0.611791415479    -1.614685035791    -0.516975862689     1.007825032230
         H           -0.705756415479    -1.140437035791     1.184313137311     1.007825032230
         H           -2.040081415479     0.899604964209     0.566953137311     1.007825032230
         H           -1.937414415479     0.460661964209    -1.145049862689     1.007825032230
         H           -2.845088415479    -0.569951035791    -0.022744862689     1.007825032230

  Basis Set: AUG-CC-PVTZ
    Blend: AUG-CC-PVTZ
  Basis Set: (AUG-CC-PVTZ AUX)
    Blend: AUG-CC-PVTZ-JKFIT
	 Reference Energy          =    -282.8033369607095437 [Eh]
	 Singles Energy            =      -0.0000000000000000 [Eh]
	 Same-Spin Energy          =      -0.2809618899824249 [Eh]
	 Opposite-Spin Energy      =      -0.8691948634770563 [Eh]
	 Correlation Energy        =      -1.1501567534594812 [Eh]
	 Total Energy              =    -283.9534937141690421 [Eh]

	 ================> DF-SCS-MP2 Energies <==================
	-----------------------------------------------------------
	 SCS Same-Spin Scale       =       0.3333333333333333 [-]
	 SCS Opposite-Spin Scale   =       1.2000000000000000 [-]
	 SCS Same-Spin Energy      =      -0.0936539633274750 [Eh]
	 SCS Opposite-Spin Energy  =      -1.0430338361724676 [Eh]
	 SCS Correlation Energy    =      -1.1366877994999425 [Eh]
	 SCS Total Energy          =    -283.9400247602094964 [Eh]
	-----------------------------------------------------------

  Dipole Moment: [D]
     X:    -3.2407      Y:    -1.5889      Z:     0.3400     Total:     3.6252

*** Psi4 exiting successfully. Buy a developer a beer!
