                               Psi4 1.3.2 release

  ==> Input File <==

--------------------------------------------------------------------------
#psi4
#
memory 32 gb

molecule  {
0 1
  S       -1.4659670    -0.0143510    -0.1375590
  O       -1.8394920    -0.1365420     1.4591290
  O       -1.9435910     1.2980210    -0.5718830
  O       -1.8964450    -1.2505210    -0.7700040
  C        0.3016450    -0.0021640    -0.0777860
  C        0.9828110    -1.2195380    -0.0166250
  C        0.9713990     1.2224970    -0.0766470
  C        2.3756580    -1.2011840     0.0524460
  C        2.3651700     1.2207630    -0.0118790
  C        3.0655170     0.0141320     0.0587200
  H        0.4448364    -2.1582049    -0.2909957
  H        0.4102460     2.1495350    -0.1499850
  H        2.9234210    -2.1387710     0.0978390
  H        2.9045270     2.1643280    -0.0189110
  H        4.1513520     0.0202670     0.1091490
  H       -2.3021640     0.6943620     1.6969290
units angstrom
no_reorient  #important for SAPT in psi4, default
symmetry c1  #important for SAPT in psi4, default
}

set PROPERTIES_ORIGIN ["COM"]
properties('MP2/aug-cc-pvtz', properties = ['dipole'])
--------------------------------------------------------------------------

    Molecular point group: c1
  Charge       = 0
  Multiplicity = 1
  Basis Set: AUG-CC-PVTZ
    Blend: AUG-CC-PVTZ
  Basis Set: (AUG-CC-PVTZ AUX)
    Blend: AUG-CC-PVTZ-JKFIT

    Orbital Energies [Eh]
    ---------------------

    Doubly Occupied:

       1A    -92.233321     2A    -20.632787     3A    -20.569320
       4A    -20.565113     5A    -11.291906     6A    -11.278223
       7A    -11.277237     8A    -11.272532     9A    -11.266067
      10A    -11.265627    11A     -9.196197    12A     -6.881808
      13A     -6.880554    14A     -6.880300    15A     -1.497349
      16A     -1.383534    17A     -1.356088    18A     -1.189002
      19A     -1.067624    20A     -1.048299    21A     -0.928725
      22A     -0.860212    23A     -0.832219    24A     -0.758951
      25A     -0.734799    26A     -0.695650    27A     -0.684346
      28A     -0.660958    29A     -0.646052    30A     -0.629457
      31A     -0.618674    32A     -0.581496    33A     -0.550474
      34A     -0.540469    35A     -0.526107    36A     -0.520450
      37A     -0.509530    38A     -0.488982    39A     -0.481709
      40A     -0.376533    41A     -0.366391

  @DF-RHF Final Energy:  -852.95249061766958

   => Energetics <=

    Nuclear Repulsion Energy =            633.9310162024045212
    One-Electron Energy =               -2429.7168691678107280
    Two-Electron Energy =                 942.8333623477367382
    Total Energy =                       -852.9524906176695822
  Basis Set: (AUG-CC-PVTZ AUX)
    Blend: AUG-CC-PVTZ-RI
    Molecular point group: c1

    Geometry (in Angstrom), charge = 0, multiplicity = 1:

       Center              X                  Y                   Z               Mass
    ------------   -----------------  -----------------  -----------------  -----------------
         S           -1.413005075917    -0.009719856287    -0.125352344598    31.972071174400
         O           -1.786530075917    -0.131910856287     1.471335655402    15.994914619570
         O           -1.890629075917     1.302652143713    -0.559676344598    15.994914619570
         O           -1.843483075917    -1.245889856287    -0.757797344598    15.994914619570
         C            0.354606924083     0.002467143713    -0.065579344598    12.000000000000
         C            1.035772924083    -1.214906856287    -0.004418344598    12.000000000000
         C            1.024360924083     1.227128143713    -0.064440344598    12.000000000000
         C            2.428619924083    -1.196552856287     0.064652655402    12.000000000000
         C            2.418131924083     1.225394143713     0.000327655402    12.000000000000
         C            3.118478924083     0.018763143713     0.070926655402    12.000000000000
         H            0.497798324083    -2.153573756287    -0.278789044598     1.007825032230
         H            0.463207924083     2.154166143713    -0.137778344598     1.007825032230
         H            2.976382924083    -2.134139856287     0.110045655402     1.007825032230
         H            2.957488924083     2.168959143713    -0.006704344598     1.007825032230
         H            4.204313924083     0.024898143713     0.121355655402     1.007825032230
         H           -2.249202075917     0.698993143713     1.709135655402     1.007825032230

  Basis Set: AUG-CC-PVTZ
    Blend: AUG-CC-PVTZ
  Basis Set: (AUG-CC-PVTZ AUX)
    Blend: AUG-CC-PVTZ-JKFIT
	 Reference Energy          =    -852.9524906176695822 [Eh]
	 Singles Energy            =      -0.0000000000000000 [Eh]
	 Same-Spin Energy          =      -0.5330297207641397 [Eh]
	 Opposite-Spin Energy      =      -1.5545533034783601 [Eh]
	 Correlation Energy        =      -2.0875830242425000 [Eh]
	 Total Energy              =    -855.0400736419120449 [Eh]

	 ================> DF-SCS-MP2 Energies <==================
	-----------------------------------------------------------
	 SCS Same-Spin Scale       =       0.3333333333333333 [-]
	 SCS Opposite-Spin Scale   =       1.2000000000000000 [-]
	 SCS Same-Spin Energy      =      -0.1776765735880466 [Eh]
	 SCS Opposite-Spin Energy  =      -1.8654639641740320 [Eh]
	 SCS Correlation Energy    =      -2.0431405377620786 [Eh]
	 SCS Total Energy          =    -854.9956311554316244 [Eh]
	-----------------------------------------------------------

  Dipole Moment: [D]
     X:     3.7996      Y:     1.0827      Z:     1.8186     Total:     4.3493

*** Psi4 exiting successfully. Buy a developer a beer!
