                               Psi4 1.3.2 release

  ==> Input File <==

--------------------------------------------------------------------------
#psi4
#
memory 32 gb

molecule  {
0 1
  S       -1.4659670    -0.0143510    -0.1375590
  O       -1.8394920    -0.1365420     1.4591290
  O       -1.9435910     1.2980210    -0.5718830
  O       -1.8964450    -1.2505210    -0.7700040
  C        0.3016450    -0.0021640    -0.0777860
  C        0.9828110    -1.2195380    -0.0166250
  C        0.9713990     1.2224970    -0.0766470
  C        2.3756580    -1.2011840     0.0524460
  C        2.3651700     1.2207630    -0.0118790
  C        3.0655170     0.0141320     0.0587200
  H        0.4311260    -2.1548100    -0.0413950
  H        0.4102460     2.1495350    -0.1499850
  H        2.9234210    -2.1387710     0.0978390
  H        2.9045270     2.1643280    -0.0189110
  H        4.1513520     0.0202670     0.1091490
  H       -2.3021640     0.6943620     1.6969290
units angstrom
no_reorient  #important for SAPT in psi4, default
symmetry c1  #important for SAPT in psi4, default
}

set PROPERTIES_ORIGIN ["COM"]
properties('MP2/aug-cc-pvtz', properties = ['dipole'])
--------------------------------------------------------------------------

    Molecular point group: c1
  Charge       = 0
  Multiplicity = 1
  Basis Set: AUG-CC-PVTZ
    Blend: AUG-CC-PVTZ
  Basis Set: (AUG-CC-PVTZ AUX)
    Blend: AUG-CC-PVTZ-JKFIT

    Orbital Energies [Eh]
    ---------------------

    Doubly Occupied:

       1A    -92.233295     2A    -20.632730     3A    -20.569429
       4A    -20.565190     5A    -11.291513     6A    -11.277119
       7A    -11.276524     8A    -11.272497     9A    -11.265552
      10A    -11.265238    11A     -9.196179    12A     -6.881803
      13A     -6.880526    14A     -6.880274    15A     -1.497401
      16A     -1.383591    17A     -1.356111    18A     -1.189032
      19A     -1.067629    20A     -1.048959    21A     -0.928849
      22A     -0.861557    23A     -0.832569    24A     -0.759442
      25A     -0.735706    26A     -0.697508    27A     -0.684367
      28A     -0.661080    29A     -0.646959    30A     -0.629469
      31A     -0.621192    32A     -0.581012    33A     -0.553095
      34A     -0.538345    35A     -0.528852    36A     -0.521060
      37A     -0.509438    38A     -0.489264    39A     -0.481690
      40A     -0.376517    41A     -0.366877

  @DF-RHF Final Energy:  -852.95710893813509

   => Energetics <=

    Nuclear Repulsion Energy =            634.0677183758941737
    One-Electron Energy =               -2429.9787685789419811
    Two-Electron Energy =                 942.9539412649127144
    Total Energy =                       -852.9571089381350930
  Basis Set: (AUG-CC-PVTZ AUX)
    Blend: AUG-CC-PVTZ-RI
    Molecular point group: c1

    Geometry (in Angstrom), charge = 0, multiplicity = 1:

       Center              X                  Y                   Z               Mass
    ------------   -----------------  -----------------  -----------------  -----------------
         S           -1.412917624302    -0.009741510614    -0.126944419528    31.972071174400
         O           -1.786442624302    -0.131932510614     1.469743580472    15.994914619570
         O           -1.890541624302     1.302630489386    -0.561268419528    15.994914619570
         O           -1.843395624302    -1.245911510614    -0.759389419528    15.994914619570
         C            0.354694375698     0.002445489386    -0.067171419528    12.000000000000
         C            1.035860375698    -1.214928510614    -0.006010419528    12.000000000000
         C            1.024448375698     1.227106489386    -0.066032419528    12.000000000000
         C            2.428707375698    -1.196574510614     0.063060580472    12.000000000000
         C            2.418219375698     1.225372489386    -0.001264419528    12.000000000000
         C            3.118566375698     0.018741489386     0.069334580472    12.000000000000
         H            0.484175375698    -2.150200510614    -0.030780419528     1.007825032230
         H            0.463295375698     2.154144489386    -0.139370419528     1.007825032230
         H            2.976470375698    -2.134161510614     0.108453580472     1.007825032230
         H            2.957576375698     2.168937489386    -0.008296419528     1.007825032230
         H            4.204401375698     0.024876489386     0.119763580472     1.007825032230
         H           -2.249114624302     0.698971489386     1.707543580472     1.007825032230

  Basis Set: AUG-CC-PVTZ
    Blend: AUG-CC-PVTZ
  Basis Set: (AUG-CC-PVTZ AUX)
    Blend: AUG-CC-PVTZ-JKFIT
	 Reference Energy          =    -852.9571089381350930 [Eh]
	 Singles Energy            =      -0.0000000000000000 [Eh]
	 Same-Spin Energy          =      -0.5327066635863905 [Eh]
	 Opposite-Spin Energy      =      -1.5539152739111717 [Eh]
	 Correlation Energy        =      -2.0866219374975623 [Eh]
	 Total Energy              =    -855.0437308756326047 [Eh]

	 ================> DF-SCS-MP2 Energies <==================
	-----------------------------------------------------------
	 SCS Same-Spin Scale       =       0.3333333333333333 [-]
	 SCS Opposite-Spin Scale   =       1.2000000000000000 [-]
	 SCS Same-Spin Energy      =      -0.1775688878621302 [Eh]
	 SCS Opposite-Spin Energy  =      -1.8646983286934060 [Eh]
	 SCS Correlation Energy    =      -2.0422672165555360 [Eh]
	 SCS Total Energy          =    -854.9993761546905944 [Eh]
	-----------------------------------------------------------

  Dipole Moment: [D]
     X:     3.7739      Y:     1.0490      Z:     1.9683     Total:     4.3837

*** Psi4 exiting successfully. Buy a developer a beer!
