                               Psi4 1.3.2 release

  ==> Input File <==

--------------------------------------------------------------------------
#psi4
#
memory 32 gb

molecule  {
0 1
  S       -1.4659670    -0.0143510    -0.1375590
  O       -1.8394920    -0.1365420     1.4591290
  O       -1.9435910     1.2980210    -0.5718830
  O       -1.8964450    -1.2505210    -0.7700040
  C        0.3016450    -0.0021640    -0.0777860
  C        0.9828110    -1.2195380    -0.0166250
  C        0.9713990     1.2224970    -0.0766470
  C        2.3756580    -1.2011840     0.0524460
  C        2.3651700     1.2207630    -0.0118790
  C        3.0655170     0.0141320     0.0587200
  H        0.4311260    -2.1548100    -0.0413950
  H        0.4102460     2.1495350    -0.1499850
  H        2.9307380    -2.1419756    -0.0519482
  H        2.9045270     2.1643280    -0.0189110
  H        4.1513520     0.0202670     0.1091490
  H       -2.3021640     0.6943620     1.6969290
units angstrom
no_reorient  #important for SAPT in psi4, default
symmetry c1  #important for SAPT in psi4, default
}

set PROPERTIES_ORIGIN ["COM"]
properties('MP2/aug-cc-pvtz', properties = ['dipole'])
--------------------------------------------------------------------------

    Molecular point group: c1
  Charge       = 0
  Multiplicity = 1
  Basis Set: AUG-CC-PVTZ
    Blend: AUG-CC-PVTZ
  Basis Set: (AUG-CC-PVTZ AUX)
    Blend: AUG-CC-PVTZ-JKFIT

    Orbital Energies [Eh]
    ---------------------

    Doubly Occupied:

       1A    -92.233335     2A    -20.632722     3A    -20.569487
       4A    -20.565232     5A    -11.291592     6A    -11.277344
       7A    -11.276685     8A    -11.272715     9A    -11.266129
      10A    -11.265623    11A     -9.196217    12A     -6.881842
      13A     -6.880564    14A     -6.880310    15A     -1.497430
      16A     -1.383605    17A     -1.356162    18A     -1.189112
      19A     -1.067643    20A     -1.048822    21A     -0.928914
      22A     -0.861136    23A     -0.832341    24A     -0.759101
      25A     -0.735661    26A     -0.697573    27A     -0.684404
      28A     -0.661096    29A     -0.645873    30A     -0.629511
      31A     -0.620591    32A     -0.581141    33A     -0.552505
      34A     -0.539798    35A     -0.527464    36A     -0.521213
      37A     -0.509626    38A     -0.489164    39A     -0.481235
      40A     -0.376585    41A     -0.366811

  @DF-RHF Final Energy:  -852.95566182140556

   => Energetics <=

    Nuclear Repulsion Energy =            634.0245309976944554
    One-Electron Energy =               -2429.8917571278025207
    Two-Electron Energy =                 942.9115643087025092
    Total Energy =                       -852.9556618214055561
  Basis Set: (AUG-CC-PVTZ AUX)
    Blend: AUG-CC-PVTZ-RI
    Molecular point group: c1

    Geometry (in Angstrom), charge = 0, multiplicity = 1:

       Center              X                  Y                   Z               Mass
    ------------   -----------------  -----------------  -----------------  -----------------
         S           -1.412964295695    -0.009721070113    -0.125989003754    31.972071174400
         O           -1.786489295695    -0.131912070113     1.470698996246    15.994914619570
         O           -1.890588295695     1.302650929887    -0.560313003754    15.994914619570
         O           -1.843442295695    -1.245891070113    -0.758434003754    15.994914619570
         C            0.354647704305     0.002465929887    -0.066216003754    12.000000000000
         C            1.035813704305    -1.214908070113    -0.005055003754    12.000000000000
         C            1.024401704305     1.227126929887    -0.065077003754    12.000000000000
         C            2.428660704305    -1.196554070113     0.064015996246    12.000000000000
         C            2.418172704305     1.225392929887    -0.000309003754    12.000000000000
         C            3.118519704305     0.018761929887     0.070289996246    12.000000000000
         H            0.484128704305    -2.150180070113    -0.029825003754     1.007825032230
         H            0.463248704305     2.154164929887    -0.138415003754     1.007825032230
         H            2.983740704305    -2.137345670113    -0.040378203754     1.007825032230
         H            2.957529704305     2.168957929887    -0.007341003754     1.007825032230
         H            4.204354704305     0.024896929887     0.120718996246     1.007825032230
         H           -2.249161295695     0.698991929887     1.708498996246     1.007825032230

  Basis Set: AUG-CC-PVTZ
    Blend: AUG-CC-PVTZ
  Basis Set: (AUG-CC-PVTZ AUX)
    Blend: AUG-CC-PVTZ-JKFIT
	 Reference Energy          =    -852.9556618214055561 [Eh]
	 Singles Energy            =      -0.0000000000000000 [Eh]
	 Same-Spin Energy          =      -0.5327765361153234 [Eh]
	 Opposite-Spin Energy      =      -1.5541026661978439 [Eh]
	 Correlation Energy        =      -2.0868792023131673 [Eh]
	 Total Energy              =    -855.0425410237187407 [Eh]

	 ================> DF-SCS-MP2 Energies <==================
	-----------------------------------------------------------
	 SCS Same-Spin Scale       =       0.3333333333333333 [-]
	 SCS Opposite-Spin Scale   =       1.2000000000000000 [-]
	 SCS Same-Spin Energy      =      -0.1775921787051078 [Eh]
	 SCS Opposite-Spin Energy  =      -1.8649231994374125 [Eh]
	 SCS Correlation Energy    =      -2.0425153781425203 [Eh]
	 SCS Total Energy          =    -854.9981771995480813 [Eh]
	-----------------------------------------------------------

  Dipole Moment: [D]
     X:     3.7704      Y:     1.0623      Z:     1.8756     Total:     4.3431

*** Psi4 exiting successfully. Buy a developer a beer!
