                               Psi4 1.3.2 release

  ==> Input File <==

--------------------------------------------------------------------------
#psi4
#
memory 32 gb

molecule  {
0 1
  S       -1.4659670    -0.0143510    -0.1375590
  O       -1.8394920    -0.1365420     1.4591290
  O       -1.9435910     1.2980210    -0.5718830
  O       -1.8964450    -1.2505210    -0.7700040
  C        0.3016450    -0.0021640    -0.0777860
  C        0.9828110    -1.2195380    -0.0166250
  C        0.9713990     1.2224970    -0.0766470
  C        2.3756580    -1.2011840     0.0524460
  C        2.3651700     1.2207630    -0.0118790
  C        3.0655170     0.0141320     0.0587200
  H        0.4420943    -2.1575259    -0.2410755
  H        0.4102460     2.1495350    -0.1499850
  H        2.9234210    -2.1387710     0.0978390
  H        2.9045270     2.1643280    -0.0189110
  H        4.1513520     0.0202670     0.1091490
  H       -2.3021640     0.6943620     1.6969290
units angstrom
no_reorient  #important for SAPT in psi4, default
symmetry c1  #important for SAPT in psi4, default
}

set PROPERTIES_ORIGIN ["COM"]
properties('MP2/aug-cc-pvtz', properties = ['dipole'])
--------------------------------------------------------------------------

    Molecular point group: c1
  Charge       = 0
  Multiplicity = 1
  Basis Set: AUG-CC-PVTZ
    Blend: AUG-CC-PVTZ
  Basis Set: (AUG-CC-PVTZ AUX)
    Blend: AUG-CC-PVTZ-JKFIT

    Orbital Energies [Eh]
    ---------------------

    Doubly Occupied:

       1A    -92.233331     2A    -20.632778     3A    -20.569349
       4A    -20.565159     5A    -11.291782     6A    -11.277550
       7A    -11.277190     8A    -11.272509     9A    -11.265893
      10A    -11.265483    11A     -9.196207    12A     -6.881821
      13A     -6.880563    14A     -6.880310    15A     -1.497373
      16A     -1.383556    17A     -1.356113    18A     -1.189001
      19A     -1.067616    20A     -1.048506    21A     -0.928775
      22A     -0.860634    23A     -0.832314    24A     -0.759158
      25A     -0.735048    26A     -0.696228    27A     -0.684388
      28A     -0.660983    29A     -0.646361    30A     -0.629467
      31A     -0.619551    32A     -0.581420    33A     -0.550957
      34A     -0.539912    35A     -0.527027    36A     -0.520803
      37A     -0.509545    38A     -0.489081    39A     -0.481713
      40A     -0.376522    41A     -0.366548

  @DF-RHF Final Energy:  -852.95420562883294

   => Energetics <=

    Nuclear Repulsion Energy =            633.9771914669030366
    One-Electron Energy =               -2429.8057412548610046
    Two-Electron Energy =                 942.8743441591249166
    Total Energy =                       -852.9542056288329377
  Basis Set: (AUG-CC-PVTZ AUX)
    Blend: AUG-CC-PVTZ-RI
    Molecular point group: c1

    Geometry (in Angstrom), charge = 0, multiplicity = 1:

       Center              X                  Y                   Z               Mass
    ------------   -----------------  -----------------  -----------------  -----------------
         S           -1.412987585466    -0.009724187280    -0.125670759967    31.972071174400
         O           -1.786512585466    -0.131915187280     1.471017240033    15.994914619570
         O           -1.890611585466     1.302647812720    -0.559994759967    15.994914619570
         O           -1.843465585466    -1.245894187280    -0.758115759967    15.994914619570
         C            0.354624414534     0.002462812720    -0.065897759967    12.000000000000
         C            1.035790414534    -1.214911187280    -0.004736759967    12.000000000000
         C            1.024378414534     1.227123812720    -0.064758759967    12.000000000000
         C            2.428637414534    -1.196557187280     0.064334240033    12.000000000000
         C            2.418149414534     1.225389812720     0.000009240033    12.000000000000
         C            3.118496414534     0.018758812720     0.070608240033    12.000000000000
         H            0.495073714534    -2.152899087280    -0.229187259967     1.007825032230
         H            0.463225414534     2.154161812720    -0.138096759967     1.007825032230
         H            2.976400414534    -2.134144187280     0.109727240033     1.007825032230
         H            2.957506414534     2.168954812720    -0.007022759967     1.007825032230
         H            4.204331414534     0.024893812720     0.121037240033     1.007825032230
         H           -2.249184585466     0.698988812720     1.708817240033     1.007825032230

  Basis Set: AUG-CC-PVTZ
    Blend: AUG-CC-PVTZ
  Basis Set: (AUG-CC-PVTZ AUX)
    Blend: AUG-CC-PVTZ-JKFIT
	 Reference Energy          =    -852.9542056288329377 [Eh]
	 Singles Energy            =      -0.0000000000000000 [Eh]
	 Same-Spin Energy          =      -0.5329207606865959 [Eh]
	 Opposite-Spin Energy      =      -1.5543201818963510 [Eh]
	 Correlation Energy        =      -2.0872409425829468 [Eh]
	 Total Energy              =    -855.0414465714159178 [Eh]

	 ================> DF-SCS-MP2 Energies <==================
	-----------------------------------------------------------
	 SCS Same-Spin Scale       =       0.3333333333333333 [-]
	 SCS Opposite-Spin Scale   =       1.2000000000000000 [-]
	 SCS Same-Spin Energy      =      -0.1776402535621986 [Eh]
	 SCS Opposite-Spin Energy  =      -1.8651842182756211 [Eh]
	 SCS Correlation Energy    =      -2.0428244718378199 [Eh]
	 SCS Total Energy          =    -854.9970301006707132 [Eh]
	-----------------------------------------------------------

  Dipole Moment: [D]
     X:     3.7916      Y:     1.0715      Z:     1.8484     Total:     4.3521

*** Psi4 exiting successfully. Buy a developer a beer!
