                               Psi4 1.3.2 release

  ==> Input File <==

--------------------------------------------------------------------------
#psi4
#
memory 32 gb

molecule  {
0 1
  S       -1.4659670    -0.0143510    -0.1375590
  O       -1.8394920    -0.1365420     1.4591290
  O       -1.9435910     1.2980210    -0.5718830
  O       -1.8964450    -1.2505210    -0.7700040
  C        0.3016450    -0.0021640    -0.0777860
  C        0.9828110    -1.2195380    -0.0166250
  C        0.9713990     1.2224970    -0.0766470
  C        2.3756580    -1.2011840     0.0524460
  C        2.3651700     1.2207630    -0.0118790
  C        3.0655170     0.0141320     0.0587200
  H        0.4311260    -2.1548100    -0.0413950
  H        0.4102460     2.1495350    -0.1499850
  H        2.9331770    -2.1430438    -0.1018772
  H        2.9045270     2.1643280    -0.0189110
  H        4.1513520     0.0202670     0.1091490
  H       -2.3021640     0.6943620     1.6969290
units angstrom
no_reorient  #important for SAPT in psi4, default
symmetry c1  #important for SAPT in psi4, default
}

set PROPERTIES_ORIGIN ["COM"]
properties('MP2/aug-cc-pvtz', properties = ['dipole'])
--------------------------------------------------------------------------

    Molecular point group: c1
  Charge       = 0
  Multiplicity = 1
  Basis Set: AUG-CC-PVTZ
    Blend: AUG-CC-PVTZ
  Basis Set: (AUG-CC-PVTZ AUX)
    Blend: AUG-CC-PVTZ-JKFIT

    Orbital Energies [Eh]
    ---------------------

    Doubly Occupied:

       1A    -92.233373     2A    -20.632743     3A    -20.569533
       4A    -20.565270     5A    -11.291653     6A    -11.277507
       7A    -11.276821     8A    -11.272863     9A    -11.266799
      10A    -11.265687    11A     -9.196255    12A     -6.881880
      13A     -6.880602    14A     -6.880348    15A     -1.497465
      16A     -1.383633    17A     -1.356204    18A     -1.189173
      19A     -1.067656    20A     -1.048722    21A     -0.928971
      22A     -0.860838    23A     -0.832185    24A     -0.758838
      25A     -0.735646    26A     -0.697626    27A     -0.684444
      28A     -0.661129    29A     -0.645110    30A     -0.629550
      31A     -0.620086    32A     -0.581211    33A     -0.552363
      34A     -0.540469    35A     -0.526748    36A     -0.521026
      37A     -0.509701    38A     -0.489150    39A     -0.481066
      40A     -0.376607    41A     -0.366746

  @DF-RHF Final Energy:  -852.95446835326584

   => Energetics <=

    Nuclear Repulsion Energy =            633.9931577285458388
    One-Electron Energy =               -2429.8278576313878148
    Two-Electron Energy =                 942.8802315495761377
    Total Energy =                       -852.9544683532658382
  Basis Set: (AUG-CC-PVTZ AUX)
    Blend: AUG-CC-PVTZ-RI
    Molecular point group: c1

    Geometry (in Angstrom), charge = 0, multiplicity = 1:

       Center              X                  Y                   Z               Mass
    ------------   -----------------  -----------------  -----------------  -----------------
         S           -1.412979852826    -0.009714256613    -0.125670532255    31.972071174400
         O           -1.786504852826    -0.131905256613     1.471017467745    15.994914619570
         O           -1.890603852826     1.302657743387    -0.559994532255    15.994914619570
         O           -1.843457852826    -1.245884256613    -0.758115532255    15.994914619570
         C            0.354632147174     0.002472743387    -0.065897532255    12.000000000000
         C            1.035798147174    -1.214901256613    -0.004736532255    12.000000000000
         C            1.024386147174     1.227133743387    -0.064758532255    12.000000000000
         C            2.428645147174    -1.196547256613     0.064334467745    12.000000000000
         C            2.418157147174     1.225399743387     0.000009467745    12.000000000000
         C            3.118504147174     0.018768743387     0.070608467745    12.000000000000
         H            0.484113147174    -2.150173256613    -0.029506532255     1.007825032230
         H            0.463233147174     2.154171743387    -0.138096532255     1.007825032230
         H            2.986164147174    -2.138407056613    -0.089988732255     1.007825032230
         H            2.957514147174     2.168964743387    -0.007022532255     1.007825032230
         H            4.204339147174     0.024903743387     0.121037467745     1.007825032230
         H           -2.249176852826     0.698998743387     1.708817467745     1.007825032230

  Basis Set: AUG-CC-PVTZ
    Blend: AUG-CC-PVTZ
  Basis Set: (AUG-CC-PVTZ AUX)
    Blend: AUG-CC-PVTZ-JKFIT
	 Reference Energy          =    -852.9544683532658382 [Eh]
	 Singles Energy            =      -0.0000000000000000 [Eh]
	 Same-Spin Energy          =      -0.5328309382305284 [Eh]
	 Opposite-Spin Energy      =      -1.5542506879490543 [Eh]
	 Correlation Energy        =      -2.0870816261795828 [Eh]
	 Total Energy              =    -855.0415499794454490 [Eh]

	 ================> DF-SCS-MP2 Energies <==================
	-----------------------------------------------------------
	 SCS Same-Spin Scale       =       0.3333333333333333 [-]
	 SCS Opposite-Spin Scale   =       1.2000000000000000 [-]
	 SCS Same-Spin Energy      =      -0.1776103127435095 [Eh]
	 SCS Opposite-Spin Energy  =      -1.8651008255388650 [Eh]
	 SCS Correlation Energy    =      -2.0427111382823746 [Eh]
	 SCS Total Energy          =    -854.9971794915481951 [Eh]
	-----------------------------------------------------------

  Dipole Moment: [D]
     X:     3.7649      Y:     1.0728      Z:     1.8448     Total:     4.3277

*** Psi4 exiting successfully. Buy a developer a beer!
