                               Psi4 1.3.2 release

  ==> Input File <==

--------------------------------------------------------------------------
#psi4
#
memory 32 gb

molecule  {
0 1
  S       -1.4659670    -0.0143510    -0.1375590
  O       -1.8394920    -0.1365420     1.4591290
  O       -1.9435910     1.2980210    -0.5718830
  O       -1.8964450    -1.2505210    -0.7700040
  C        0.3016450    -0.0021640    -0.0777860
  C        0.9828110    -1.2195380    -0.0166250
  C        0.9713990     1.2224970    -0.0766470
  C        2.3756580    -1.2011840     0.0524460
  C        2.3651700     1.2207630    -0.0118790
  C        3.0655170     0.0141320     0.0587200
  H        0.4311260    -2.1548100    -0.0413950
  H        0.4102460     2.1495350    -0.1499850
  H        2.9380550    -2.1451802    -0.2017353
  H        2.9045270     2.1643280    -0.0189110
  H        4.1513520     0.0202670     0.1091490
  H       -2.3021640     0.6943620     1.6969290
units angstrom
no_reorient  #important for SAPT in psi4, default
symmetry c1  #important for SAPT in psi4, default
}

set PROPERTIES_ORIGIN ["COM"]
properties('MP2/aug-cc-pvtz', properties = ['dipole'])
--------------------------------------------------------------------------

    Molecular point group: c1
  Charge       = 0
  Multiplicity = 1
  Basis Set: AUG-CC-PVTZ
    Blend: AUG-CC-PVTZ
  Basis Set: (AUG-CC-PVTZ AUX)
    Blend: AUG-CC-PVTZ-JKFIT

    Orbital Energies [Eh]
    ---------------------

    Doubly Occupied:

       1A    -92.233490     2A    -20.632821     3A    -20.569667
       4A    -20.565382     5A    -11.291829     6A    -11.277961
       7A    -11.277222     8A    -11.273281     9A    -11.268670
      10A    -11.265861    11A     -9.196370    12A     -6.881996
      13A     -6.880719    14A     -6.880462    15A     -1.497572
      16A     -1.383726    17A     -1.356327    18A     -1.189353
      19A     -1.067710    20A     -1.048464    21A     -0.929137
      22A     -0.860096    23A     -0.831777    24A     -0.758151
      25A     -0.735626    26A     -0.697781    27A     -0.684568
      28A     -0.661250    29A     -0.643209    30A     -0.629666
      31A     -0.618495    32A     -0.581393    33A     -0.552167
      34A     -0.541871    35A     -0.525418    36A     -0.520016
      37A     -0.509876    38A     -0.489147    39A     -0.480681
      40A     -0.376665    41A     -0.366559

  @DF-RHF Final Energy:  -852.95079522765604

   => Energetics <=

    Nuclear Repulsion Energy =            633.9071923096988712
    One-Electron Energy =               -2429.6511006178002390
    Two-Electron Energy =                 942.7931130804452096
    Total Energy =                       -852.9507952276560445
  Basis Set: (AUG-CC-PVTZ AUX)
    Blend: AUG-CC-PVTZ-RI
    Molecular point group: c1

    Geometry (in Angstrom), charge = 0, multiplicity = 1:

       Center              X                  Y                   Z               Mass
    ------------   -----------------  -----------------  -----------------  -----------------
         S           -1.413010967088    -0.009700629613    -0.125033588618    31.972071174400
         O           -1.786535967088    -0.131891629613     1.471654411382    15.994914619570
         O           -1.890634967088     1.302671370387    -0.559357588618    15.994914619570
         O           -1.843488967088    -1.245870629613    -0.757478588618    15.994914619570
         C            0.354601032912     0.002486370387    -0.065260588618    12.000000000000
         C            1.035767032912    -1.214887629613    -0.004099588618    12.000000000000
         C            1.024355032912     1.227147370387    -0.064121588618    12.000000000000
         C            2.428614032912    -1.196533629613     0.064971411382    12.000000000000
         C            2.418126032912     1.225413370387     0.000646411382    12.000000000000
         C            3.118473032912     0.018782370387     0.071245411382    12.000000000000
         H            0.484082032912    -2.150159629613    -0.028869588618     1.007825032230
         H            0.463202032912     2.154185370387    -0.137459588618     1.007825032230
         H            2.991011032912    -2.140529829613    -0.189209888618     1.007825032230
         H            2.957483032912     2.168978370387    -0.006385588618     1.007825032230
         H            4.204308032912     0.024917370387     0.121674411382     1.007825032230
         H           -2.249207967088     0.699012370387     1.709454411382     1.007825032230

  Basis Set: AUG-CC-PVTZ
    Blend: AUG-CC-PVTZ
  Basis Set: (AUG-CC-PVTZ AUX)
    Blend: AUG-CC-PVTZ-JKFIT
	 Reference Energy          =    -852.9507952276560445 [Eh]
	 Singles Energy            =      -0.0000000000000000 [Eh]
	 Same-Spin Energy          =      -0.5329830431757171 [Eh]
	 Opposite-Spin Energy      =      -1.5546841397929938 [Eh]
	 Correlation Energy        =      -2.0876671829687110 [Eh]
	 Total Energy              =    -855.0384624106247884 [Eh]

	 ================> DF-SCS-MP2 Energies <==================
	-----------------------------------------------------------
	 SCS Same-Spin Scale       =       0.3333333333333333 [-]
	 SCS Opposite-Spin Scale   =       1.2000000000000000 [-]
	 SCS Same-Spin Energy      =      -0.1776610143919057 [Eh]
	 SCS Opposite-Spin Energy  =      -1.8656209677515925 [Eh]
	 SCS Correlation Energy    =      -2.0432819821434980 [Eh]
	 SCS Total Energy          =    -854.9940772097995705 [Eh]
	-----------------------------------------------------------

  Dipole Moment: [D]
     X:     3.7476      Y:     1.1025      Z:     1.7841     Total:     4.2946

*** Psi4 exiting successfully. Buy a developer a beer!
