                               Psi4 1.3.2 release

  ==> Input File <==

--------------------------------------------------------------------------
#psi4
#
memory 32 gb

molecule  {
0 1
  S       -1.4659670    -0.0143510    -0.1375590
  O       -1.8394920    -0.1365420     1.4591290
  O       -1.9435910     1.2980210    -0.5718830
  O       -1.8964450    -1.2505210    -0.7700040
  C        0.3016450    -0.0021640    -0.0777860
  C        0.9828110    -1.2195380    -0.0166250
  C        0.9713990     1.2224970    -0.0766470
  C        2.3756580    -1.2011840     0.0524460
  C        2.3651700     1.2207630    -0.0118790
  C        3.0655170     0.0141320     0.0587200
  H        0.4311260    -2.1548100    -0.0413950
  H        0.4102460     2.1495350    -0.1499850
  H        2.9234210    -2.1387710     0.0978390
  H        2.9045270     2.1643280    -0.0189110
  H        4.1663440     0.0123769    -0.1903723
  H       -2.3021640     0.6943620     1.6969290
units angstrom
no_reorient  #important for SAPT in psi4, default
symmetry c1  #important for SAPT in psi4, default
}

set PROPERTIES_ORIGIN ["COM"]
properties('MP2/aug-cc-pvtz', properties = ['dipole'])
--------------------------------------------------------------------------

    Molecular point group: c1
  Charge       = 0
  Multiplicity = 1
  Basis Set: AUG-CC-PVTZ
    Blend: AUG-CC-PVTZ
  Basis Set: (AUG-CC-PVTZ AUX)
    Blend: AUG-CC-PVTZ-JKFIT

    Orbital Energies [Eh]
    ---------------------

    Doubly Occupied:

       1A    -92.233680     2A    -20.633124     3A    -20.569723
       4A    -20.565478     5A    -11.292232     6A    -11.277358
       7A    -11.276766     8A    -11.276075     9A    -11.266259
      10A    -11.265966    11A     -9.196554    12A     -6.882174
      13A     -6.880905    14A     -6.880651    15A     -1.497730
      16A     -1.383920    17A     -1.356404    18A     -1.189318
      19A     -1.066984    20A     -1.049367    21A     -0.927854
      22A     -0.861884    23A     -0.831372    24A     -0.759639
      25A     -0.734927    26A     -0.693487    27A     -0.683411
      28A     -0.661364    29A     -0.646938    30A     -0.629483
      31A     -0.621533    32A     -0.579018    33A     -0.556647
      34A     -0.533862    35A     -0.529222    36A     -0.517964
      37A     -0.509508    38A     -0.489871    39A     -0.482667
      40A     -0.375677    41A     -0.367211

  @DF-RHF Final Energy:  -852.95062218386499

   => Energetics <=

    Nuclear Repulsion Energy =            633.9086154474148316
    One-Electron Energy =               -2429.6500567300286093
    Two-Electron Energy =                 942.7908190987487842
    Total Energy =                       -852.9506221838649935
  Basis Set: (AUG-CC-PVTZ AUX)
    Blend: AUG-CC-PVTZ-RI
    Molecular point group: c1

    Geometry (in Angstrom), charge = 0, multiplicity = 1:

       Center              X                  Y                   Z               Mass
    ------------   -----------------  -----------------  -----------------  -----------------
         S           -1.413013250586    -0.009691183710    -0.125033926678    31.972071174400
         O           -1.786538250586    -0.131882183710     1.471654073322    15.994914619570
         O           -1.890637250586     1.302680816290    -0.559357926678    15.994914619570
         O           -1.843491250586    -1.245861183710    -0.757478926678    15.994914619570
         C            0.354598749414     0.002495816290    -0.065260926678    12.000000000000
         C            1.035764749414    -1.214878183710    -0.004099926678    12.000000000000
         C            1.024352749414     1.227156816290    -0.064121926678    12.000000000000
         C            2.428611749414    -1.196524183710     0.064971073322    12.000000000000
         C            2.418123749414     1.225422816290     0.000646073322    12.000000000000
         C            3.118470749414     0.018791816290     0.071245073322    12.000000000000
         H            0.484079749414    -2.150150183710    -0.028869926678     1.007825032230
         H            0.463199749414     2.154194816290    -0.137459926678     1.007825032230
         H            2.976374749414    -2.134111183710     0.110364073322     1.007825032230
         H            2.957480749414     2.168987816290    -0.006385926678     1.007825032230
         H            4.219297749414     0.017036716290    -0.177847226678     1.007825032230
         H           -2.249210250586     0.699021816290     1.709454073322     1.007825032230

  Basis Set: AUG-CC-PVTZ
    Blend: AUG-CC-PVTZ
  Basis Set: (AUG-CC-PVTZ AUX)
    Blend: AUG-CC-PVTZ-JKFIT
	 Reference Energy          =    -852.9506221838649935 [Eh]
	 Singles Energy            =      -0.0000000000000000 [Eh]
	 Same-Spin Energy          =      -0.5330472918956111 [Eh]
	 Opposite-Spin Energy      =      -1.5548079752190720 [Eh]
	 Correlation Energy        =      -2.0878552671146831 [Eh]
	 Total Energy              =    -855.0384774509797126 [Eh]

	 ================> DF-SCS-MP2 Energies <==================
	-----------------------------------------------------------
	 SCS Same-Spin Scale       =       0.3333333333333333 [-]
	 SCS Opposite-Spin Scale   =       1.2000000000000000 [-]
	 SCS Same-Spin Energy      =      -0.1776824306318703 [Eh]
	 SCS Opposite-Spin Energy  =      -1.8657695702628863 [Eh]
	 SCS Correlation Energy    =      -2.0434520008947565 [Eh]
	 SCS Total Energy          =    -854.9940741847597110 [Eh]
	-----------------------------------------------------------

  Dipole Moment: [D]
     X:     3.7075      Y:     1.0438      Z:     1.7820     Total:     4.2439

*** Psi4 exiting successfully. Buy a developer a beer!
