                               Psi4 1.3.2 release

  ==> Input File <==

--------------------------------------------------------------------------
#psi4
#
memory 32 gb

molecule  {
0 1
  S       -1.4659670    -0.0143510    -0.1375590
  O       -1.8394920    -0.1365420     1.4591290
  O       -1.9435910     1.2980210    -0.5718830
  O       -1.8964450    -1.2505210    -0.7700040
  C        0.3016450    -0.0021640    -0.0777860
  C        0.9828110    -1.2195380    -0.0166250
  C        0.9713990     1.2224970    -0.0766470
  C        2.3756580    -1.2011840     0.0524460
  C        2.3651700     1.2207630    -0.0118790
  C        3.0655170     0.0141320     0.0587200
  H        0.4311260    -2.1548100    -0.0413950
  H        0.4102460     2.1495350    -0.1499850
  H        2.9234210    -2.1387710     0.0978390
  H        2.9045270     2.1643280    -0.0189110
  H        4.1563493     0.0176370     0.0093086
  H       -2.3021640     0.6943620     1.6969290
units angstrom
no_reorient  #important for SAPT in psi4, default
symmetry c1  #important for SAPT in psi4, default
}

set PROPERTIES_ORIGIN ["COM"]
properties('MP2/aug-cc-pvtz', properties = ['dipole'])
--------------------------------------------------------------------------

    Molecular point group: c1
  Charge       = 0
  Multiplicity = 1
  Basis Set: AUG-CC-PVTZ
    Blend: AUG-CC-PVTZ
  Basis Set: (AUG-CC-PVTZ AUX)
    Blend: AUG-CC-PVTZ-JKFIT

    Orbital Energies [Eh]
    ---------------------

    Doubly Occupied:

       1A    -92.233344     2A    -20.632790     3A    -20.569457
       4A    -20.565213     5A    -11.291603     6A    -11.277144
       7A    -11.276551     8A    -11.272916     9A    -11.265639
      10A    -11.265332    11A     -9.196224    12A     -6.881847
      13A     -6.880572    14A     -6.880320    15A     -1.497439
      16A     -1.383631    17A     -1.356139    18A     -1.189066
      19A     -1.067546    20A     -1.049007    21A     -0.928719
      22A     -0.861595    23A     -0.832413    24A     -0.759467
      25A     -0.735582    26A     -0.696953    27A     -0.684318
      28A     -0.661117    29A     -0.646959    30A     -0.629464
      31A     -0.621234    32A     -0.580431    33A     -0.554600
      34A     -0.537143    35A     -0.528894    36A     -0.520361
      37A     -0.509436    38A     -0.489411    39A     -0.481999
      40A     -0.376419    41A     -0.366915

  @DF-RHF Final Energy:  -852.95645239580290

   => Energetics <=

    Nuclear Repulsion Energy =            634.0475349924449802
    One-Electron Energy =               -2429.9375557757671231
    Two-Electron Energy =                 942.9335683875192444
    Total Energy =                       -852.9564523958028985
  Basis Set: (AUG-CC-PVTZ AUX)
    Blend: AUG-CC-PVTZ-RI
    Molecular point group: c1

    Geometry (in Angstrom), charge = 0, multiplicity = 1:

       Center              X                  Y                   Z               Mass
    ------------   -----------------  -----------------  -----------------  -----------------
         S           -1.412949499518    -0.009724735192    -0.126307588791    31.972071174400
         O           -1.786474499518    -0.131915735192     1.470380411209    15.994914619570
         O           -1.890573499518     1.302647264808    -0.560631588791    15.994914619570
         O           -1.843427499518    -1.245894735192    -0.758752588791    15.994914619570
         C            0.354662500482     0.002462264808    -0.066534588791    12.000000000000
         C            1.035828500482    -1.214911735192    -0.005373588791    12.000000000000
         C            1.024416500482     1.227123264808    -0.065395588791    12.000000000000
         C            2.428675500482    -1.196557735192     0.063697411209    12.000000000000
         C            2.418187500482     1.225389264808    -0.000627588791    12.000000000000
         C            3.118534500482     0.018758264808     0.069971411209    12.000000000000
         H            0.484143500482    -2.150183735192    -0.030143588791     1.007825032230
         H            0.463263500482     2.154161264808    -0.138733588791     1.007825032230
         H            2.976438500482    -2.134144735192     0.109090411209     1.007825032230
         H            2.957544500482     2.168954264808    -0.007659588791     1.007825032230
         H            4.209366800482     0.022263264808     0.020560011209     1.007825032230
         H           -2.249146499518     0.698988264808     1.708180411209     1.007825032230

  Basis Set: AUG-CC-PVTZ
    Blend: AUG-CC-PVTZ
  Basis Set: (AUG-CC-PVTZ AUX)
    Blend: AUG-CC-PVTZ-JKFIT
	 Reference Energy          =    -852.9564523958028985 [Eh]
	 Singles Energy            =      -0.0000000000000000 [Eh]
	 Same-Spin Energy          =      -0.5327459461899648 [Eh]
	 Opposite-Spin Energy      =      -1.5540116070340719 [Eh]
	 Correlation Energy        =      -2.0867575532240368 [Eh]
	 Total Energy              =    -855.0432099490269593 [Eh]

	 ================> DF-SCS-MP2 Energies <==================
	-----------------------------------------------------------
	 SCS Same-Spin Scale       =       0.3333333333333333 [-]
	 SCS Opposite-Spin Scale   =       1.2000000000000000 [-]
	 SCS Same-Spin Energy      =      -0.1775819820633216 [Eh]
	 SCS Opposite-Spin Energy  =      -1.8648139284408862 [Eh]
	 SCS Correlation Energy    =      -2.0423959105042080 [Eh]
	 SCS Total Energy          =    -854.9988483063070817 [Eh]
	-----------------------------------------------------------

  Dipole Moment: [D]
     X:     3.7680      Y:     1.0473      Z:     1.9057     Total:     4.3504

*** Psi4 exiting successfully. Buy a developer a beer!
