                               Psi4 1.3.2 release

  ==> Input File <==

--------------------------------------------------------------------------
#psi4
#
memory 32 gb

molecule  {
0 1
  S       -1.4659670    -0.0143510    -0.1375590
  O       -1.8394920    -0.1365420     1.4591290
  O       -1.9435910     1.2980210    -0.5718830
  O       -1.8964450    -1.2505210    -0.7700040
  C        0.3016450    -0.0021640    -0.0777860
  C        0.9828110    -1.2195380    -0.0166250
  C        0.9713990     1.2224970    -0.0766470
  C        2.3756580    -1.2011840     0.0524460
  C        2.3651700     1.2207630    -0.0118790
  C        3.0655170     0.0141320     0.0587200
  H        0.4311260    -2.1548100    -0.0413950
  H        0.4102460     2.1495350    -0.1499850
  H        2.9234210    -2.1387710     0.0978390
  H        2.9045270     2.1643280    -0.0189110
  H        4.1588480     0.0163219    -0.0406116
  H       -2.3021640     0.6943620     1.6969290
units angstrom
no_reorient  #important for SAPT in psi4, default
symmetry c1  #important for SAPT in psi4, default
}

set PROPERTIES_ORIGIN ["COM"]
properties('MP2/aug-cc-pvtz', properties = ['dipole'])
--------------------------------------------------------------------------

    Molecular point group: c1
  Charge       = 0
  Multiplicity = 1
  Basis Set: AUG-CC-PVTZ
    Blend: AUG-CC-PVTZ
  Basis Set: (AUG-CC-PVTZ AUX)
    Blend: AUG-CC-PVTZ-JKFIT

    Orbital Energies [Eh]
    ---------------------

    Doubly Occupied:

       1A    -92.233398     2A    -20.632846     3A    -20.569497
       4A    -20.565251     5A    -11.291704     6A    -11.277176
       7A    -11.276583     8A    -11.273422     9A    -11.265737
      10A    -11.265434    11A     -9.196277    12A     -6.881899
      13A     -6.880625    14A     -6.880373    15A     -1.497485
      16A     -1.383678    17A     -1.356179    18A     -1.189104
      19A     -1.067448    20A     -1.049063    21A     -0.928568
      22A     -0.861639    23A     -0.832231    24A     -0.759492
      25A     -0.735453    26A     -0.696326    27A     -0.684223
      28A     -0.661157    29A     -0.646956    30A     -0.629465
      31A     -0.621280    32A     -0.580100    33A     -0.555257
      34A     -0.536389    35A     -0.528945    36A     -0.519915
      37A     -0.509449    38A     -0.489505    39A     -0.482160
      40A     -0.376297    41A     -0.366961

  @DF-RHF Final Energy:  -852.95560953312702

   => Energetics <=

    Nuclear Repulsion Energy =            634.0246309243800624
    One-Electron Energy =               -2429.8905933234764234
    Two-Electron Energy =                 942.9103528659693438
    Total Energy =                       -852.9556095331270171
  Basis Set: (AUG-CC-PVTZ AUX)
    Blend: AUG-CC-PVTZ-RI
    Molecular point group: c1

    Geometry (in Angstrom), charge = 0, multiplicity = 1:

       Center              X                  Y                   Z               Mass
    ------------   -----------------  -----------------  -----------------  -----------------
         S           -1.412965437444    -0.009716346843    -0.125989173422    31.972071174400
         O           -1.786490437444    -0.131907346843     1.470698826578    15.994914619570
         O           -1.890589437444     1.302655653157    -0.560313173422    15.994914619570
         O           -1.843443437444    -1.245886346843    -0.758434173422    15.994914619570
         C            0.354646562556     0.002470653157    -0.066216173422    12.000000000000
         C            1.035812562556    -1.214903346843    -0.005055173422    12.000000000000
         C            1.024400562556     1.227131653157    -0.065077173422    12.000000000000
         C            2.428659562556    -1.196549346843     0.064015826578    12.000000000000
         C            2.418171562556     1.225397653157    -0.000309173422    12.000000000000
         C            3.118518562556     0.018766653157     0.070289826578    12.000000000000
         H            0.484127562556    -2.150175346843    -0.029825173422     1.007825032230
         H            0.463247562556     2.154169653157    -0.138415173422     1.007825032230
         H            2.976422562556    -2.134136346843     0.109408826578     1.007825032230
         H            2.957528562556     2.168962653157    -0.007341173422     1.007825032230
         H            4.211849562556     0.020956553157    -0.029041773422     1.007825032230
         H           -2.249162437444     0.698996653157     1.708498826578     1.007825032230

  Basis Set: AUG-CC-PVTZ
    Blend: AUG-CC-PVTZ
  Basis Set: (AUG-CC-PVTZ AUX)
    Blend: AUG-CC-PVTZ-JKFIT
	 Reference Energy          =    -852.9556095331270171 [Eh]
	 Singles Energy            =      -0.0000000000000000 [Eh]
	 Same-Spin Energy          =      -0.5327942592891918 [Eh]
	 Opposite-Spin Energy      =      -1.5541331189178682 [Eh]
	 Correlation Energy        =      -2.0869273782070601 [Eh]
	 Total Energy              =    -855.0425369113340821 [Eh]

	 ================> DF-SCS-MP2 Energies <==================
	-----------------------------------------------------------
	 SCS Same-Spin Scale       =       0.3333333333333333 [-]
	 SCS Opposite-Spin Scale   =       1.2000000000000000 [-]
	 SCS Same-Spin Energy      =      -0.1775980864297306 [Eh]
	 SCS Opposite-Spin Energy  =      -1.8649597427014417 [Eh]
	 SCS Correlation Energy    =      -2.0425578291311721 [Eh]
	 SCS Total Energy          =    -854.9981673622581866 [Eh]
	-----------------------------------------------------------

  Dipole Moment: [D]
     X:     3.7588      Y:     1.0464      Z:     1.8744     Total:     4.3286

*** Psi4 exiting successfully. Buy a developer a beer!
