                               Psi4 1.3.2 release

  ==> Input File <==

--------------------------------------------------------------------------
#psi4
#
memory 32 gb

molecule  {
0 1
  S       -1.4659670    -0.0143510    -0.1375590
  O       -1.8394920    -0.1365420     1.4591290
  O       -1.9435910     1.2980210    -0.5718830
  O       -1.8964450    -1.2505210    -0.7700040
  C        0.3016450    -0.0021640    -0.0777860
  C        0.9828110    -1.2195380    -0.0166250
  C        0.9713990     1.2224970    -0.0766470
  C        2.3756580    -1.2011840     0.0524460
  C        2.3651700     1.2207630    -0.0118790
  C        3.0655170     0.0141320     0.0587200
  H        0.4311260    -2.1548100    -0.0413950
  H        0.4102460     2.1495350    -0.1499850
  H        2.9234210    -2.1387710     0.0978390
  H        2.9045270     2.1643280    -0.0189110
  H        4.1638453     0.0136919    -0.1404521
  H       -2.3021640     0.6943620     1.6969290
units angstrom
no_reorient  #important for SAPT in psi4, default
symmetry c1  #important for SAPT in psi4, default
}

set PROPERTIES_ORIGIN ["COM"]
properties('MP2/aug-cc-pvtz', properties = ['dipole'])
--------------------------------------------------------------------------

    Molecular point group: c1
  Charge       = 0
  Multiplicity = 1
  Basis Set: AUG-CC-PVTZ
    Blend: AUG-CC-PVTZ
  Basis Set: (AUG-CC-PVTZ AUX)
    Blend: AUG-CC-PVTZ-JKFIT

    Orbital Energies [Eh]
    ---------------------

    Doubly Occupied:

       1A    -92.233566     2A    -20.633014     3A    -20.569630
       4A    -20.565384     5A    -11.292019     6A    -11.277282
       7A    -11.276690     8A    -11.275011     9A    -11.266047
      10A    -11.265751    11A     -9.196442    12A     -6.882062
      13A     -6.880792    14A     -6.880539    15A     -1.497630
      16A     -1.383822    17A     -1.356311    18A     -1.189229
      19A     -1.067161    20A     -1.049243    21A     -0.928126
      22A     -0.861784    23A     -0.831699    24A     -0.759575
      25A     -0.735113    26A     -0.694534    27A     -0.683804
      28A     -0.661280    29A     -0.646946    30A     -0.629475
      31A     -0.621430    32A     -0.579385    33A     -0.556294
      34A     -0.534720    35A     -0.529109    36A     -0.518740
      37A     -0.509491    38A     -0.489735    39A     -0.482494
      40A     -0.375922    41A     -0.367108

  @DF-RHF Final Energy:  -852.95273502512987

   => Energetics <=

    Nuclear Repulsion Energy =            633.9547241186492101
    One-Electron Energy =               -2429.7461425772371513
    Two-Electron Energy =                 942.8386834334580726
    Total Energy =                       -852.9527350251298685
  Basis Set: (AUG-CC-PVTZ AUX)
    Blend: AUG-CC-PVTZ-RI
    Molecular point group: c1

    Geometry (in Angstrom), charge = 0, multiplicity = 1:

       Center              X                  Y                   Z               Mass
    ------------   -----------------  -----------------  -----------------  -----------------
         S           -1.412997312660    -0.009699571421    -0.125352342047    31.972071174400
         O           -1.786522312660    -0.131890571421     1.471335657953    15.994914619570
         O           -1.890621312660     1.302672428579    -0.559676342047    15.994914619570
         O           -1.843475312660    -1.245869571421    -0.757797342047    15.994914619570
         C            0.354614687340     0.002487428579    -0.065579342047    12.000000000000
         C            1.035780687340    -1.214886571421    -0.004418342047    12.000000000000
         C            1.024368687340     1.227148428579    -0.064440342047    12.000000000000
         C            2.428627687340    -1.196532571421     0.064652657953    12.000000000000
         C            2.418139687340     1.225414428579     0.000327657953    12.000000000000
         C            3.118486687340     0.018783428579     0.070926657953    12.000000000000
         H            0.484095687340    -2.150158571421    -0.029188342047     1.007825032230
         H            0.463215687340     2.154186428579    -0.137778342047     1.007825032230
         H            2.976390687340    -2.134119571421     0.110045657953     1.007825032230
         H            2.957496687340     2.168979428579    -0.006704342047     1.007825032230
         H            4.216814987340     0.018343328579    -0.128245442047     1.007825032230
         H           -2.249194312660     0.699013428579     1.709135657953     1.007825032230

  Basis Set: AUG-CC-PVTZ
    Blend: AUG-CC-PVTZ
  Basis Set: (AUG-CC-PVTZ AUX)
    Blend: AUG-CC-PVTZ-JKFIT
	 Reference Energy          =    -852.9527350251298685 [Eh]
	 Singles Energy            =      -0.0000000000000000 [Eh]
	 Same-Spin Energy          =      -0.5329458281052670 [Eh]
	 Opposite-Spin Energy      =      -1.5545305825139959 [Eh]
	 Correlation Energy        =      -2.0874764106192627 [Eh]
	 Total Energy              =    -855.0402114357491428 [Eh]

	 ================> DF-SCS-MP2 Energies <==================
	-----------------------------------------------------------
	 SCS Same-Spin Scale       =       0.3333333333333333 [-]
	 SCS Opposite-Spin Scale   =       1.2000000000000000 [-]
	 SCS Same-Spin Energy      =      -0.1776486093684223 [Eh]
	 SCS Opposite-Spin Energy  =      -1.8654366990167950 [Eh]
	 SCS Correlation Energy    =      -2.0430853083852174 [Eh]
	 SCS Total Energy          =    -854.9958203335150984 [Eh]
	-----------------------------------------------------------

  Dipole Moment: [D]
     X:     3.7285      Y:     1.0446      Z:     1.8125     Total:     4.2752

*** Psi4 exiting successfully. Buy a developer a beer!
