                               Psi4 1.3.2 release

  ==> Input File <==

--------------------------------------------------------------------------
#psi4
#
memory 32 gb

molecule  {
0 1
  S       -1.4659670    -0.0143510    -0.1375590
  O       -1.8394920    -0.1365420     1.4591290
  O       -1.9435910     1.2980210    -0.5718830
  O       -1.8964450    -1.2505210    -0.7700040
  C        0.3016450    -0.0021640    -0.0777860
  C        0.9828110    -1.2195380    -0.0166250
  C        0.9713990     1.2224970    -0.0766470
  C        2.3756580    -1.2011840     0.0524460
  C        2.3651700     1.2207630    -0.0118790
  C        3.0655170     0.0141320     0.0587200
  H        0.4338681    -2.1554890    -0.0913151
  H        0.4102460     2.1495350    -0.1499850
  H        2.9234210    -2.1387710     0.0978390
  H        2.9045270     2.1643280    -0.0189110
  H        4.1513520     0.0202670     0.1091490
  H       -2.3021640     0.6943620     1.6969290
units angstrom
no_reorient  #important for SAPT in psi4, default
symmetry c1  #important for SAPT in psi4, default
}

set PROPERTIES_ORIGIN ["COM"]
properties('MP2/aug-cc-pvtz', properties = ['dipole'])
--------------------------------------------------------------------------

    Molecular point group: c1
  Charge       = 0
  Multiplicity = 1
  Basis Set: AUG-CC-PVTZ
    Blend: AUG-CC-PVTZ
  Basis Set: (AUG-CC-PVTZ AUX)
    Blend: AUG-CC-PVTZ-JKFIT

    Orbital Energies [Eh]
    ---------------------

    Doubly Occupied:

       1A    -92.233316     2A    -20.632743     3A    -20.569415
       4A    -20.565206     5A    -11.291547     6A    -11.277122
       7A    -11.276517     8A    -11.272489     9A    -11.265583
      10A    -11.265250    11A     -9.196197    12A     -6.881819
      13A     -6.880546    14A     -6.880294    15A     -1.497404
      16A     -1.383591    17A     -1.356127    18A     -1.189021
      19A     -1.067622    20A     -1.048910    21A     -0.928853
      22A     -0.861463    23A     -0.832527    24A     -0.759468
      25A     -0.735604    26A     -0.697369    27A     -0.684400
      28A     -0.661059    29A     -0.646921    30A     -0.629475
      31A     -0.621051    32A     -0.581130    33A     -0.552541
      34A     -0.538572    35A     -0.528778    36A     -0.521115
      37A     -0.509486    38A     -0.489247    39A     -0.481702
      40A     -0.376515    41A     -0.366841

  @DF-RHF Final Energy:  -852.95691107794926

   => Energetics <=

    Nuclear Repulsion Energy =            634.0598284945876912
    One-Electron Energy =               -2429.9638069858738163
    Two-Electron Energy =                 942.9470674133368675
    Total Energy =                       -852.9569110779492576
  Basis Set: (AUG-CC-PVTZ AUX)
    Blend: AUG-CC-PVTZ-RI
    Molecular point group: c1

    Geometry (in Angstrom), charge = 0, multiplicity = 1:

       Center              X                  Y                   Z               Mass
    ------------   -----------------  -----------------  -----------------  -----------------
         S           -1.412935114753    -0.009737179621    -0.126626004797    31.972071174400
         O           -1.786460114753    -0.131928179621     1.470061995203    15.994914619570
         O           -1.890559114753     1.302634820379    -0.560950004797    15.994914619570
         O           -1.843413114753    -1.245907179621    -0.759071004797    15.994914619570
         C            0.354676885247     0.002449820379    -0.066853004797    12.000000000000
         C            1.035842885247    -1.214924179621    -0.005692004797    12.000000000000
         C            1.024430885247     1.227110820379    -0.065714004797    12.000000000000
         C            2.428689885247    -1.196570179621     0.063378995203    12.000000000000
         C            2.418201885247     1.225376820379    -0.000946004797    12.000000000000
         C            3.118548885247     0.018745820379     0.069652995203    12.000000000000
         H            0.486899985247    -2.150875179621    -0.080382104797     1.007825032230
         H            0.463277885247     2.154148820379    -0.139052004797     1.007825032230
         H            2.976452885247    -2.134157179621     0.108771995203     1.007825032230
         H            2.957558885247     2.168941820379    -0.007978004797     1.007825032230
         H            4.204383885247     0.024880820379     0.120081995203     1.007825032230
         H           -2.249132114753     0.698975820379     1.707861995203     1.007825032230

  Basis Set: AUG-CC-PVTZ
    Blend: AUG-CC-PVTZ
  Basis Set: (AUG-CC-PVTZ AUX)
    Blend: AUG-CC-PVTZ-JKFIT
	 Reference Energy          =    -852.9569110779492576 [Eh]
	 Singles Energy            =      -0.0000000000000000 [Eh]
	 Same-Spin Energy          =      -0.5327259224456830 [Eh]
	 Opposite-Spin Energy      =      -1.5539402992542779 [Eh]
	 Correlation Energy        =      -2.0866662216999607 [Eh]
	 Total Energy              =    -855.0435772996492005 [Eh]

	 ================> DF-SCS-MP2 Energies <==================
	-----------------------------------------------------------
	 SCS Same-Spin Scale       =       0.3333333333333333 [-]
	 SCS Opposite-Spin Scale   =       1.2000000000000000 [-]
	 SCS Same-Spin Energy      =      -0.1775753074818943 [Eh]
	 SCS Opposite-Spin Energy  =      -1.8647283591051333 [Eh]
	 SCS Correlation Energy    =      -2.0423036665870278 [Eh]
	 SCS Total Energy          =    -854.9992147445362889 [Eh]
	-----------------------------------------------------------

  Dipole Moment: [D]
     X:     3.7761      Y:     1.0511      Z:     1.9383     Total:     4.3727

*** Psi4 exiting successfully. Buy a developer a beer!
