                               Psi4 1.3.2 release

  ==> Input File <==

--------------------------------------------------------------------------
#psi4
#
memory 32 gb

molecule  {
0 1
  S       -1.4659670    -0.0143510    -0.1375590
  O       -1.8394920    -0.1365420     1.4591290
  O       -1.9435910     1.2980210    -0.5718830
  O       -1.8964450    -1.2505210    -0.7700040
  C        0.3016450    -0.0021640    -0.0777860
  C        0.9828110    -1.2195380    -0.0166250
  C        0.9713990     1.2224970    -0.0766470
  C        2.3756580    -1.2011840     0.0524460
  C        2.3651700     1.2207630    -0.0118790
  C        3.0655170     0.0141320     0.0587200
  H        0.4366101    -2.1561680    -0.1412353
  H        0.4102460     2.1495350    -0.1499850
  H        2.9234210    -2.1387710     0.0978390
  H        2.9045270     2.1643280    -0.0189110
  H        4.1513520     0.0202670     0.1091490
  H       -2.3021640     0.6943620     1.6969290
units angstrom
no_reorient  #important for SAPT in psi4, default
symmetry c1  #important for SAPT in psi4, default
}

set PROPERTIES_ORIGIN ["COM"]
properties('MP2/aug-cc-pvtz', properties = ['dipole'])
--------------------------------------------------------------------------

    Molecular point group: c1
  Charge       = 0
  Multiplicity = 1
  Basis Set: AUG-CC-PVTZ
    Blend: AUG-CC-PVTZ
  Basis Set: (AUG-CC-PVTZ AUX)
    Blend: AUG-CC-PVTZ-JKFIT

    Orbital Energies [Eh]
    ---------------------

    Doubly Occupied:

       1A    -92.233329     2A    -20.632756     3A    -20.569396
       4A    -20.565206     5A    -11.291602     6A    -11.277137
       7A    -11.276686     8A    -11.272488     9A    -11.265650
      10A    -11.265294    11A     -9.196208    12A     -6.881827
      13A     -6.880559    14A     -6.880307    15A     -1.497401
      16A     -1.383585    17A     -1.356133    18A     -1.189012
      19A     -1.067617    20A     -1.048816    21A     -0.928841
      22A     -0.861272    23A     -0.832470    24A     -0.759425
      25A     -0.735457    26A     -0.697103    27A     -0.684415
      28A     -0.661035    29A     -0.646805    30A     -0.629476
      31A     -0.620733    32A     -0.581237    33A     -0.551995
      34A     -0.538930    35A     -0.528426    36A     -0.521098
      37A     -0.509521    38A     -0.489212    39A     -0.481709
      40A     -0.376514    41A     -0.366774

  @DF-RHF Final Energy:  -852.95637860182410

   => Energetics <=

    Nuclear Repulsion Energy =            634.0419601745255704
    One-Electron Energy =               -2429.9297648024194132
    Two-Electron Energy =                 942.9314260260696301
    Total Energy =                       -852.9563786018240990
  Basis Set: (AUG-CC-PVTZ AUX)
    Blend: AUG-CC-PVTZ-RI
    Molecular point group: c1

    Geometry (in Angstrom), charge = 0, multiplicity = 1:

       Center              X                  Y                   Z               Mass
    ------------   -----------------  -----------------  -----------------  -----------------
         S           -1.412952604565    -0.009732848628    -0.126307589429    31.972071174400
         O           -1.786477604565    -0.131923848628     1.470380410571    15.994914619570
         O           -1.890576604565     1.302639151372    -0.560631589429    15.994914619570
         O           -1.843430604565    -1.245902848628    -0.758752589429    15.994914619570
         C            0.354659395435     0.002454151372    -0.066534589429    12.000000000000
         C            1.035825395435    -1.214919848628    -0.005373589429    12.000000000000
         C            1.024413395435     1.227115151372    -0.065395589429    12.000000000000
         C            2.428672395435    -1.196565848628     0.063697410571    12.000000000000
         C            2.418184395435     1.225381151372    -0.000627589429    12.000000000000
         C            3.118531395435     0.018750151372     0.069971410571    12.000000000000
         H            0.489624495435    -2.151549848628    -0.129983889429     1.007825032230
         H            0.463260395435     2.154153151372    -0.138733589429     1.007825032230
         H            2.976435395435    -2.134152848628     0.109090410571     1.007825032230
         H            2.957541395435     2.168946151372    -0.007659589429     1.007825032230
         H            4.204366395435     0.024885151372     0.120400410571     1.007825032230
         H           -2.249149604565     0.698980151372     1.708180410571     1.007825032230

  Basis Set: AUG-CC-PVTZ
    Blend: AUG-CC-PVTZ
  Basis Set: (AUG-CC-PVTZ AUX)
    Blend: AUG-CC-PVTZ-JKFIT
	 Reference Energy          =    -852.9563786018240990 [Eh]
	 Singles Energy            =      -0.0000000000000000 [Eh]
	 Same-Spin Energy          =      -0.5327682190015992 [Eh]
	 Opposite-Spin Energy      =      -1.5540146956171506 [Eh]
	 Correlation Energy        =      -2.0867829146187500 [Eh]
	 Total Energy              =    -855.0431615164428649 [Eh]

	 ================> DF-SCS-MP2 Energies <==================
	-----------------------------------------------------------
	 SCS Same-Spin Scale       =       0.3333333333333333 [-]
	 SCS Opposite-Spin Scale   =       1.2000000000000000 [-]
	 SCS Same-Spin Energy      =      -0.1775894063338664 [Eh]
	 SCS Opposite-Spin Energy  =      -1.8648176347405805 [Eh]
	 SCS Correlation Energy    =      -2.0424070410744468 [Eh]
	 SCS Total Energy          =    -854.9987856428984969 [Eh]
	-----------------------------------------------------------

  Dipole Moment: [D]
     X:     3.7798      Y:     1.0556      Z:     1.9082     Total:     4.3638

*** Psi4 exiting successfully. Buy a developer a beer!
