                               Psi4 1.3.2 release

  ==> Input File <==

--------------------------------------------------------------------------
#psi4
#
memory 32 gb

molecule  {
0 1
  S       -1.4659670    -0.0143510    -0.1375590
  O       -1.8394920    -0.1365420     1.4591290
  O       -1.9435910     1.2980210    -0.5718830
  O       -1.8964450    -1.2505210    -0.7700040
  C        0.3016450    -0.0021640    -0.0777860
  C        0.9828110    -1.2195380    -0.0166250
  C        0.9713990     1.2224970    -0.0766470
  C        2.3756580    -1.2011840     0.0524460
  C        2.3651700     1.2207630    -0.0118790
  C        3.0655170     0.0141320     0.0587200
  H        0.4311260    -2.1548100    -0.0413950
  H        0.4102460     2.1495350    -0.1499850
  H        2.9356160    -2.1441120    -0.1518063
  H        2.9045270     2.1643280    -0.0189110
  H        4.1513520     0.0202670     0.1091490
  H       -2.3021640     0.6943620     1.6969290
units angstrom
no_reorient  #important for SAPT in psi4, default
symmetry c1  #important for SAPT in psi4, default
}

set PROPERTIES_ORIGIN ["COM"]
properties('MP2/aug-cc-pvtz', properties = ['dipole'])
--------------------------------------------------------------------------

    Molecular point group: c1
  Charge       = 0
  Multiplicity = 1
  Basis Set: AUG-CC-PVTZ
    Blend: AUG-CC-PVTZ
  Basis Set: (AUG-CC-PVTZ AUX)
    Blend: AUG-CC-PVTZ-JKFIT

    Orbital Energies [Eh]
    ---------------------

    Doubly Occupied:

       1A    -92.233425     2A    -20.632776     3A    -20.569593
       4A    -20.565320     5A    -11.291732     6A    -11.277713
       7A    -11.277001     8A    -11.273051     9A    -11.267650
      10A    -11.265766    11A     -9.196306    12A     -6.881931
      13A     -6.880654    14A     -6.880398    15A     -1.497512
      16A     -1.383673    17A     -1.356259    18A     -1.189254
      19A     -1.067677    20A     -1.048601    21A     -0.929045
      22A     -0.860485    23A     -0.831996    24A     -0.758518
      25A     -0.735634    26A     -0.697696    27A     -0.684499
      28A     -0.661179    29A     -0.644205    30A     -0.629601
      31A     -0.619396    32A     -0.581295    33A     -0.552251
      34A     -0.541169    35A     -0.526036    36A     -0.520650
      37A     -0.509784    38A     -0.489144    39A     -0.480883
      40A     -0.376633    41A     -0.366662

  @DF-RHF Final Energy:  -852.95286018761158

   => Energetics <=

    Nuclear Repulsion Energy =            633.9538828836308539
    One-Electron Energy =               -2429.7473816200449619
    Two-Electron Energy =                 942.8406385488026444
    Total Energy =                       -852.9528601876115772
  Basis Set: (AUG-CC-PVTZ AUX)
    Blend: AUG-CC-PVTZ-RI
    Molecular point group: c1

    Geometry (in Angstrom), charge = 0, multiplicity = 1:

       Center              X                  Y                   Z               Mass
    ------------   -----------------  -----------------  -----------------  -----------------
         S           -1.412995409957    -0.009707443113    -0.125352060117    31.972071174400
         O           -1.786520409957    -0.131898443113     1.471335939883    15.994914619570
         O           -1.890619409957     1.302664556887    -0.559676060117    15.994914619570
         O           -1.843473409957    -1.245877443113    -0.757797060117    15.994914619570
         C            0.354616590043     0.002479556887    -0.065579060117    12.000000000000
         C            1.035782590043    -1.214894443113    -0.004418060117    12.000000000000
         C            1.024370590043     1.227140556887    -0.064440060117    12.000000000000
         C            2.428629590043    -1.196540443113     0.064652939883    12.000000000000
         C            2.418141590043     1.225406556887     0.000327939883    12.000000000000
         C            3.118488590043     0.018775556887     0.070926939883    12.000000000000
         H            0.484097590043    -2.150166443113    -0.029188060117     1.007825032230
         H            0.463217590043     2.154178556887    -0.137778060117     1.007825032230
         H            2.988587590043    -2.139468443113    -0.139599360117     1.007825032230
         H            2.957498590043     2.168971556887    -0.006704060117     1.007825032230
         H            4.204323590043     0.024910556887     0.121355939883     1.007825032230
         H           -2.249192409957     0.699005556887     1.709135939883     1.007825032230

  Basis Set: AUG-CC-PVTZ
    Blend: AUG-CC-PVTZ
  Basis Set: (AUG-CC-PVTZ AUX)
    Blend: AUG-CC-PVTZ-JKFIT
	 Reference Energy          =    -852.9528601876115772 [Eh]
	 Singles Energy            =      -0.0000000000000000 [Eh]
	 Same-Spin Energy          =      -0.5329000529739686 [Eh]
	 Opposite-Spin Energy      =      -1.5544443653058440 [Eh]
	 Correlation Energy        =      -2.0873444182798124 [Eh]
	 Total Energy              =    -855.0402046058914038 [Eh]

	 ================> DF-SCS-MP2 Energies <==================
	-----------------------------------------------------------
	 SCS Same-Spin Scale       =       0.3333333333333333 [-]
	 SCS Opposite-Spin Scale   =       1.2000000000000000 [-]
	 SCS Same-Spin Energy      =      -0.1776333509913229 [Eh]
	 SCS Opposite-Spin Energy  =      -1.8653332383670127 [Eh]
	 SCS Correlation Energy    =      -2.0429665893583357 [Eh]
	 SCS Total Energy          =    -854.9958267769699205 [Eh]
	-----------------------------------------------------------

  Dipole Moment: [D]
     X:     3.7573      Y:     1.0862      Z:     1.8143     Total:     4.3115

*** Psi4 exiting successfully. Buy a developer a beer!
