                               Psi4 1.3.2 release

  ==> Input File <==

--------------------------------------------------------------------------
#psi4
#
memory 32 gb

molecule  {
0 1
  S       -1.4659670    -0.0143510    -0.1375590
  O       -1.8394920    -0.1365420     1.4591290
  O       -1.9435910     1.2980210    -0.5718830
  O       -1.8964450    -1.2505210    -0.7700040
  C        0.3016450    -0.0021640    -0.0777860
  C        0.9828110    -1.2195380    -0.0166250
  C        0.9713990     1.2224970    -0.0766470
  C        2.3756580    -1.2011840     0.0524460
  C        2.3651700     1.2207630    -0.0118790
  C        3.0655170     0.0141320     0.0587200
  H        0.4311260    -2.1548100    -0.0413950
  H        0.4102460     2.1495350    -0.1499850
  H        2.9282990    -2.1409074    -0.0020191
  H        2.9045270     2.1643280    -0.0189110
  H        4.1513520     0.0202670     0.1091490
  H       -2.3021640     0.6943620     1.6969290
units angstrom
no_reorient  #important for SAPT in psi4, default
symmetry c1  #important for SAPT in psi4, default
}

set PROPERTIES_ORIGIN ["COM"]
properties('MP2/aug-cc-pvtz', properties = ['dipole'])
--------------------------------------------------------------------------

    Molecular point group: c1
  Charge       = 0
  Multiplicity = 1
  Basis Set: AUG-CC-PVTZ
    Blend: AUG-CC-PVTZ
  Basis Set: (AUG-CC-PVTZ AUX)
    Blend: AUG-CC-PVTZ-JKFIT

    Orbital Energies [Eh]
    ---------------------

    Doubly Occupied:

       1A    -92.233309     2A    -20.632713     3A    -20.569455
       4A    -20.565206     5A    -11.291549     6A    -11.277225
       7A    -11.276591     8A    -11.272605     9A    -11.265674
      10A    -11.265549    11A     -9.196192    12A     -6.881817
      13A     -6.880539    14A     -6.880286    15A     -1.497408
      16A     -1.383588    17A     -1.356133    18A     -1.189069
      19A     -1.067636    20A     -1.048897    21A     -0.928876
      22A     -0.861363    23A     -0.832459    24A     -0.759294
      25A     -0.735677    26A     -0.697536    27A     -0.684378
      28A     -0.661080    29A     -0.646454    30A     -0.629485
      31A     -0.620934    32A     -0.581085    33A     -0.552675
      34A     -0.539191    35A     -0.528099    36A     -0.521263
      37A     -0.509559    38A     -0.489188    39A     -0.481394
      40A     -0.376564    41A     -0.366854

  @DF-RHF Final Energy:  -852.95647993324098

   => Energetics <=

    Nuclear Repulsion Energy =            634.0475990999807436
    One-Electron Energy =               -2429.9384650165875428
    Two-Electron Energy =                 942.9343859833658144
    Total Energy =                       -852.9564799332409848
  Basis Set: (AUG-CC-PVTZ AUX)
    Blend: AUG-CC-PVTZ-RI
    Molecular point group: c1

    Geometry (in Angstrom), charge = 0, multiplicity = 1:

       Center              X                  Y                   Z               Mass
    ------------   -----------------  -----------------  -----------------  -----------------
         S           -1.412948738564    -0.009727883614    -0.126307475892    31.972071174400
         O           -1.786473738564    -0.131918883614     1.470380524108    15.994914619570
         O           -1.890572738564     1.302644116386    -0.560631475892    15.994914619570
         O           -1.843426738564    -1.245897883614    -0.758752475892    15.994914619570
         C            0.354663261436     0.002459116386    -0.066534475892    12.000000000000
         C            1.035829261436    -1.214914883614    -0.005373475892    12.000000000000
         C            1.024417261436     1.227120116386    -0.065395475892    12.000000000000
         C            2.428676261436    -1.196560883614     0.063697524108    12.000000000000
         C            2.418188261436     1.225386116386    -0.000627475892    12.000000000000
         C            3.118535261436     0.018755116386     0.069971524108    12.000000000000
         H            0.484144261436    -2.150186883614    -0.030143475892     1.007825032230
         H            0.463264261436     2.154158116386    -0.138733475892     1.007825032230
         H            2.981317261436    -2.136284283614     0.009232424108     1.007825032230
         H            2.957545261436     2.168951116386    -0.007659475892     1.007825032230
         H            4.204370261436     0.024890116386     0.120400524108     1.007825032230
         H           -2.249145738564     0.698985116386     1.708180524108     1.007825032230

  Basis Set: AUG-CC-PVTZ
    Blend: AUG-CC-PVTZ
  Basis Set: (AUG-CC-PVTZ AUX)
    Blend: AUG-CC-PVTZ-JKFIT
	 Reference Energy          =    -852.9564799332409848 [Eh]
	 Singles Energy            =      -0.0000000000000000 [Eh]
	 Same-Spin Energy          =      -0.5327374859574160 [Eh]
	 Opposite-Spin Energy      =      -1.5539988574774604 [Eh]
	 Correlation Energy        =      -2.0867363434348762 [Eh]
	 Total Energy              =    -855.0432162766758211 [Eh]

	 ================> DF-SCS-MP2 Energies <==================
	-----------------------------------------------------------
	 SCS Same-Spin Scale       =       0.3333333333333333 [-]
	 SCS Opposite-Spin Scale   =       1.2000000000000000 [-]
	 SCS Same-Spin Energy      =      -0.1775791619858053 [Eh]
	 SCS Opposite-Spin Energy  =      -1.8647986289729523 [Eh]
	 SCS Correlation Energy    =      -2.0423777909587577 [Eh]
	 SCS Total Energy          =    -854.9988577241997518 [Eh]
	-----------------------------------------------------------

  Dipole Moment: [D]
     X:     3.7738      Y:     1.0548      Z:     1.9065     Total:     4.3576

*** Psi4 exiting successfully. Buy a developer a beer!
