                               Psi4 1.3.2 release

  ==> Input File <==

--------------------------------------------------------------------------
#psi4
#
memory 32 gb

molecule  {
0 1
  S       -1.4659670    -0.0143510    -0.1375590
  O       -1.8394920    -0.1365420     1.4591290
  O       -1.9435910     1.2980210    -0.5718830
  O       -1.8964450    -1.2505210    -0.7700040
  C        0.3016450    -0.0021640    -0.0777860
  C        0.9828110    -1.2195380    -0.0166250
  C        0.9713990     1.2224970    -0.0766470
  C        2.3756580    -1.2011840     0.0524460
  C        2.3651700     1.2207630    -0.0118790
  C        3.0655170     0.0141320     0.0587200
  H        0.4311260    -2.1548100    -0.0413950
  H        0.4102460     2.1495350    -0.1499850
  H        2.9234210    -2.1387710     0.0978390
  H        2.9045270     2.1643280    -0.0189110
  H        4.1538507     0.0189520     0.0592288
  H       -2.3021640     0.6943620     1.6969290
units angstrom
no_reorient  #important for SAPT in psi4, default
symmetry c1  #important for SAPT in psi4, default
}

set PROPERTIES_ORIGIN ["COM"]
properties('MP2/aug-cc-pvtz', properties = ['dipole'])
--------------------------------------------------------------------------

    Molecular point group: c1
  Charge       = 0
  Multiplicity = 1
  Basis Set: AUG-CC-PVTZ
    Blend: AUG-CC-PVTZ
  Basis Set: (AUG-CC-PVTZ AUX)
    Blend: AUG-CC-PVTZ-JKFIT

    Orbital Energies [Eh]
    ---------------------

    Doubly Occupied:

       1A    -92.233310     2A    -20.632751     3A    -20.569435
       4A    -20.565192     5A    -11.291540     6A    -11.277126
       7A    -11.276532     8A    -11.272607     9A    -11.265577
      10A    -11.265267    11A     -9.196192    12A     -6.881815
      13A     -6.880539    14A     -6.880287    15A     -1.497411
      16A     -1.383603    17A     -1.356117    18A     -1.189042
      19A     -1.067608    20A     -1.048973    21A     -0.928815
      22A     -0.861568    23A     -0.832527    24A     -0.759451
      25A     -0.735669    26A     -0.697353    27A     -0.684363
      28A     -0.661092    29A     -0.646961    30A     -0.629466
      31A     -0.621205    32A     -0.580737    33A     -0.553872
      34A     -0.537805    35A     -0.528864    36A     -0.520737
      37A     -0.509432    38A     -0.489330    39A     -0.481843
      40A     -0.376493    41A     -0.366888

  @DF-RHF Final Energy:  -852.95694481830037

   => Energetics <=

    Nuclear Repulsion Energy =            634.0619620270456380
    One-Electron Energy =               -2429.9670286138211850
    Two-Electron Energy =                 942.9481217684751755
    Total Energy =                       -852.9569448183003715
  Basis Set: (AUG-CC-PVTZ AUX)
    Blend: AUG-CC-PVTZ-RI
    Molecular point group: c1

    Geometry (in Angstrom), charge = 0, multiplicity = 1:

       Center              X                  Y                   Z               Mass
    ------------   -----------------  -----------------  -----------------  -----------------
         S           -1.412933562229    -0.009733122903    -0.126626004160    31.972071174400
         O           -1.786458562229    -0.131924122903     1.470061995840    15.994914619570
         O           -1.890557562229     1.302638877097    -0.560950004160    15.994914619570
         O           -1.843411562229    -1.245903122903    -0.759071004160    15.994914619570
         C            0.354678437771     0.002453877097    -0.066853004160    12.000000000000
         C            1.035844437771    -1.214920122903    -0.005692004160    12.000000000000
         C            1.024432437771     1.227114877097    -0.065714004160    12.000000000000
         C            2.428691437771    -1.196566122903     0.063378995840    12.000000000000
         C            2.418203437771     1.225380877097    -0.000946004160    12.000000000000
         C            3.118550437771     0.018749877097     0.069652995840    12.000000000000
         H            0.484159437771    -2.150192122903    -0.030462004160     1.007825032230
         H            0.463279437771     2.154152877097    -0.139052004160     1.007825032230
         H            2.976454437771    -2.134153122903     0.108771995840     1.007825032230
         H            2.957560437771     2.168945877097    -0.007978004160     1.007825032230
         H            4.206884137771     0.023569877097     0.070161795840     1.007825032230
         H           -2.249130562229     0.698979877097     1.707861995840     1.007825032230

  Basis Set: AUG-CC-PVTZ
    Blend: AUG-CC-PVTZ
  Basis Set: (AUG-CC-PVTZ AUX)
    Blend: AUG-CC-PVTZ-JKFIT
	 Reference Energy          =    -852.9569448183003715 [Eh]
	 Singles Energy            =      -0.0000000000000000 [Eh]
	 Same-Spin Energy          =      -0.5327166482739962 [Eh]
	 Opposite-Spin Energy      =      -1.5539396740675755 [Eh]
	 Correlation Energy        =      -2.0866563223415717 [Eh]
	 Total Energy              =    -855.0436011406419539 [Eh]

	 ================> DF-SCS-MP2 Energies <==================
	-----------------------------------------------------------
	 SCS Same-Spin Scale       =       0.3333333333333333 [-]
	 SCS Opposite-Spin Scale   =       1.2000000000000000 [-]
	 SCS Same-Spin Energy      =      -0.1775722160913321 [Eh]
	 SCS Opposite-Spin Energy  =      -1.8647276088810905 [Eh]
	 SCS Correlation Energy    =      -2.0422998249724227 [Eh]
	 SCS Total Energy          =    -854.9992446432728457 [Eh]
	-----------------------------------------------------------

  Dipole Moment: [D]
     X:     3.7730      Y:     1.0482      Z:     1.9370     Total:     4.3688

*** Psi4 exiting successfully. Buy a developer a beer!
