                               Psi4 1.3.2 release

  ==> Input File <==

--------------------------------------------------------------------------
#psi4
#
memory 32 gb

molecule  {
0 1
  S       -1.4659670    -0.0143510    -0.1375590
  O       -1.8394920    -0.1365420     1.4591290
  O       -1.9435910     1.2980210    -0.5718830
  O       -1.8964450    -1.2505210    -0.7700040
  C        0.3016450    -0.0021640    -0.0777860
  C        0.9828110    -1.2195380    -0.0166250
  C        0.9713990     1.2224970    -0.0766470
  C        2.3756580    -1.2011840     0.0524460
  C        2.3651700     1.2207630    -0.0118790
  C        3.0655170     0.0141320     0.0587200
  H        0.4311260    -2.1548100    -0.0413950
  H        0.4102460     2.1495350    -0.1499850
  H        2.9258600    -2.1398392     0.0479099
  H        2.9045270     2.1643280    -0.0189110
  H        4.1513520     0.0202670     0.1091490
  H       -2.3021640     0.6943620     1.6969290
units angstrom
no_reorient  #important for SAPT in psi4, default
symmetry c1  #important for SAPT in psi4, default
}

set PROPERTIES_ORIGIN ["COM"]
properties('MP2/aug-cc-pvtz', properties = ['dipole'])
--------------------------------------------------------------------------

    Molecular point group: c1
  Charge       = 0
  Multiplicity = 1
  Basis Set: AUG-CC-PVTZ
    Blend: AUG-CC-PVTZ
  Basis Set: (AUG-CC-PVTZ AUX)
    Blend: AUG-CC-PVTZ-JKFIT

    Orbital Energies [Eh]
    ---------------------

    Doubly Occupied:

       1A    -92.233296     2A    -20.632716     3A    -20.569436
       4A    -20.565192     5A    -11.291523     6A    -11.277150
       7A    -11.276537     8A    -11.272533     9A    -11.265570
      10A    -11.265332    11A     -9.196179    12A     -6.881804
      13A     -6.880527    14A     -6.880274    15A     -1.497398
      16A     -1.383584    17A     -1.356116    18A     -1.189042
      19A     -1.067632    20A     -1.048944    21A     -0.928854
      22A     -0.861506    23A     -0.832535    24A     -0.759410
      25A     -0.735692    26A     -0.697515    27A     -0.684366
      28A     -0.661075    29A     -0.646822    30A     -0.629471
      31A     -0.621131    32A     -0.581042    33A     -0.552872
      34A     -0.538691    35A     -0.528580    36A     -0.521208
      37A     -0.509497    38A     -0.489222    39A     -0.481545
      40A     -0.376542    41A     -0.366877

  @DF-RHF Final Energy:  -852.95695507114283

   => Energetics <=

    Nuclear Repulsion Energy =            634.0620581750822566
    One-Electron Energy =               -2429.9675492121896241
    Two-Electron Energy =                 942.9485359659645383
    Total Energy =                       -852.9569550711428292
  Basis Set: (AUG-CC-PVTZ AUX)
    Blend: AUG-CC-PVTZ-RI
    Molecular point group: c1

    Geometry (in Angstrom), charge = 0, multiplicity = 1:

       Center              X                  Y                   Z               Mass
    ------------   -----------------  -----------------  -----------------  -----------------
         S           -1.412933181433    -0.009734697114    -0.126625947391    31.972071174400
         O           -1.786458181433    -0.131925697114     1.470062052609    15.994914619570
         O           -1.890557181433     1.302637302886    -0.560949947391    15.994914619570
         O           -1.843411181433    -1.245904697114    -0.759070947391    15.994914619570
         C            0.354678818567     0.002452302886    -0.066852947391    12.000000000000
         C            1.035844818567    -1.214921697114    -0.005691947391    12.000000000000
         C            1.024432818567     1.227113302886    -0.065713947391    12.000000000000
         C            2.428691818567    -1.196567697114     0.063379052609    12.000000000000
         C            2.418203818567     1.225379302886    -0.000945947391    12.000000000000
         C            3.118550818567     0.018748302886     0.069653052609    12.000000000000
         H            0.484159818567    -2.150193697114    -0.030461947391     1.007825032230
         H            0.463279818567     2.154151302886    -0.139051947391     1.007825032230
         H            2.978893818567    -2.135222897114     0.058842952609     1.007825032230
         H            2.957560818567     2.168944302886    -0.007977947391     1.007825032230
         H            4.204385818567     0.024883302886     0.120082052609     1.007825032230
         H           -2.249130181433     0.698978302886     1.707862052609     1.007825032230

  Basis Set: AUG-CC-PVTZ
    Blend: AUG-CC-PVTZ
  Basis Set: (AUG-CC-PVTZ AUX)
    Blend: AUG-CC-PVTZ-JKFIT
	 Reference Energy          =    -852.9569550711428292 [Eh]
	 Singles Energy            =      -0.0000000000000000 [Eh]
	 Same-Spin Energy          =      -0.5327141640025741 [Eh]
	 Opposite-Spin Energy      =      -1.5539370124475698 [Eh]
	 Correlation Energy        =      -2.0866511764501441 [Eh]
	 Total Energy              =    -855.0436062475929475 [Eh]

	 ================> DF-SCS-MP2 Energies <==================
	-----------------------------------------------------------
	 SCS Same-Spin Scale       =       0.3333333333333333 [-]
	 SCS Opposite-Spin Scale   =       1.2000000000000000 [-]
	 SCS Same-Spin Energy      =      -0.1775713880008580 [Eh]
	 SCS Opposite-Spin Energy  =      -1.8647244149370836 [Eh]
	 SCS Correlation Energy    =      -2.0422958029379417 [Eh]
	 SCS Total Energy          =    -854.9992508740807580 [Eh]
	-----------------------------------------------------------

  Dipole Moment: [D]
     X:     3.7749      Y:     1.0503      Z:     1.9374     Total:     4.3711

*** Psi4 exiting successfully. Buy a developer a beer!
