                               Psi4 1.3.2 release

  ==> Input File <==

--------------------------------------------------------------------------
#psi4
#
memory 32 gb

molecule  {
0 1
  S       -1.4659670    -0.0143510    -0.1375590
  O       -1.8394920    -0.1365420     1.4591290
  O       -1.9435910     1.2980210    -0.5718830
  O       -1.8964450    -1.2505210    -0.7700040
  C        0.3016450    -0.0021640    -0.0777860
  C        0.9828110    -1.2195380    -0.0166250
  C        0.9713990     1.2224970    -0.0766470
  C        2.3756580    -1.2011840     0.0524460
  C        2.3651700     1.2207630    -0.0118790
  C        3.0655170     0.0141320     0.0587200
  H        0.4311260    -2.1548100    -0.0413950
  H        0.4102460     2.1495350    -0.1499850
  H        2.9234210    -2.1387710     0.0978390
  H        2.9045270     2.1643280    -0.0189110
  H        4.1613466     0.0150069    -0.0905318
  H       -2.3021640     0.6943620     1.6969290
units angstrom
no_reorient  #important for SAPT in psi4, default
symmetry c1  #important for SAPT in psi4, default
}

set PROPERTIES_ORIGIN ["COM"]
properties('MP2/aug-cc-pvtz', properties = ['dipole'])
--------------------------------------------------------------------------

    Molecular point group: c1
  Charge       = 0
  Multiplicity = 1
  Basis Set: AUG-CC-PVTZ
    Blend: AUG-CC-PVTZ
  Basis Set: (AUG-CC-PVTZ AUX)
    Blend: AUG-CC-PVTZ-JKFIT

    Orbital Energies [Eh]
    ---------------------

    Doubly Occupied:

       1A    -92.233472     2A    -20.632921     3A    -20.569555
       4A    -20.565309     5A    -11.291843     6A    -11.277221
       7A    -11.276629     8A    -11.274123     9A    -11.265873
      10A    -11.265574    11A     -9.196349    12A     -6.881970
      13A     -6.880699    14A     -6.880446    15A     -1.497548
      16A     -1.383741    17A     -1.356237    18A     -1.189158
      19A     -1.067318    20A     -1.049141    21A     -0.928367
      22A     -0.861702    23A     -0.831989    24A     -0.759527
      25A     -0.735293    26A     -0.695504    27A     -0.684061
      28A     -0.661211    29A     -0.646951    30A     -0.629469
      31A     -0.621345    32A     -0.579749    33A     -0.555826
      34A     -0.535572    35A     -0.529016    36A     -0.519382
      37A     -0.509468    38A     -0.489613    39A     -0.482325
      40A     -0.376130    41A     -0.367025

  @DF-RHF Final Energy:  -852.95438351613575

   => Energetics <=

    Nuclear Repulsion Energy =            633.9935587416431417
    One-Electron Energy =               -2429.8265816912226001
    Two-Electron Energy =                 942.8786394334438228
    Total Energy =                       -852.9543835161357492
  Basis Set: (AUG-CC-PVTZ AUX)
    Blend: AUG-CC-PVTZ-RI
    Molecular point group: c1

    Geometry (in Angstrom), charge = 0, multiplicity = 1:

       Center              X                  Y                   Z               Mass
    ------------   -----------------  -----------------  -----------------  -----------------
         S           -1.412981374733    -0.009707959132    -0.125670758053    31.972071174400
         O           -1.786506374733    -0.131898959132     1.471017241947    15.994914619570
         O           -1.890605374733     1.302664040868    -0.559994758053    15.994914619570
         O           -1.843459374733    -1.245877959132    -0.758115758053    15.994914619570
         C            0.354630625267     0.002479040868    -0.065897758053    12.000000000000
         C            1.035796625267    -1.214894959132    -0.004736758053    12.000000000000
         C            1.024384625267     1.227140040868    -0.064758758053    12.000000000000
         C            2.428643625267    -1.196540959132     0.064334241947    12.000000000000
         C            2.418155625267     1.225406040868     0.000009241947    12.000000000000
         C            3.118502625267     0.018775040868     0.070608241947    12.000000000000
         H            0.484111625267    -2.150166959132    -0.029506758053     1.007825032230
         H            0.463231625267     2.154178040868    -0.138096758053     1.007825032230
         H            2.976406625267    -2.134127959132     0.109727241947     1.007825032230
         H            2.957512625267     2.168971040868    -0.007022758053     1.007825032230
         H            4.214332225267     0.019649940868    -0.078643558053     1.007825032230
         H           -2.249178374733     0.699005040868     1.708817241947     1.007825032230

  Basis Set: AUG-CC-PVTZ
    Blend: AUG-CC-PVTZ
  Basis Set: (AUG-CC-PVTZ AUX)
    Blend: AUG-CC-PVTZ-JKFIT
	 Reference Energy          =    -852.9543835161357492 [Eh]
	 Singles Energy            =      -0.0000000000000000 [Eh]
	 Same-Spin Energy          =      -0.5328611193183461 [Eh]
	 Opposite-Spin Energy      =      -1.5543058316263203 [Eh]
	 Correlation Energy        =      -2.0871669509446664 [Eh]
	 Total Energy              =    -855.0415504670804694 [Eh]

	 ================> DF-SCS-MP2 Energies <==================
	-----------------------------------------------------------
	 SCS Same-Spin Scale       =       0.3333333333333333 [-]
	 SCS Opposite-Spin Scale   =       1.2000000000000000 [-]
	 SCS Same-Spin Energy      =      -0.1776203731061154 [Eh]
	 SCS Opposite-Spin Energy  =      -1.8651669979515844 [Eh]
	 SCS Correlation Energy    =      -2.0427873710576998 [Eh]
	 SCS Total Energy          =    -854.9971708871934197 [Eh]
	-----------------------------------------------------------

  Dipole Moment: [D]
     X:     3.7456      Y:     1.0455      Z:     1.8433     Total:     4.3035

*** Psi4 exiting successfully. Buy a developer a beer!
