                               Psi4 1.3.2 release

  ==> Input File <==

--------------------------------------------------------------------------
#psi4
#
memory 32 gb

molecule  {
0 1
  S       -1.4659670    -0.0143510    -0.1375590
  O       -1.8394920    -0.1365420     1.4591290
  O       -1.9435910     1.2980210    -0.5718830
  O       -1.8964450    -1.2505210    -0.7700040
  C        0.3016450    -0.0021640    -0.0777860
  C        0.9828110    -1.2195380    -0.0166250
  C        0.9713990     1.2224970    -0.0766470
  C        2.3756580    -1.2011840     0.0524460
  C        2.3651700     1.2207630    -0.0118790
  C        3.0655170     0.0141320     0.0587200
  H        0.4393522    -2.1568469    -0.1911554
  H        0.4102460     2.1495350    -0.1499850
  H        2.9234210    -2.1387710     0.0978390
  H        2.9045270     2.1643280    -0.0189110
  H        4.1513520     0.0202670     0.1091490
  H       -2.3021640     0.6943620     1.6969290
units angstrom
no_reorient  #important for SAPT in psi4, default
symmetry c1  #important for SAPT in psi4, default
}

set PROPERTIES_ORIGIN ["COM"]
properties('MP2/aug-cc-pvtz', properties = ['dipole'])
--------------------------------------------------------------------------

    Molecular point group: c1
  Charge       = 0
  Multiplicity = 1
  Basis Set: AUG-CC-PVTZ
    Blend: AUG-CC-PVTZ
  Basis Set: (AUG-CC-PVTZ AUX)
    Blend: AUG-CC-PVTZ-JKFIT

    Orbital Energies [Eh]
    ---------------------

    Doubly Occupied:

       1A    -92.233334     2A    -20.632768     3A    -20.569374
       4A    -20.565191     5A    -11.291680     6A    -11.277166
       7A    -11.277025     8A    -11.272495     9A    -11.265753
      10A    -11.265372    11A     -9.196211    12A     -6.881828
      13A     -6.880564    14A     -6.880312    15A     -1.497390
      16A     -1.383573    17A     -1.356128    18A     -1.189005
      19A     -1.067614    20A     -1.048680    21A     -0.928815
      22A     -0.860992    23A     -0.832398    24A     -0.759319
      25A     -0.735269    26A     -0.696718    27A     -0.684411
      28A     -0.661009    29A     -0.646616    30A     -0.629473
      31A     -0.620235    32A     -0.581334    33A     -0.551466
      34A     -0.539388    35A     -0.527825    36A     -0.521003
      37A     -0.509541    38A     -0.489157    39A     -0.481713
      40A     -0.376517    41A     -0.366676

  @DF-RHF Final Energy:  -852.95548810395735

   => Energetics <=

    Nuclear Repulsion Energy =            634.0143107755537812
    One-Electron Energy =               -2429.8769210473024032
    Two-Electron Energy =                 942.9071221677911581
    Total Energy =                       -852.9554881039573502
  Basis Set: (AUG-CC-PVTZ AUX)
    Blend: AUG-CC-PVTZ-RI
    Molecular point group: c1

    Geometry (in Angstrom), charge = 0, multiplicity = 1:

       Center              X                  Y                   Z               Mass
    ------------   -----------------  -----------------  -----------------  -----------------
         S           -1.412970095016    -0.009728518273    -0.125989174698    31.972071174400
         O           -1.786495095016    -0.131919518273     1.470698825302    15.994914619570
         O           -1.890594095016     1.302643481727    -0.560313174698    15.994914619570
         O           -1.843448095016    -1.245898518273    -0.758434174698    15.994914619570
         C            0.354641904984     0.002458481727    -0.066216174698    12.000000000000
         C            1.035807904984    -1.214915518273    -0.005055174698    12.000000000000
         C            1.024395904984     1.227119481727    -0.065077174698    12.000000000000
         C            2.428654904984    -1.196561518273     0.064015825302    12.000000000000
         C            2.418166904984     1.225385481727    -0.000309174698    12.000000000000
         C            3.118513904984     0.018754481727     0.070289825302    12.000000000000
         H            0.492349104984    -2.152224418273    -0.179585574698     1.007825032230
         H            0.463242904984     2.154157481727    -0.138415174698     1.007825032230
         H            2.976417904984    -2.134148518273     0.109408825302     1.007825032230
         H            2.957523904984     2.168950481727    -0.007341174698     1.007825032230
         H            4.204348904984     0.024889481727     0.120718825302     1.007825032230
         H           -2.249167095016     0.698984481727     1.708498825302     1.007825032230

  Basis Set: AUG-CC-PVTZ
    Blend: AUG-CC-PVTZ
  Basis Set: (AUG-CC-PVTZ AUX)
    Blend: AUG-CC-PVTZ-JKFIT
	 Reference Energy          =    -852.9554881039573502 [Eh]
	 Singles Energy            =      -0.0000000000000000 [Eh]
	 Same-Spin Energy          =      -0.5328333373284497 [Eh]
	 Opposite-Spin Energy      =      -1.5541408829257422 [Eh]
	 Correlation Energy        =      -2.0869742202541919 [Eh]
	 Total Energy              =    -855.0424623242115558 [Eh]

	 ================> DF-SCS-MP2 Energies <==================
	-----------------------------------------------------------
	 SCS Same-Spin Scale       =       0.3333333333333333 [-]
	 SCS Opposite-Spin Scale   =       1.2000000000000000 [-]
	 SCS Same-Spin Energy      =      -0.1776111124428166 [Eh]
	 SCS Opposite-Spin Energy  =      -1.8649690595108905 [Eh]
	 SCS Correlation Energy    =      -2.0425801719537073 [Eh]
	 SCS Total Energy          =    -854.9980682759110096 [Eh]
	-----------------------------------------------------------

  Dipole Moment: [D]
     X:     3.7850      Y:     1.0624      Z:     1.8783     Total:     4.3569

*** Psi4 exiting successfully. Buy a developer a beer!
