                               Psi4 1.3.2 release

  ==> Input File <==

--------------------------------------------------------------------------
#psi4
#
memory 32 gb

molecule  {
0 1
  S       -1.4659670    -0.0143510    -0.1375590
  O       -1.8394920    -0.1365420     1.4591290
  O       -1.9435910     1.2980210    -0.5718830
  O       -1.8964450    -1.2505210    -0.7700040
  C        0.3016450    -0.0021640    -0.0777860
  C        0.9828110    -1.2195380    -0.0166250
  C        0.9713990     1.2224970    -0.0766470
  C        2.3756580    -1.2011840     0.0524460
  C        2.3651700     1.2207630    -0.0118790
  C        3.0655170     0.0141320     0.0587200
  H        0.4475784    -2.1588839    -0.3409158
  H        0.4102460     2.1495350    -0.1499850
  H        2.9234210    -2.1387710     0.0978390
  H        2.9045270     2.1643280    -0.0189110
  H        4.1513520     0.0202670     0.1091490
  H       -2.3021640     0.6943620     1.6969290
units angstrom
no_reorient  #important for SAPT in psi4, default
symmetry c1  #important for SAPT in psi4, default
}

set PROPERTIES_ORIGIN ["COM"]
properties('MP2/aug-cc-pvtz', properties = ['dipole'])
--------------------------------------------------------------------------

    Molecular point group: c1
  Charge       = 0
  Multiplicity = 1
  Basis Set: AUG-CC-PVTZ
    Blend: AUG-CC-PVTZ
  Basis Set: (AUG-CC-PVTZ AUX)
    Blend: AUG-CC-PVTZ-JKFIT

    Orbital Energies [Eh]
    ---------------------

    Doubly Occupied:

       1A    -92.233304     2A    -20.632795     3A    -20.569289
       4A    -20.565051     5A    -11.292053     6A    -11.279051
       7A    -11.277295     8A    -11.272563     9A    -11.266275
      10A    -11.265802    11A     -9.196179    12A     -6.881788
      13A     -6.880539    14A     -6.880283    15A     -1.497319
      16A     -1.383505    17A     -1.356052    18A     -1.189008
      19A     -1.067639    20A     -1.048064    21A     -0.928664
      22A     -0.859742    23A     -0.832116    24A     -0.758710
      25A     -0.734531    26A     -0.695005    27A     -0.684283
      28A     -0.660935    29A     -0.645700    30A     -0.629444
      31A     -0.617599    32A     -0.581562    33A     -0.550018
      34A     -0.541036    35A     -0.525171    36A     -0.519856
      37A     -0.509492    38A     -0.488858    39A     -0.481700
      40A     -0.376549    41A     -0.366208

  @DF-RHF Final Energy:  -852.95030002935471

   => Energetics <=

    Nuclear Repulsion Energy =            633.8762817169692880
    One-Electron Energy =               -2429.6110942611840073
    Two-Electron Energy =                 942.7845125148600118
    Total Energy =                       -852.9503000293547075
  Basis Set: (AUG-CC-PVTZ AUX)
    Blend: AUG-CC-PVTZ-RI
    Molecular point group: c1

    Geometry (in Angstrom), charge = 0, multiplicity = 1:

       Center              X                  Y                   Z               Mass
    ------------   -----------------  -----------------  -----------------  -----------------
         S           -1.413022565729    -0.009715525294    -0.125033929867    31.972071174400
         O           -1.786547565729    -0.131906525294     1.471654070133    15.994914619570
         O           -1.890646565729     1.302656474706    -0.559357929867    15.994914619570
         O           -1.843500565729    -1.245885525294    -0.757478929867    15.994914619570
         C            0.354589434271     0.002471474706    -0.065260929867    12.000000000000
         C            1.035755434271    -1.214902525294    -0.004099929867    12.000000000000
         C            1.024343434271     1.227132474706    -0.064121929867    12.000000000000
         C            2.428602434271    -1.196548525294     0.064971070133    12.000000000000
         C            2.418114434271     1.225398474706     0.000646070133    12.000000000000
         C            3.118461434271     0.018767474706     0.071245070133    12.000000000000
         H            0.500522834271    -2.154248425294    -0.328390729867     1.007825032230
         H            0.463190434271     2.154170474706    -0.137459929867     1.007825032230
         H            2.976365434271    -2.134135525294     0.110364070133     1.007825032230
         H            2.957471434271     2.168963474706    -0.006385929867     1.007825032230
         H            4.204296434271     0.024902474706     0.121674070133     1.007825032230
         H           -2.249219565729     0.698997474706     1.709454070133     1.007825032230

  Basis Set: AUG-CC-PVTZ
    Blend: AUG-CC-PVTZ
  Basis Set: (AUG-CC-PVTZ AUX)
    Blend: AUG-CC-PVTZ-JKFIT
	 Reference Energy          =    -852.9503000293547075 [Eh]
	 Singles Energy            =      -0.0000000000000000 [Eh]
	 Same-Spin Energy          =      -0.5331592586951023 [Eh]
	 Opposite-Spin Energy      =      -1.5548407085477662 [Eh]
	 Correlation Energy        =      -2.0879999672428684 [Eh]
	 Total Energy              =    -855.0382999965976296 [Eh]

	 ================> DF-SCS-MP2 Energies <==================
	-----------------------------------------------------------
	 SCS Same-Spin Scale       =       0.3333333333333333 [-]
	 SCS Opposite-Spin Scale   =       1.2000000000000000 [-]
	 SCS Same-Spin Energy      =      -0.1777197528983674 [Eh]
	 SCS Opposite-Spin Energy  =      -1.8658088502573194 [Eh]
	 SCS Correlation Energy    =      -2.0435286031556870 [Eh]
	 SCS Total Energy          =    -854.9938286325103718 [Eh]
	-----------------------------------------------------------

  Dipole Moment: [D]
     X:     3.8089      Y:     1.0959      Z:     1.7891     Total:     4.3485

*** Psi4 exiting successfully. Buy a developer a beer!
