                               Psi4 1.4a3.dev225

  ==> Input File <==

--------------------------------------------------------------------------
#psi4
#
memory 32 gb

molecule  {
0 1
  O       -2.7161510     1.3794200    -0.1343610
  C       -2.7832390     0.0721360     0.4401970
  C       -1.3979030    -0.4954620     0.4743180
  C        3.5083460    -0.4405980    -0.4123350
  C       -3.7239960    -0.8239440    -0.3625680
  C       -0.3030690     0.1219220    -0.0067100
  C        2.1282810     0.1394430    -0.4544070
  C        1.0245920    -0.4684390     0.0236420
  C        4.4606410     0.4027870     0.4416180
  H       -3.1581590     0.1412460     1.4762970
  H       -1.3112260    -1.4900120     0.9147240
  H        3.4619600    -1.4629760    -0.0187660
  H        3.9104550    -0.5133060    -1.4317100
  H       -3.3684670    -0.8811940    -1.3941910
  H       -3.7626400    -1.8335820     0.0574350
  H       -4.7426360    -0.4191700    -0.3608330
  H       -0.4059543     1.0966546    -0.4308954
  H        2.0311270     1.1370710    -0.8883280
  H        1.1170930    -1.4649260     0.4609700
  H        4.5263310     1.4251690     0.0574090
  H        5.4690900    -0.0219830     0.4454750
  H        4.1044230     0.4539160     1.4740500
  H       -3.6221830     1.7324190    -0.1413340
units angstrom
no_reorient  #important for SAPT in psi4, default
symmetry c1  #important for SAPT in psi4, default
}

set PROPERTIES_ORIGIN ["COM"]
properties('MP2/aug-cc-pvtz', properties = ['dipole'])
--------------------------------------------------------------------------

    Molecular point group: c1
  Charge       = 0
  Multiplicity = 1
  Basis Set: AUG-CC-PVTZ
    Blend: AUG-CC-PVTZ
  Basis Set: (AUG-CC-PVTZ AUX)
    Blend: AUG-CC-PVTZ-JKFIT

    Orbital Energies [Eh]
    ---------------------

    Doubly Occupied:

       1A    -20.558866     2A    -11.287028     3A    -11.226473
       4A    -11.223854     5A    -11.223628     6A    -11.223457
       7A    -11.220954     8A    -11.220817     9A    -11.213128
      10A     -1.360175    11A     -1.097388    12A     -1.060730
      13A     -1.015803    14A     -0.962162    15A     -0.876561
      16A     -0.828563    17A     -0.752394    18A     -0.750098
      19A     -0.694958    20A     -0.637900    21A     -0.627357
      22A     -0.616621    23A     -0.589978    24A     -0.582824
      25A     -0.546605    26A     -0.543853    27A     -0.527405
      28A     -0.518469    29A     -0.502179    30A     -0.492703
      31A     -0.479283    32A     -0.467966    33A     -0.452858
      34A     -0.417854    35A     -0.297301

  @DF-RHF Final Energy:  -386.06251457548302

   => Energetics <=

    Nuclear Repulsion Energy =            417.5908814061618273
    One-Electron Energy =               -1351.1104062296665234
    Two-Electron Energy =                 547.4570102480216747
    Total Energy =                       -386.0625145754830783
  Basis Set: (AUG-CC-PVTZ AUX)
    Blend: AUG-CC-PVTZ-RI
    Molecular point group: c1

    Geometry (in Angstrom), charge = 0, multiplicity = 1:

       Center              X                  Y                   Z               Mass
    ------------   -----------------  -----------------  -----------------  -----------------
         O           -2.682858733922     1.363237116338    -0.132759103920    15.994914619570
         C           -2.749946733922     0.055953116338     0.441798896080    12.000000000000
         C           -1.364610733922    -0.511644883662     0.475919896080    12.000000000000
         C            3.541638266078    -0.456780883662    -0.410733103920    12.000000000000
         C           -3.690703733922    -0.840126883662    -0.360966103920    12.000000000000
         C           -0.269776733922     0.105739116338    -0.005108103920    12.000000000000
         C            2.161573266078     0.123260116338    -0.452805103920    12.000000000000
         C            1.057884266078    -0.484621883662     0.025243896080    12.000000000000
         C            4.493933266078     0.386604116338     0.443219896080    12.000000000000
         H           -3.124866733922     0.125063116338     1.477898896080     1.007825032230
         H           -1.277933733922    -1.506194883662     0.916325896080     1.007825032230
         H            3.495252266078    -1.479158883662    -0.017164103920     1.007825032230
         H            3.943747266078    -0.529488883662    -1.430108103920     1.007825032230
         H           -3.335174733922    -0.897376883662    -1.392589103920     1.007825032230
         H           -3.729347733922    -1.849764883662     0.059036896080     1.007825032230
         H           -4.709343733922    -0.435352883662    -0.359231103920     1.007825032230
         H           -0.372662033922     1.080471716338    -0.429293503920     1.007825032230
         H            2.064419266078     1.120888116338    -0.886726103920     1.007825032230
         H            1.150385266078    -1.481108883662     0.462571896080     1.007825032230
         H            4.559623266078     1.408986116338     0.059010896080     1.007825032230
         H            5.502382266078    -0.038165883662     0.447076896080     1.007825032230
         H            4.137715266078     0.437733116338     1.475651896080     1.007825032230
         H           -3.588890733922     1.716236116338    -0.139732103920     1.007825032230

  Basis Set: AUG-CC-PVTZ
    Blend: AUG-CC-PVTZ
  Basis Set: (AUG-CC-PVTZ AUX)
    Blend: AUG-CC-PVTZ-JKFIT
	 Reference Energy          =    -386.0625145754830214 [Eh]
	 Singles Energy            =      -0.0000000000000000 [Eh]
	 Same-Spin Energy          =      -0.4002009908469397 [Eh]
	 Opposite-Spin Energy      =      -1.3782541731483413 [Eh]
	 Correlation Energy        =      -1.7784551639952810 [Eh]
	 Total Energy              =    -387.8409697394782825 [Eh]

	 ================> DF-SCS-MP2 Energies <==================
	-----------------------------------------------------------
	 SCS Same-Spin Scale       =       0.3333333333333333 [-]
	 SCS Opposite-Spin Scale   =       1.2000000000000000 [-]
	 SCS Same-Spin Energy      =      -0.1334003302823132 [Eh]
	 SCS Opposite-Spin Energy  =      -1.6539050077780095 [Eh]
	 SCS Correlation Energy    =      -1.7873053380603228 [Eh]
	 SCS Total Energy          =    -387.8498199135433424 [Eh]
	-----------------------------------------------------------

  Dipole Moment: [D]
     X:    -1.2097      Y:    -0.6845      Z:     0.3905     Total:     1.4437

*** Psi4 exiting successfully. Buy a developer a beer!
