                               Psi4 1.3.2 release

  ==> Input File <==

--------------------------------------------------------------------------
#psi4
#
memory 32 gb

molecule  {
0 1
  O        2.6932640    -1.3344870    -0.0264310
  C        2.7508540     0.0254460     0.4069810
  C        1.3606810     0.5764810     0.3953890
  C       -3.5492030     0.3621160    -0.4101590
  C        3.6709050     0.8409920    -0.4958550
  C        0.2704120    -0.1024690    -0.0006590
  C       -2.1761161    -0.1813281    -0.4047985
  C       -1.0635270     0.4697970    -0.0176060
  C       -4.4702810    -0.3835230     0.5583970
  H        3.1361180     0.0688010     1.4404840
  H        1.2655190     1.6118880     0.7253080
  H       -3.5113520     1.4248880    -0.1442750
  H       -3.9713450     0.3050270    -1.4220020
  H        3.3060070     0.7827570    -1.5237190
  H        3.6990520     1.8899320    -0.1870900
  H        4.6948240     0.4527130    -0.4608140
  H        0.3841050    -1.1350190    -0.3229170
  H       -2.0573220    -1.2386810    -0.7303930
  H       -1.1835568     1.5065555     0.3032514
  H       -4.5255200    -1.4457790     0.3033390
  H       -5.4853170     0.0231860     0.5310900
  H       -4.0942820    -0.3029910     1.5815520
  H        3.6028580    -1.6773980    -0.0043180
units angstrom
no_reorient  #important for SAPT in psi4, default
symmetry c1  #important for SAPT in psi4, default
}

set PROPERTIES_ORIGIN ["COM"]
properties('MP2/aug-cc-pvtz', properties = ['dipole'])
--------------------------------------------------------------------------

    Molecular point group: c1
  Charge       = 0
  Multiplicity = 1
  Basis Set: AUG-CC-PVTZ
    Blend: AUG-CC-PVTZ
  Basis Set: (AUG-CC-PVTZ AUX)
    Blend: AUG-CC-PVTZ-JKFIT

    Orbital Energies [Eh]
    ---------------------

    Doubly Occupied:

       1A    -20.558836     2A    -11.286693     3A    -11.226445
       4A    -11.224175     5A    -11.222956     6A    -11.222623
       7A    -11.222289     8A    -11.220700     9A    -11.213287
      10A     -1.360746    11A     -1.098741    12A     -1.063016
      13A     -1.016580    14A     -0.962663    15A     -0.877887
      16A     -0.829952    17A     -0.749827    18A     -0.747477
      19A     -0.695476    20A     -0.637011    21A     -0.629343
      22A     -0.616823    23A     -0.590808    24A     -0.583627
      25A     -0.546483    26A     -0.542431    27A     -0.525567
      28A     -0.520680    29A     -0.501691    30A     -0.492765
      31A     -0.476619    32A     -0.470029    33A     -0.453114
      34A     -0.418025    35A     -0.297403

  @DF-RHF Final Energy:  -386.06152574429353

   => Energetics <=

    Nuclear Repulsion Energy =            418.0976760623899509
    One-Electron Energy =               -1352.1128308131776521
    Two-Electron Energy =                 547.9536290064942250
    Total Energy =                       -386.0615257442934762
  Basis Set: (AUG-CC-PVTZ AUX)
    Blend: AUG-CC-PVTZ-RI
    Molecular point group: c1

    Geometry (in Angstrom), charge = 0, multiplicity = 1:

       Center              X                  Y                   Z               Mass
    ------------   -----------------  -----------------  -----------------  -----------------
         O            2.694644423620    -1.336300950474    -0.026809330172    15.994914619570
         C            2.752234423620     0.023632049526     0.406602669828    12.000000000000
         C            1.362061423620     0.574667049526     0.395010669828    12.000000000000
         C           -3.547822576380     0.360302049526    -0.410537330172    12.000000000000
         C            3.672285423620     0.839178049526    -0.496233330172    12.000000000000
         C            0.271792423620    -0.104282950474    -0.001037330172    12.000000000000
         C           -2.174735676380    -0.183142050474    -0.405176830172    12.000000000000
         C           -1.062146576380     0.467983049526    -0.017984330172    12.000000000000
         C           -4.468900576380    -0.385336950474     0.558018669828    12.000000000000
         H            3.137498423620     0.066987049526     1.440105669828     1.007825032230
         H            1.266899423620     1.610074049526     0.724929669828     1.007825032230
         H           -3.509971576380     1.423074049526    -0.144653330172     1.007825032230
         H           -3.969964576380     0.303213049526    -1.422380330172     1.007825032230
         H            3.307387423620     0.780943049526    -1.524097330172     1.007825032230
         H            3.700432423620     1.888118049526    -0.187468330172     1.007825032230
         H            4.696204423620     0.450899049526    -0.461192330172     1.007825032230
         H            0.385485423620    -1.136832950474    -0.323295330172     1.007825032230
         H           -2.055941576380    -1.240494950474    -0.730771330172     1.007825032230
         H           -1.182176376380     1.504741549526     0.302873069828     1.007825032230
         H           -4.524139576380    -1.447592950474     0.302960669828     1.007825032230
         H           -5.483936576380     0.021372049526     0.530711669828     1.007825032230
         H           -4.092901576380    -0.304804950474     1.581173669828     1.007825032230
         H            3.604238423620    -1.679211950474    -0.004696330172     1.007825032230

  Basis Set: AUG-CC-PVTZ
    Blend: AUG-CC-PVTZ
  Basis Set: (AUG-CC-PVTZ AUX)
    Blend: AUG-CC-PVTZ-JKFIT
	 Reference Energy          =    -386.0615257442935331 [Eh]
	 Singles Energy            =      -0.0000000000000000 [Eh]
	 Same-Spin Energy          =      -0.4005918704386303 [Eh]
	 Opposite-Spin Energy      =      -1.3785719173918540 [Eh]
	 Correlation Energy        =      -1.7791637878304842 [Eh]
	 Total Energy              =    -387.8406895321240313 [Eh]

	 ================> DF-SCS-MP2 Energies <==================
	-----------------------------------------------------------
	 SCS Same-Spin Scale       =       0.3333333333333333 [-]
	 SCS Opposite-Spin Scale   =       1.2000000000000000 [-]
	 SCS Same-Spin Energy      =      -0.1335306234795434 [Eh]
	 SCS Opposite-Spin Energy  =      -1.6542863008702249 [Eh]
	 SCS Correlation Energy    =      -1.7878169243497684 [Eh]
	 SCS Total Energy          =    -387.8493426686433168 [Eh]
	-----------------------------------------------------------

  Dipole Moment: [D]
     X:     1.1937      Y:     0.7383      Z:     0.3129     Total:     1.4380

*** Psi4 exiting successfully. Buy a developer a beer!
