                               Psi4 1.3.2 release

  ==> Input File <==

--------------------------------------------------------------------------
#psi4
#
memory 32 gb

molecule  {
0 1
  O        2.6932640    -1.3344870    -0.0264310
  C        2.7508540     0.0254460     0.4069810
  C        1.3606810     0.5764810     0.3953890
  C       -3.5492030     0.3621160    -0.4101590
  C        3.6709050     0.8409920    -0.4958550
  C        0.2704120    -0.1024690    -0.0006590
  C       -2.1631840    -0.2004740    -0.4090490
  C       -1.0635270     0.4697970    -0.0176060
  C       -4.4678340    -0.3949124     0.5518639
  H        3.1361180     0.0688010     1.4404840
  H        1.2655190     1.6118880     0.7253080
  H       -3.5053521     1.4264536    -0.1515590
  H       -3.9713450     0.3050270    -1.4220020
  H        3.3060070     0.7827570    -1.5237190
  H        3.6990520     1.8899320    -0.1870900
  H        4.6948240     0.4527130    -0.4608140
  H        0.3841050    -1.1350190    -0.3229170
  H       -2.0573220    -1.2386810    -0.7303930
  H       -1.1648060     1.5075440     0.3065060
  H       -4.5255200    -1.4457790     0.3033390
  H       -5.4853170     0.0231860     0.5310900
  H       -4.0942820    -0.3029910     1.5815520
  H        3.6028580    -1.6773980    -0.0043180
units angstrom
no_reorient  #important for SAPT in psi4, default
symmetry c1  #important for SAPT in psi4, default
}

set PROPERTIES_ORIGIN ["COM"]
properties('MP2/aug-cc-pvtz', properties = ['dipole'])
--------------------------------------------------------------------------

    Molecular point group: c1
  Charge       = 0
  Multiplicity = 1
  Basis Set: AUG-CC-PVTZ
    Blend: AUG-CC-PVTZ
  Basis Set: (AUG-CC-PVTZ AUX)
    Blend: AUG-CC-PVTZ-JKFIT

    Orbital Energies [Eh]
    ---------------------

    Doubly Occupied:

       1A    -20.558646     2A    -11.286416     3A    -11.225804
       4A    -11.223549     5A    -11.223283     6A    -11.222864
       7A    -11.221661     8A    -11.220503     9A    -11.212974
      10A     -1.360542    11A     -1.097828    12A     -1.061337
      13A     -1.016093    14A     -0.962372    15A     -0.876617
      16A     -0.828675    17A     -0.752492    18A     -0.747986
      19A     -0.695215    20A     -0.637388    21A     -0.627712
      22A     -0.616719    23A     -0.589889    24A     -0.582522
      25A     -0.546674    26A     -0.543839    27A     -0.528110
      28A     -0.518387    29A     -0.499917    30A     -0.491963
      31A     -0.480728    32A     -0.467321    33A     -0.452904
      34A     -0.418146    35A     -0.297329

  @DF-RHF Final Energy:  -386.06235404598999

   => Energetics <=

    Nuclear Repulsion Energy =            418.0222648159831351
    One-Electron Energy =               -1351.9804272163869427
    Two-Electron Energy =                 547.8958083544138162
    Total Energy =                       -386.0623540459899914
  Basis Set: (AUG-CC-PVTZ AUX)
    Blend: AUG-CC-PVTZ-RI
    Molecular point group: c1

    Geometry (in Angstrom), charge = 0, multiplicity = 1:

       Center              X                  Y                   Z               Mass
    ------------   -----------------  -----------------  -----------------  -----------------
         O            2.692983153538    -1.333415648087    -0.025750968518    15.994914619570
         C            2.750573153538     0.026517351913     0.407661031482    12.000000000000
         C            1.360400153538     0.577552351913     0.396069031482    12.000000000000
         C           -3.549483846462     0.363187351913    -0.409478968518    12.000000000000
         C            3.670624153538     0.842063351913    -0.495174968518    12.000000000000
         C            0.270131153538    -0.101397648087     0.000021031482    12.000000000000
         C           -2.163464846462    -0.199402648087    -0.408368968518    12.000000000000
         C           -1.063807846462     0.470868351913    -0.016925968518    12.000000000000
         C           -4.468114846462    -0.393841048087     0.552543931482    12.000000000000
         H            3.135837153538     0.069872351913     1.441164031482     1.007825032230
         H            1.265238153538     1.612959351913     0.725988031482     1.007825032230
         H           -3.505632946462     1.427524951913    -0.150878968518     1.007825032230
         H           -3.971625846462     0.306098351913    -1.421321968518     1.007825032230
         H            3.305726153538     0.783828351913    -1.523038968518     1.007825032230
         H            3.698771153538     1.891003351913    -0.186409968518     1.007825032230
         H            4.694543153538     0.453784351913    -0.460133968518     1.007825032230
         H            0.383824153538    -1.133947648087    -0.322236968518     1.007825032230
         H           -2.057602846462    -1.237609648087    -0.729712968518     1.007825032230
         H           -1.165086846462     1.508615351913     0.307186031482     1.007825032230
         H           -4.525800846462    -1.444707648087     0.304019031482     1.007825032230
         H           -5.485597846462     0.024257351913     0.531770031482     1.007825032230
         H           -4.094562846462    -0.301919648087     1.582232031482     1.007825032230
         H            3.602577153538    -1.676326648087    -0.003637968518     1.007825032230

  Basis Set: AUG-CC-PVTZ
    Blend: AUG-CC-PVTZ
  Basis Set: (AUG-CC-PVTZ AUX)
    Blend: AUG-CC-PVTZ-JKFIT
	 Reference Energy          =    -386.0623540459899914 [Eh]
	 Singles Energy            =      -0.0000000000000000 [Eh]
	 Same-Spin Energy          =      -0.4003643491524438 [Eh]
	 Opposite-Spin Energy      =      -1.3783365766556521 [Eh]
	 Correlation Energy        =      -1.7787009258080959 [Eh]
	 Total Energy              =    -387.8410549717980871 [Eh]

	 ================> DF-SCS-MP2 Energies <==================
	-----------------------------------------------------------
	 SCS Same-Spin Scale       =       0.3333333333333333 [-]
	 SCS Opposite-Spin Scale   =       1.2000000000000000 [-]
	 SCS Same-Spin Energy      =      -0.1334547830508146 [Eh]
	 SCS Opposite-Spin Energy  =      -1.6540038919867825 [Eh]
	 SCS Correlation Energy    =      -1.7874586750375971 [Eh]
	 SCS Total Energy          =    -387.8498127210276039 [Eh]
	-----------------------------------------------------------

  Dipole Moment: [D]
     X:     1.1998      Y:     0.7222      Z:     0.3050     Total:     1.4332

*** Psi4 exiting successfully. Buy a developer a beer!
