                               Psi4 1.3.2 release

  ==> Input File <==

--------------------------------------------------------------------------
#psi4
#
memory 32 gb

molecule  {
0 1
  O        2.6932640    -1.3344870    -0.0264310
  C        2.7508540     0.0254460     0.4069810
  C        1.3606810     0.5764810     0.3953890
  C       -3.5668853     0.3160965    -0.4273540
  C        3.6709050     0.8409920    -0.4958550
  C        0.2704120    -0.1024690    -0.0006590
  C       -2.1631840    -0.2004740    -0.4090490
  C       -1.0635270     0.4697970    -0.0176060
  C       -4.4702810    -0.3835230     0.5583970
  H        3.1361180     0.0688010     1.4404840
  H        1.2655190     1.6118880     0.7253080
  H       -3.5113520     1.4248880    -0.1442750
  H       -3.9713450     0.3050270    -1.4220020
  H        3.3060070     0.7827570    -1.5237190
  H        3.6990520     1.8899320    -0.1870900
  H        4.6948240     0.4527130    -0.4608140
  H        0.3841050    -1.1350190    -0.3229170
  H       -2.0950172    -1.2401403    -0.7358361
  H       -1.1648060     1.5075440     0.3065060
  H       -4.5255200    -1.4457790     0.3033390
  H       -5.4853170     0.0231860     0.5310900
  H       -4.0942820    -0.3029910     1.5815520
  H        3.6028580    -1.6773980    -0.0043180
units angstrom
no_reorient  #important for SAPT in psi4, default
symmetry c1  #important for SAPT in psi4, default
}

set PROPERTIES_ORIGIN ["COM"]
properties('MP2/aug-cc-pvtz', properties = ['dipole'])
--------------------------------------------------------------------------

    Molecular point group: c1
  Charge       = 0
  Multiplicity = 1
  Basis Set: AUG-CC-PVTZ
    Blend: AUG-CC-PVTZ
  Basis Set: (AUG-CC-PVTZ AUX)
    Blend: AUG-CC-PVTZ-JKFIT

    Orbital Energies [Eh]
    ---------------------

    Doubly Occupied:

       1A    -20.558856     2A    -11.286744     3A    -11.226558
       4A    -11.224838     5A    -11.223863     6A    -11.223750
       7A    -11.222258     8A    -11.220745     9A    -11.212233
      10A     -1.360767    11A     -1.098090    12A     -1.062562
      13A     -1.017801    14A     -0.963642    15A     -0.877272
      16A     -0.828455    17A     -0.750894    18A     -0.748338
      19A     -0.695537    20A     -0.637265    21A     -0.629910
      22A     -0.616782    23A     -0.591264    24A     -0.582713
      25A     -0.546846    26A     -0.545231    27A     -0.527969
      28A     -0.526239    29A     -0.502142    30A     -0.492417
      31A     -0.470675    32A     -0.461036    33A     -0.453288
      34A     -0.419683    35A     -0.298631

  @DF-RHF Final Energy:  -386.05892458107513

   => Energetics <=

    Nuclear Repulsion Energy =            417.9994188886969368
    One-Electron Energy =               -1351.9061034706319333
    Two-Electron Energy =                 547.8477600008598074
    Total Energy =                       -386.0589245810751891
  Basis Set: (AUG-CC-PVTZ AUX)
    Blend: AUG-CC-PVTZ-RI
    Molecular point group: c1

    Geometry (in Angstrom), charge = 0, multiplicity = 1:

       Center              X                  Y                   Z               Mass
    ------------   -----------------  -----------------  -----------------  -----------------
         O            2.695247852218    -1.330096100522    -0.024751103090    15.994914619570
         C            2.752837852218     0.029836899478     0.408660896910    12.000000000000
         C            1.362664852218     0.580871899478     0.397068896910    12.000000000000
         C           -3.564901447782     0.320487399478    -0.425674103090    12.000000000000
         C            3.672888852218     0.845382899478    -0.494175103090    12.000000000000
         C            0.272395852218    -0.098078100522     0.001020896910    12.000000000000
         C           -2.161200147782    -0.196083100522    -0.407369103090    12.000000000000
         C           -1.061543147782     0.474187899478    -0.015926103090    12.000000000000
         C           -4.468297147782    -0.379132100522     0.560076896910    12.000000000000
         H            3.138101852218     0.073191899478     1.442163896910     1.007825032230
         H            1.267502852218     1.616278899478     0.726987896910     1.007825032230
         H           -3.509368147782     1.429278899478    -0.142595103090     1.007825032230
         H           -3.969361147782     0.309417899478    -1.420322103090     1.007825032230
         H            3.307990852218     0.787147899478    -1.522039103090     1.007825032230
         H            3.701035852218     1.894322899478    -0.185410103090     1.007825032230
         H            4.696807852218     0.457103899478    -0.459134103090     1.007825032230
         H            0.386088852218    -1.130628100522    -0.321237103090     1.007825032230
         H           -2.093033347782    -1.235749400522    -0.734156203090     1.007825032230
         H           -1.162822147782     1.511934899478     0.308185896910     1.007825032230
         H           -4.523536147782    -1.441388100522     0.305018896910     1.007825032230
         H           -5.483333147782     0.027576899478     0.532769896910     1.007825032230
         H           -4.092298147782    -0.298600100522     1.583231896910     1.007825032230
         H            3.604841852218    -1.673007100522    -0.002638103090     1.007825032230

  Basis Set: AUG-CC-PVTZ
    Blend: AUG-CC-PVTZ
  Basis Set: (AUG-CC-PVTZ AUX)
    Blend: AUG-CC-PVTZ-JKFIT
	 Reference Energy          =    -386.0589245810751322 [Eh]
	 Singles Energy            =      -0.0000000000000000 [Eh]
	 Same-Spin Energy          =      -0.4004949815058844 [Eh]
	 Opposite-Spin Energy      =      -1.3786940236591207 [Eh]
	 Correlation Energy        =      -1.7791890051650050 [Eh]
	 Total Energy              =    -387.8381135862401266 [Eh]

	 ================> DF-SCS-MP2 Energies <==================
	-----------------------------------------------------------
	 SCS Same-Spin Scale       =       0.3333333333333333 [-]
	 SCS Opposite-Spin Scale   =       1.2000000000000000 [-]
	 SCS Same-Spin Energy      =      -0.1334983271686281 [Eh]
	 SCS Opposite-Spin Energy  =      -1.6544328283909449 [Eh]
	 SCS Correlation Energy    =      -1.7879311555595729 [Eh]
	 SCS Total Energy          =    -387.8468557366347227 [Eh]
	-----------------------------------------------------------

  Dipole Moment: [D]
     X:     1.2259      Y:     0.7023      Z:     0.3052     Total:     1.4454

*** Psi4 exiting successfully. Buy a developer a beer!
