                               Psi4 1.3.2 release

  ==> Input File <==

--------------------------------------------------------------------------
#psi4
#
memory 32 gb

molecule  {
0 1
  O        2.6932640    -1.3344870    -0.0264310
  C        2.7508540     0.0254460     0.4069810
  C        1.3599892     0.5743109     0.3825391
  C       -3.5492030     0.3621160    -0.4101590
  C        3.6709050     0.8409920    -0.4958550
  C        0.2704120    -0.1024690    -0.0006590
  C       -2.1631840    -0.2004740    -0.4090490
  C       -1.0635270     0.4697970    -0.0176060
  C       -4.4702810    -0.3835230     0.5583970
  H        3.1444209     0.0649301     1.4375064
  H        1.2655190     1.6118880     0.7253080
  H       -3.5113520     1.4248880    -0.1442750
  H       -3.9713450     0.3050270    -1.4220020
  H        3.3060070     0.7827570    -1.5237190
  H        3.6990520     1.8899320    -0.1870900
  H        4.6948240     0.4527130    -0.4608140
  H        0.3841050    -1.1350190    -0.3229170
  H       -2.0573220    -1.2386810    -0.7303930
  H       -1.1648060     1.5075440     0.3065060
  H       -4.5255200    -1.4457790     0.3033390
  H       -5.4853170     0.0231860     0.5310900
  H       -4.0942820    -0.3029910     1.5815520
  H        3.6028580    -1.6773980    -0.0043180
units angstrom
no_reorient  #important for SAPT in psi4, default
symmetry c1  #important for SAPT in psi4, default
}

set PROPERTIES_ORIGIN ["COM"]
properties('MP2/aug-cc-pvtz', properties = ['dipole'])
--------------------------------------------------------------------------

    Molecular point group: c1
  Charge       = 0
  Multiplicity = 1
  Basis Set: AUG-CC-PVTZ
    Blend: AUG-CC-PVTZ
  Basis Set: (AUG-CC-PVTZ AUX)
    Blend: AUG-CC-PVTZ-JKFIT

    Orbital Energies [Eh]
    ---------------------

    Doubly Occupied:

       1A    -20.558400     2A    -11.286487     3A    -11.226024
       4A    -11.223468     5A    -11.223229     6A    -11.222887
       7A    -11.221240     8A    -11.220307     9A    -11.212847
      10A     -1.360516    11A     -1.098221    12A     -1.061547
      13A     -1.016286    14A     -0.962879    15A     -0.876327
      16A     -0.828776    17A     -0.752617    18A     -0.747086
      19A     -0.695617    20A     -0.637270    21A     -0.628578
      22A     -0.616637    23A     -0.589878    24A     -0.582810
      25A     -0.546120    26A     -0.543524    27A     -0.527101
      28A     -0.518667    29A     -0.499970    30A     -0.492805
      31A     -0.479212    32A     -0.467899    33A     -0.452750
      34A     -0.418819    35A     -0.298307

  @DF-RHF Final Energy:  -386.06265083891606

   => Energetics <=

    Nuclear Repulsion Energy =            418.0890680779842228
    One-Electron Energy =               -1352.1132208179030840
    Two-Electron Energy =                 547.9615019010028618
    Total Energy =                       -386.0626508389160563
  Basis Set: (AUG-CC-PVTZ AUX)
    Blend: AUG-CC-PVTZ-RI
    Molecular point group: c1

    Geometry (in Angstrom), charge = 0, multiplicity = 1:

       Center              X                  Y                   Z               Mass
    ------------   -----------------  -----------------  -----------------  -----------------
         O            2.693263433692    -1.334249500870    -0.025184283570    15.994914619570
         C            2.750853433692     0.025683499130     0.408227716430    12.000000000000
         C            1.359988633692     0.574548399130     0.383785816430    12.000000000000
         C           -3.549203566308     0.362353499130    -0.408912283570    12.000000000000
         C            3.670904433692     0.841229499130    -0.494608283570    12.000000000000
         C            0.270411433692    -0.102231500870     0.000587716430    12.000000000000
         C           -2.163184566308    -0.200236500870    -0.407802283570    12.000000000000
         C           -1.063527566308     0.470034499130    -0.016359283570    12.000000000000
         C           -4.470281566308    -0.383285500870     0.559643716430    12.000000000000
         H            3.144420333692     0.065167599130     1.438753116430     1.007825032230
         H            1.265518433692     1.612125499130     0.726554716430     1.007825032230
         H           -3.511352566308     1.425125499130    -0.143028283570     1.007825032230
         H           -3.971345566308     0.305264499130    -1.420755283570     1.007825032230
         H            3.306006433692     0.782994499130    -1.522472283570     1.007825032230
         H            3.699051433692     1.890169499130    -0.185843283570     1.007825032230
         H            4.694823433692     0.452950499130    -0.459567283570     1.007825032230
         H            0.384104433692    -1.134781500870    -0.321670283570     1.007825032230
         H           -2.057322566308    -1.238443500870    -0.729146283570     1.007825032230
         H           -1.164806566308     1.507781499130     0.307752716430     1.007825032230
         H           -4.525520566308    -1.445541500870     0.304585716430     1.007825032230
         H           -5.485317566308     0.023423499130     0.532336716430     1.007825032230
         H           -4.094282566308    -0.302753500870     1.582798716430     1.007825032230
         H            3.602857433692    -1.677160500870    -0.003071283570     1.007825032230

  Basis Set: AUG-CC-PVTZ
    Blend: AUG-CC-PVTZ
  Basis Set: (AUG-CC-PVTZ AUX)
    Blend: AUG-CC-PVTZ-JKFIT
	 Reference Energy          =    -386.0626508389160563 [Eh]
	 Singles Energy            =      -0.0000000000000000 [Eh]
	 Same-Spin Energy          =      -0.4003030911829483 [Eh]
	 Opposite-Spin Energy      =      -1.3782321907414798 [Eh]
	 Correlation Energy        =      -1.7785352819244282 [Eh]
	 Total Energy              =    -387.8411861208404616 [Eh]

	 ================> DF-SCS-MP2 Energies <==================
	-----------------------------------------------------------
	 SCS Same-Spin Scale       =       0.3333333333333333 [-]
	 SCS Opposite-Spin Scale   =       1.2000000000000000 [-]
	 SCS Same-Spin Energy      =      -0.1334343637276494 [Eh]
	 SCS Opposite-Spin Energy  =      -1.6538786288897758 [Eh]
	 SCS Correlation Energy    =      -1.7873129926174252 [Eh]
	 SCS Total Energy          =    -387.8499638315335005 [Eh]
	-----------------------------------------------------------

  Dipole Moment: [D]
     X:     1.1971      Y:     0.7219      Z:     0.3192     Total:     1.4339

*** Psi4 exiting successfully. Buy a developer a beer!
