                               Psi4 1.3.2 release

  ==> Input File <==

--------------------------------------------------------------------------
#psi4
#
memory 32 gb

molecule  {
0 1
  O        2.6932640    -1.3344870    -0.0264310
  C        2.7678653     0.0712228     0.4254134
  C        1.3606810     0.5764810     0.3953890
  C       -3.5492030     0.3621160    -0.4101590
  C        3.6709050     0.8409920    -0.4958550
  C        0.2444071    -0.0645681     0.0087338
  C       -2.1631840    -0.2004740    -0.4090490
  C       -1.0635270     0.4697970    -0.0176060
  C       -4.4702810    -0.3835230     0.5583970
  H        3.1361180     0.0688010     1.4404840
  H        1.2655190     1.6118880     0.7253080
  H       -3.5113520     1.4248880    -0.1442750
  H       -3.9713450     0.3050270    -1.4220020
  H        3.3060070     0.7827570    -1.5237190
  H        3.6990520     1.8899320    -0.1870900
  H        4.6948240     0.4527130    -0.4608140
  H        0.3841050    -1.1350190    -0.3229170
  H       -2.0573220    -1.2386810    -0.7303930
  H       -1.1648060     1.5075440     0.3065060
  H       -4.5255200    -1.4457790     0.3033390
  H       -5.4853170     0.0231860     0.5310900
  H       -4.0942820    -0.3029910     1.5815520
  H        3.6028580    -1.6773980    -0.0043180
units angstrom
no_reorient  #important for SAPT in psi4, default
symmetry c1  #important for SAPT in psi4, default
}

set PROPERTIES_ORIGIN ["COM"]
properties('MP2/aug-cc-pvtz', properties = ['dipole'])
--------------------------------------------------------------------------

    Molecular point group: c1
  Charge       = 0
  Multiplicity = 1
  Basis Set: AUG-CC-PVTZ
    Blend: AUG-CC-PVTZ
  Basis Set: (AUG-CC-PVTZ AUX)
    Blend: AUG-CC-PVTZ-JKFIT

    Orbital Energies [Eh]
    ---------------------

    Doubly Occupied:

       1A    -20.552761     2A    -11.287548     3A    -11.228229
       4A    -11.224877     5A    -11.224311     6A    -11.222844
       7A    -11.221928     8A    -11.221457     9A    -11.213623
      10A     -1.341539    11A     -1.101991    12A     -1.063506
      13A     -1.022909    14A     -0.964304    15A     -0.880177
      16A     -0.830180    17A     -0.757096    18A     -0.740080
      19A     -0.691400    20A     -0.633821    21A     -0.631613
      22A     -0.613401    23A     -0.590651    24A     -0.582017
      25A     -0.548514    26A     -0.544243    27A     -0.522019
      28A     -0.518791    29A     -0.496384    30A     -0.486658
      31A     -0.480457    32A     -0.470574    33A     -0.455663
      34A     -0.425488    35A     -0.296566

  @DF-RHF Final Energy:  -386.05524638227308

   => Energetics <=

    Nuclear Repulsion Energy =            417.7366482231365126
    One-Electron Energy =               -1351.4085473159288995
    Two-Electron Energy =                 547.6166527105192472
    Total Energy =                       -386.0552463822731397
  Basis Set: (AUG-CC-PVTZ AUX)
    Blend: AUG-CC-PVTZ-RI
    Molecular point group: c1

    Geometry (in Angstrom), charge = 0, multiplicity = 1:

       Center              X                  Y                   Z               Mass
    ------------   -----------------  -----------------  -----------------  -----------------
         O            2.694119782993    -1.342449645008    -0.029078690477    15.994914619570
         C            2.768721082993     0.063260154992     0.422765709523    12.000000000000
         C            1.361536782993     0.568518354992     0.392741309523    12.000000000000
         C           -3.548347217007     0.354153354992    -0.412806690477    12.000000000000
         C            3.671760782993     0.833029354992    -0.498502690477    12.000000000000
         C            0.245262882993    -0.072530745008     0.006086109523    12.000000000000
         C           -2.162328217007    -0.208436645008    -0.411696690477    12.000000000000
         C           -1.062671217007     0.461834354992    -0.020253690477    12.000000000000
         C           -4.469425217007    -0.391485645008     0.555749309523    12.000000000000
         H            3.136973782993     0.060838354992     1.437836309523     1.007825032230
         H            1.266374782993     1.603925354992     0.722660309523     1.007825032230
         H           -3.510496217007     1.416925354992    -0.146922690477     1.007825032230
         H           -3.970489217007     0.297064354992    -1.424649690477     1.007825032230
         H            3.306862782993     0.774794354992    -1.526366690477     1.007825032230
         H            3.699907782993     1.881969354992    -0.189737690477     1.007825032230
         H            4.695679782993     0.444750354992    -0.463461690477     1.007825032230
         H            0.384960782993    -1.142981645008    -0.325564690477     1.007825032230
         H           -2.056466217007    -1.246643645008    -0.733040690477     1.007825032230
         H           -1.163950217007     1.499581354992     0.303858309523     1.007825032230
         H           -4.524664217007    -1.453741645008     0.300691309523     1.007825032230
         H           -5.484461217007     0.015223354992     0.528442309523     1.007825032230
         H           -4.093426217007    -0.310953645008     1.578904309523     1.007825032230
         H            3.603713782993    -1.685360645008    -0.006965690477     1.007825032230

  Basis Set: AUG-CC-PVTZ
    Blend: AUG-CC-PVTZ
  Basis Set: (AUG-CC-PVTZ AUX)
    Blend: AUG-CC-PVTZ-JKFIT
	 Reference Energy          =    -386.0552463822730829 [Eh]
	 Singles Energy            =      -0.0000000000000000 [Eh]
	 Same-Spin Energy          =      -0.4012116057428120 [Eh]
	 Opposite-Spin Energy      =      -1.3801442001367521 [Eh]
	 Correlation Energy        =      -1.7813558058795640 [Eh]
	 Total Energy              =    -387.8366021881526535 [Eh]

	 ================> DF-SCS-MP2 Energies <==================
	-----------------------------------------------------------
	 SCS Same-Spin Scale       =       0.3333333333333333 [-]
	 SCS Opposite-Spin Scale   =       1.2000000000000000 [-]
	 SCS Same-Spin Energy      =      -0.1337372019142707 [Eh]
	 SCS Opposite-Spin Energy  =      -1.6561730401641024 [Eh]
	 SCS Correlation Energy    =      -1.7899102420783730 [Eh]
	 SCS Total Energy          =    -387.8451566243514321 [Eh]
	-----------------------------------------------------------

  Dipole Moment: [D]
     X:     1.1610      Y:     0.8858      Z:     0.3293     Total:     1.4970

*** Psi4 exiting successfully. Buy a developer a beer!
