                               Psi4 1.3.2 release

  ==> Input File <==

--------------------------------------------------------------------------
#psi4
#
memory 32 gb

molecule  {
0 1
  O        2.6932640    -1.3344870    -0.0264310
  C        2.7508540     0.0254460     0.4069810
  C        1.3606810     0.5764810     0.3953890
  C       -3.5492030     0.3621160    -0.4101590
  C        3.6554748     0.8349112    -0.5166798
  C        0.2704120    -0.1024690    -0.0006590
  C       -2.1631840    -0.2004740    -0.4090490
  C       -1.0635270     0.4697970    -0.0176060
  C       -4.4702810    -0.3835230     0.5583970
  H        3.1214910     0.0576546     1.4462246
  H        1.2655190     1.6118880     0.7253080
  H       -3.5113520     1.4248880    -0.1442750
  H       -3.9713450     0.3050270    -1.4220020
  H        3.3060070     0.7827570    -1.5237190
  H        3.6990520     1.8899320    -0.1870900
  H        4.6948240     0.4527130    -0.4608140
  H        0.3841050    -1.1350190    -0.3229170
  H       -2.0573220    -1.2386810    -0.7303930
  H       -1.1648060     1.5075440     0.3065060
  H       -4.5255200    -1.4457790     0.3033390
  H       -5.4853170     0.0231860     0.5310900
  H       -4.0942820    -0.3029910     1.5815520
  H        3.6028580    -1.6773980    -0.0043180
units angstrom
no_reorient  #important for SAPT in psi4, default
symmetry c1  #important for SAPT in psi4, default
}

set PROPERTIES_ORIGIN ["COM"]
properties('MP2/aug-cc-pvtz', properties = ['dipole'])
--------------------------------------------------------------------------

    Molecular point group: c1
  Charge       = 0
  Multiplicity = 1
  Basis Set: AUG-CC-PVTZ
    Blend: AUG-CC-PVTZ
  Basis Set: (AUG-CC-PVTZ AUX)
    Blend: AUG-CC-PVTZ-JKFIT

    Orbital Energies [Eh]
    ---------------------

    Doubly Occupied:

       1A    -20.557966     2A    -11.286454     3A    -11.225767
       4A    -11.223432     5A    -11.223133     6A    -11.222812
       7A    -11.221479     8A    -11.221063     9A    -11.212735
      10A     -1.360378    11A     -1.097750    12A     -1.061312
      13A     -1.015910    14A     -0.962200    15A     -0.876803
      16A     -0.828810    17A     -0.752375    18A     -0.747916
      19A     -0.695348    20A     -0.636728    21A     -0.627748
      22A     -0.616078    23A     -0.589004    24A     -0.582616
      25A     -0.553549    26A     -0.542217    27A     -0.524874
      28A     -0.518814    29A     -0.500383    30A     -0.491347
      31A     -0.478915    32A     -0.467042    33A     -0.453698
      34A     -0.418483    35A     -0.297364

  @DF-RHF Final Energy:  -386.06173793085696

   => Energetics <=

    Nuclear Repulsion Energy =            418.1174658598694123
    One-Electron Energy =               -1352.1733960637502605
    Two-Electron Energy =                 547.9941922730239412
    Total Energy =                       -386.0617379308569070
  Basis Set: (AUG-CC-PVTZ AUX)
    Blend: AUG-CC-PVTZ-RI
    Molecular point group: c1

    Geometry (in Angstrom), charge = 0, multiplicity = 1:

       Center              X                  Y                   Z               Mass
    ------------   -----------------  -----------------  -----------------  -----------------
         O            2.694849183468    -1.333819216098    -0.024495074193    15.994914619570
         C            2.752439183468     0.026113783902     0.408916925807    12.000000000000
         C            1.362266183468     0.577148783902     0.397324925807    12.000000000000
         C           -3.547617816532     0.362783783902    -0.408223074193    12.000000000000
         C            3.657059983468     0.835578983902    -0.514743874193    12.000000000000
         C            0.271997183468    -0.101801216098     0.001276925807    12.000000000000
         C           -2.161598816532    -0.199806216098    -0.407113074193    12.000000000000
         C           -1.061941816532     0.470464783902    -0.015670074193    12.000000000000
         C           -4.468695816532    -0.382855216098     0.560332925807    12.000000000000
         H            3.123076183468     0.058322383902     1.448160525807     1.007825032230
         H            1.267104183468     1.612555783902     0.727243925807     1.007825032230
         H           -3.509766816532     1.425555783902    -0.142339074193     1.007825032230
         H           -3.969759816532     0.305694783902    -1.420066074193     1.007825032230
         H            3.307592183468     0.783424783902    -1.521783074193     1.007825032230
         H            3.700637183468     1.890599783902    -0.185154074193     1.007825032230
         H            4.696409183468     0.453380783902    -0.458878074193     1.007825032230
         H            0.385690183468    -1.134351216098    -0.320981074193     1.007825032230
         H           -2.055736816532    -1.238013216098    -0.728457074193     1.007825032230
         H           -1.163220816532     1.508211783902     0.308441925807     1.007825032230
         H           -4.523934816532    -1.445111216098     0.305274925807     1.007825032230
         H           -5.483731816532     0.023853783902     0.533025925807     1.007825032230
         H           -4.092696816532    -0.302323216098     1.583487925807     1.007825032230
         H            3.604443183468    -1.676730216098    -0.002382074193     1.007825032230

  Basis Set: AUG-CC-PVTZ
    Blend: AUG-CC-PVTZ
  Basis Set: (AUG-CC-PVTZ AUX)
    Blend: AUG-CC-PVTZ-JKFIT
	 Reference Energy          =    -386.0617379308569639 [Eh]
	 Singles Energy            =      -0.0000000000000000 [Eh]
	 Same-Spin Energy          =      -0.4003508194338197 [Eh]
	 Opposite-Spin Energy      =      -1.3783539807130998 [Eh]
	 Correlation Energy        =      -1.7787048001469195 [Eh]
	 Total Energy              =    -387.8404427310038614 [Eh]

	 ================> DF-SCS-MP2 Energies <==================
	-----------------------------------------------------------
	 SCS Same-Spin Scale       =       0.3333333333333333 [-]
	 SCS Opposite-Spin Scale   =       1.2000000000000000 [-]
	 SCS Same-Spin Energy      =      -0.1334502731446066 [Eh]
	 SCS Opposite-Spin Energy  =      -1.6540247768557197 [Eh]
	 SCS Correlation Energy    =      -1.7874750500003262 [Eh]
	 SCS Total Energy          =    -387.8492129808573168 [Eh]
	-----------------------------------------------------------

  Dipole Moment: [D]
     X:     1.2047      Y:     0.7322      Z:     0.3053     Total:     1.4425

*** Psi4 exiting successfully. Buy a developer a beer!
