                               Psi4 1.3.2 release

  ==> Input File <==

--------------------------------------------------------------------------
#psi4
#
memory 32 gb

molecule  {
0 1
  O        2.6977058    -1.3381425    -0.0153718
  C        2.7508540     0.0254460     0.4069810
  C        1.3606810     0.5764810     0.3953890
  C       -3.5492030     0.3621160    -0.4101590
  C        3.6709050     0.8409920    -0.4958550
  C        0.2704120    -0.1024690    -0.0006590
  C       -2.1631840    -0.2004740    -0.4090490
  C       -1.0635270     0.4697970    -0.0176060
  C       -4.4702810    -0.3835230     0.5583970
  H        3.1368886     0.0591994     1.4405546
  H        1.2655190     1.6118880     0.7253080
  H       -3.5113520     1.4248880    -0.1442750
  H       -3.9713450     0.3050270    -1.4220020
  H        3.3060070     0.7827570    -1.5237190
  H        3.6990520     1.8899320    -0.1870900
  H        4.6948240     0.4527130    -0.4608140
  H        0.3841050    -1.1350190    -0.3229170
  H       -2.0573220    -1.2386810    -0.7303930
  H       -1.1648060     1.5075440     0.3065060
  H       -4.5255200    -1.4457790     0.3033390
  H       -5.4853170     0.0231860     0.5310900
  H       -4.0942820    -0.3029910     1.5815520
  H        3.6028580    -1.6773980    -0.0043180
units angstrom
no_reorient  #important for SAPT in psi4, default
symmetry c1  #important for SAPT in psi4, default
}

set PROPERTIES_ORIGIN ["COM"]
properties('MP2/aug-cc-pvtz', properties = ['dipole'])
--------------------------------------------------------------------------

    Molecular point group: c1
  Charge       = 0
  Multiplicity = 1
  Basis Set: AUG-CC-PVTZ
    Blend: AUG-CC-PVTZ
  Basis Set: (AUG-CC-PVTZ AUX)
    Blend: AUG-CC-PVTZ-JKFIT

    Orbital Energies [Eh]
    ---------------------

    Doubly Occupied:

       1A    -20.557609     2A    -11.286458     3A    -11.226013
       4A    -11.223786     5A    -11.223315     6A    -11.223079
       7A    -11.221917     8A    -11.220815     9A    -11.212840
      10A     -1.361291    11A     -1.097975    12A     -1.061503
      13A     -1.016240    14A     -0.962538    15A     -0.876790
      16A     -0.828810    17A     -0.752620    18A     -0.748602
      19A     -0.695027    20A     -0.637400    21A     -0.628095
      22A     -0.617398    23A     -0.590213    24A     -0.583022
      25A     -0.546573    26A     -0.543802    27A     -0.527412
      28A     -0.518834    29A     -0.500814    30A     -0.492200
      31A     -0.479183    32A     -0.468080    33A     -0.452753
      34A     -0.418333    35A     -0.297586

  @DF-RHF Final Energy:  -386.06302741594300

   => Energetics <=

    Nuclear Repulsion Energy =            417.9452117686884662
    One-Electron Energy =               -1351.8186317309528022
    Two-Electron Energy =                 547.8103925463212818
    Total Energy =                       -386.0630274159429973
  Basis Set: (AUG-CC-PVTZ AUX)
    Blend: AUG-CC-PVTZ-RI
    Molecular point group: c1

    Geometry (in Angstrom), charge = 0, multiplicity = 1:

       Center              X                  Y                   Z               Mass
    ------------   -----------------  -----------------  -----------------  -----------------
         O            2.697136208867    -1.337602047654    -0.016774964459    15.994914619570
         C            2.750284408867     0.025986452346     0.405577835541    12.000000000000
         C            1.360111408867     0.577021452346     0.393985835541    12.000000000000
         C           -3.549772591133     0.362656452346    -0.411562164459    12.000000000000
         C            3.670335408867     0.841532452346    -0.497258164459    12.000000000000
         C            0.269842408867    -0.101928547654    -0.002062164459    12.000000000000
         C           -2.163753591133    -0.199933547654    -0.410452164459    12.000000000000
         C           -1.064096591133     0.470337452346    -0.019009164459    12.000000000000
         C           -4.470850591133    -0.382982547654     0.556993835541    12.000000000000
         H            3.136319008867     0.059739852346     1.439151435541     1.007825032230
         H            1.264949408867     1.612428452346     0.723904835541     1.007825032230
         H           -3.511921591133     1.425428452346    -0.145678164459     1.007825032230
         H           -3.971914591133     0.305567452346    -1.423405164459     1.007825032230
         H            3.305437408867     0.783297452346    -1.525122164459     1.007825032230
         H            3.698482408867     1.890472452346    -0.188493164459     1.007825032230
         H            4.694254408867     0.453253452346    -0.462217164459     1.007825032230
         H            0.383535408867    -1.134478547654    -0.324320164459     1.007825032230
         H           -2.057891591133    -1.238140547654    -0.731796164459     1.007825032230
         H           -1.165375591133     1.508084452346     0.305102835541     1.007825032230
         H           -4.526089591133    -1.445238547654     0.301935835541     1.007825032230
         H           -5.485886591133     0.023726452346     0.529686835541     1.007825032230
         H           -4.094851591133    -0.302450547654     1.580148835541     1.007825032230
         H            3.602288408867    -1.676857547654    -0.005721164459     1.007825032230

  Basis Set: AUG-CC-PVTZ
    Blend: AUG-CC-PVTZ
  Basis Set: (AUG-CC-PVTZ AUX)
    Blend: AUG-CC-PVTZ-JKFIT
	 Reference Energy          =    -386.0630274159429973 [Eh]
	 Singles Energy            =      -0.0000000000000000 [Eh]
	 Same-Spin Energy          =      -0.4002336720247159 [Eh]
	 Opposite-Spin Energy      =      -1.3780746023159782 [Eh]
	 Correlation Energy        =      -1.7783082743406942 [Eh]
	 Total Energy              =    -387.8413356902836995 [Eh]

	 ================> DF-SCS-MP2 Energies <==================
	-----------------------------------------------------------
	 SCS Same-Spin Scale       =       0.3333333333333333 [-]
	 SCS Opposite-Spin Scale   =       1.2000000000000000 [-]
	 SCS Same-Spin Energy      =      -0.1334112240082386 [Eh]
	 SCS Opposite-Spin Energy  =      -1.6536895227791739 [Eh]
	 SCS Correlation Energy    =      -1.7871007467874125 [Eh]
	 SCS Total Energy          =    -387.8501281627304138 [Eh]
	-----------------------------------------------------------

  Dipole Moment: [D]
     X:     1.1961      Y:     0.7432      Z:     0.2854     Total:     1.4369

*** Psi4 exiting successfully. Buy a developer a beer!
