                               Psi4 1.3.2 release

  ==> Input File <==

--------------------------------------------------------------------------
#psi4
#
memory 32 gb

molecule  {
0 1
  O        2.6932640    -1.3344870    -0.0264310
  C        2.7508540     0.0254460     0.4069810
  C        1.3606810     0.5764810     0.3953890
  C       -3.5300042     0.4070284    -0.3917089
  C        3.6709050     0.8409920    -0.4958550
  C        0.2704120    -0.1024690    -0.0006590
  C       -2.1631840    -0.2004740    -0.4090490
  C       -1.0905494     0.5071142    -0.0084116
  C       -4.4702810    -0.3835230     0.5583970
  H        3.1361180     0.0688010     1.4404840
  H        1.2655190     1.6118880     0.7253080
  H       -3.5113520     1.4248880    -0.1442750
  H       -3.9713450     0.3050270    -1.4220020
  H        3.3060070     0.7827570    -1.5237190
  H        3.6990520     1.8899320    -0.1870900
  H        4.6948240     0.4527130    -0.4608140
  H        0.3841050    -1.1350190    -0.3229170
  H       -2.0573220    -1.2386810    -0.7303930
  H       -1.1648060     1.5075440     0.3065060
  H       -4.5255200    -1.4457790     0.3033390
  H       -5.4853170     0.0231860     0.5310900
  H       -4.0942820    -0.3029910     1.5815520
  H        3.6028580    -1.6773980    -0.0043180
units angstrom
no_reorient  #important for SAPT in psi4, default
symmetry c1  #important for SAPT in psi4, default
}

set PROPERTIES_ORIGIN ["COM"]
properties('MP2/aug-cc-pvtz', properties = ['dipole'])
--------------------------------------------------------------------------

    Molecular point group: c1
  Charge       = 0
  Multiplicity = 1
  Basis Set: AUG-CC-PVTZ
    Blend: AUG-CC-PVTZ
  Basis Set: (AUG-CC-PVTZ AUX)
    Blend: AUG-CC-PVTZ-JKFIT

    Orbital Energies [Eh]
    ---------------------

    Doubly Occupied:

       1A    -20.558194     2A    -11.285560     3A    -11.226358
       4A    -11.224387     5A    -11.221748     6A    -11.221605
       7A    -11.220485     8A    -11.219917     9A    -11.213220
      10A     -1.360035    11A     -1.095303    12A     -1.059991
      13A     -1.011813    14A     -0.960961    15A     -0.873685
      16A     -0.828486    17A     -0.759788    18A     -0.746141
      19A     -0.694567    20A     -0.638932    21A     -0.622982
      22A     -0.616640    23A     -0.593492    24A     -0.577383
      25A     -0.546518    26A     -0.543793    27A     -0.531942
      28A     -0.511703    29A     -0.502235    30A     -0.493805
      31A     -0.489980    32A     -0.460905    33A     -0.451747
      34A     -0.412231    35A     -0.298567

  @DF-RHF Final Energy:  -386.05785178598694

   => Energetics <=

    Nuclear Repulsion Energy =            417.6262324415115472
    One-Electron Energy =               -1351.2179723681831547
    Two-Electron Energy =                 547.5338881406846667
    Total Energy =                       -386.0578517859869407
  Basis Set: (AUG-CC-PVTZ AUX)
    Blend: AUG-CC-PVTZ-RI
    Molecular point group: c1

    Geometry (in Angstrom), charge = 0, multiplicity = 1:

       Center              X                  Y                   Z               Mass
    ------------   -----------------  -----------------  -----------------  -----------------
         O            2.694008446729    -1.342311844970    -0.029061495209    15.994914619570
         C            2.751598446729     0.017621155030     0.404350504791    12.000000000000
         C            1.361425446729     0.568656155030     0.392758504791    12.000000000000
         C           -3.529259753271     0.399203555030    -0.394339395209    12.000000000000
         C            3.671649446729     0.833167155030    -0.498485495209    12.000000000000
         C            0.271156446729    -0.110293844970    -0.003289495209    12.000000000000
         C           -2.162439553271    -0.208298844970    -0.411679495209    12.000000000000
         C           -1.089804953271     0.499289355030    -0.011042095209    12.000000000000
         C           -4.469536553271    -0.391347844970     0.555766504791    12.000000000000
         H            3.136862446729     0.060976155030     1.437853504791     1.007825032230
         H            1.266263446729     1.604063155030     0.722677504791     1.007825032230
         H           -3.510607553271     1.417063155030    -0.146905495209     1.007825032230
         H           -3.970600553271     0.297202155030    -1.424632495209     1.007825032230
         H            3.306751446729     0.774932155030    -1.526349495209     1.007825032230
         H            3.699796446729     1.882107155030    -0.189720495209     1.007825032230
         H            4.695568446729     0.444888155030    -0.463444495209     1.007825032230
         H            0.384849446729    -1.142843844970    -0.325547495209     1.007825032230
         H           -2.056577553271    -1.246505844970    -0.733023495209     1.007825032230
         H           -1.164061553271     1.499719155030     0.303875504791     1.007825032230
         H           -4.524775553271    -1.453603844970     0.300708504791     1.007825032230
         H           -5.484572553271     0.015361155030     0.528459504791     1.007825032230
         H           -4.093537553271    -0.310815844970     1.578921504791     1.007825032230
         H            3.603602446729    -1.685222844970    -0.006948495209     1.007825032230

  Basis Set: AUG-CC-PVTZ
    Blend: AUG-CC-PVTZ
  Basis Set: (AUG-CC-PVTZ AUX)
    Blend: AUG-CC-PVTZ-JKFIT
	 Reference Energy          =    -386.0578517859869407 [Eh]
	 Singles Energy            =      -0.0000000000000000 [Eh]
	 Same-Spin Energy          =      -0.3998126852252154 [Eh]
	 Opposite-Spin Energy      =      -1.3778989914825432 [Eh]
	 Correlation Energy        =      -1.7777116767077588 [Eh]
	 Total Energy              =    -387.8355634626947221 [Eh]

	 ================> DF-SCS-MP2 Energies <==================
	-----------------------------------------------------------
	 SCS Same-Spin Scale       =       0.3333333333333333 [-]
	 SCS Opposite-Spin Scale   =       1.2000000000000000 [-]
	 SCS Same-Spin Energy      =      -0.1332708950750718 [Eh]
	 SCS Opposite-Spin Energy  =      -1.6534787897790519 [Eh]
	 SCS Correlation Energy    =      -1.7867496848541238 [Eh]
	 SCS Total Energy          =    -387.8446014708410416 [Eh]
	-----------------------------------------------------------

  Dipole Moment: [D]
     X:     1.1661      Y:     0.7520      Z:     0.3130     Total:     1.4224

*** Psi4 exiting successfully. Buy a developer a beer!
