                               Psi4 1.3.2 release

  ==> Input File <==

--------------------------------------------------------------------------
#psi4
#
memory 32 gb

molecule  {
0 1
  O        2.6932640    -1.3344870    -0.0264310
  C        2.7508540     0.0254460     0.4069810
  C        1.3606810     0.5764810     0.3953890
  C       -3.5197789     0.4292104    -0.3824904
  C        3.6709050     0.8409920    -0.4958550
  C        0.2704120    -0.1024690    -0.0006590
  C       -2.1631840    -0.2004740    -0.4090490
  C       -1.1045528     0.5254523    -0.0039968
  C       -4.4702810    -0.3835230     0.5583970
  H        3.1361180     0.0688010     1.4404840
  H        1.2655190     1.6118880     0.7253080
  H       -3.5113520     1.4248880    -0.1442750
  H       -3.9713450     0.3050270    -1.4220020
  H        3.3060070     0.7827570    -1.5237190
  H        3.6990520     1.8899320    -0.1870900
  H        4.6948240     0.4527130    -0.4608140
  H        0.3841050    -1.1350190    -0.3229170
  H       -2.0573220    -1.2386810    -0.7303930
  H       -1.1648060     1.5075440     0.3065060
  H       -4.5255200    -1.4457790     0.3033390
  H       -5.4853170     0.0231860     0.5310900
  H       -4.0942820    -0.3029910     1.5815520
  H        3.6028580    -1.6773980    -0.0043180
units angstrom
no_reorient  #important for SAPT in psi4, default
symmetry c1  #important for SAPT in psi4, default
}

set PROPERTIES_ORIGIN ["COM"]
properties('MP2/aug-cc-pvtz', properties = ['dipole'])
--------------------------------------------------------------------------

    Molecular point group: c1
  Charge       = 0
  Multiplicity = 1
  Basis Set: AUG-CC-PVTZ
    Blend: AUG-CC-PVTZ
  Basis Set: (AUG-CC-PVTZ AUX)
    Blend: AUG-CC-PVTZ-JKFIT

    Orbital Energies [Eh]
    ---------------------

    Doubly Occupied:

       1A    -20.557958     2A    -11.285122     3A    -11.226967
       4A    -11.224985     5A    -11.221309     6A    -11.221170
       7A    -11.219640     8A    -11.219616     9A    -11.213587
      10A     -1.359771    11A     -1.094425    12A     -1.059474
      13A     -1.009730    14A     -0.960247    15A     -0.872481
      16A     -0.828768    17A     -0.764616    18A     -0.745077
      19A     -0.694047    20A     -0.640244    21A     -0.620877
      22A     -0.616213    23A     -0.595626    24A     -0.574759
      25A     -0.547204    26A     -0.544068    27A     -0.533676
      28A     -0.510638    29A     -0.504645    30A     -0.496211
      31A     -0.488549    32A     -0.456488    33A     -0.451028
      34A     -0.409196    35A     -0.299117

  @DF-RHF Final Energy:  -386.05069281482906

   => Energetics <=

    Nuclear Repulsion Energy =            417.4491510521275472
    One-Electron Energy =               -1350.8646278970588810
    Two-Electron Energy =                 547.3647840301023280
    Total Energy =                       -386.0506928148290626
  Basis Set: (AUG-CC-PVTZ AUX)
    Blend: AUG-CC-PVTZ-RI
    Molecular point group: c1

    Geometry (in Angstrom), charge = 0, multiplicity = 1:

       Center              X                  Y                   Z               Mass
    ------------   -----------------  -----------------  -----------------  -----------------
         O            2.694367967702    -1.346167705266    -0.030358829129    15.994914619570
         C            2.751957967702     0.013765294734     0.403053170871    12.000000000000
         C            1.361784967702     0.564800294734     0.391461170871    12.000000000000
         C           -3.518674932298     0.417529694734    -0.386418229129    12.000000000000
         C            3.672008967702     0.829311294734    -0.499782829129    12.000000000000
         C            0.271515967702    -0.114149705266    -0.004586829129    12.000000000000
         C           -2.162080032298    -0.212154705266    -0.412976829129    12.000000000000
         C           -1.103448832298     0.513771594734    -0.007924629129    12.000000000000
         C           -4.469177032298    -0.395203705266     0.554469170871    12.000000000000
         H            3.137221967702     0.057120294734     1.436556170871     1.007825032230
         H            1.266622967702     1.600207294734     0.721380170871     1.007825032230
         H           -3.510248032298     1.413207294734    -0.148202829129     1.007825032230
         H           -3.970241032298     0.293346294734    -1.425929829129     1.007825032230
         H            3.307110967702     0.771076294734    -1.527646829129     1.007825032230
         H            3.700155967702     1.878251294734    -0.191017829129     1.007825032230
         H            4.695927967702     0.441032294734    -0.464741829129     1.007825032230
         H            0.385208967702    -1.146699705266    -0.326844829129     1.007825032230
         H           -2.056218032298    -1.250361705266    -0.734320829129     1.007825032230
         H           -1.163702032298     1.495863294734     0.302578170871     1.007825032230
         H           -4.524416032298    -1.457459705266     0.299411170871     1.007825032230
         H           -5.484213032298     0.011505294734     0.527162170871     1.007825032230
         H           -4.093178032298    -0.314671705266     1.577624170871     1.007825032230
         H            3.603961967702    -1.689078705266    -0.008245829129     1.007825032230

  Basis Set: AUG-CC-PVTZ
    Blend: AUG-CC-PVTZ
  Basis Set: (AUG-CC-PVTZ AUX)
    Blend: AUG-CC-PVTZ-JKFIT
	 Reference Energy          =    -386.0506928148290626 [Eh]
	 Singles Energy            =      -0.0000000000000000 [Eh]
	 Same-Spin Energy          =      -0.3996624946839403 [Eh]
	 Opposite-Spin Energy      =      -1.3779804033839242 [Eh]
	 Correlation Energy        =      -1.7776428980678647 [Eh]
	 Total Energy              =    -387.8283357128969442 [Eh]

	 ================> DF-SCS-MP2 Energies <==================
	-----------------------------------------------------------
	 SCS Same-Spin Scale       =       0.3333333333333333 [-]
	 SCS Opposite-Spin Scale   =       1.2000000000000000 [-]
	 SCS Same-Spin Energy      =      -0.1332208315613134 [Eh]
	 SCS Opposite-Spin Energy  =      -1.6535764840607090 [Eh]
	 SCS Correlation Energy    =      -1.7867973156220225 [Eh]
	 SCS Total Energy          =    -387.8374901304511013 [Eh]
	-----------------------------------------------------------

  Dipole Moment: [D]
     X:     1.1473      Y:     0.7574      Z:     0.3152     Total:     1.4104

*** Psi4 exiting successfully. Buy a developer a beer!
