                               Psi4 1.3.2 release

  ==> Input File <==

--------------------------------------------------------------------------
#psi4
#
memory 32 gb

molecule  {
0 1
  O        2.6932640    -1.3344870    -0.0264310
  C        2.7508540     0.0254460     0.4069810
  C        1.3606810     0.5764810     0.3953890
  C       -3.5397272     0.3848722    -0.4015597
  C        3.6709050     0.8409920    -0.4958550
  C        0.2704120    -0.1024690    -0.0006590
  C       -2.1631840    -0.2004740    -0.4090490
  C       -1.0635270     0.4697970    -0.0176060
  C       -4.4702810    -0.3835230     0.5583970
  H        3.1361180     0.0688010     1.4404840
  H        1.2655190     1.6118880     0.7253080
  H       -3.5113520     1.4248880    -0.1442750
  H       -3.9713450     0.3050270    -1.4220020
  H        3.3060070     0.7827570    -1.5237190
  H        3.6990520     1.8899320    -0.1870900
  H        4.6948240     0.4527130    -0.4608140
  H        0.3841050    -1.1350190    -0.3229170
  H       -2.0385199    -1.2374768    -0.7275242
  H       -1.1648060     1.5075440     0.3065060
  H       -4.5255200    -1.4457790     0.3033390
  H       -5.4853170     0.0231860     0.5310900
  H       -4.0942820    -0.3029910     1.5815520
  H        3.6028580    -1.6773980    -0.0043180
units angstrom
no_reorient  #important for SAPT in psi4, default
symmetry c1  #important for SAPT in psi4, default
}

set PROPERTIES_ORIGIN ["COM"]
properties('MP2/aug-cc-pvtz', properties = ['dipole'])
--------------------------------------------------------------------------

    Molecular point group: c1
  Charge       = 0
  Multiplicity = 1
  Basis Set: AUG-CC-PVTZ
    Blend: AUG-CC-PVTZ
  Basis Set: (AUG-CC-PVTZ AUX)
    Blend: AUG-CC-PVTZ-JKFIT

    Orbital Energies [Eh]
    ---------------------

    Doubly Occupied:

       1A    -20.558614     2A    -11.286347     3A    -11.225784
       4A    -11.223326     5A    -11.223242     6A    -11.222333
       7A    -11.221469     8A    -11.220456     9A    -11.213230
      10A     -1.360506    11A     -1.097803    12A     -1.060813
      13A     -1.015334    14A     -0.961876    15A     -0.876384
      16A     -0.828905    17A     -0.753500    18A     -0.747894
      19A     -0.695111    20A     -0.637639    21A     -0.626954
      22A     -0.616649    23A     -0.590545    24A     -0.581896
      25A     -0.546463    26A     -0.543183    27A     -0.527319
      28A     -0.514946    29A     -0.500587    30A     -0.492113
      31A     -0.485260    32A     -0.467768    33A     -0.452792
      34A     -0.417500    35A     -0.296868

  @DF-RHF Final Energy:  -386.06191359871173

   => Energetics <=

    Nuclear Repulsion Energy =            418.0015524607262023
    One-Electron Energy =               -1351.9441151143951174
    Two-Electron Energy =                 547.8806490549571890
    Total Energy =                       -386.0619135987117261
  Basis Set: (AUG-CC-PVTZ AUX)
    Blend: AUG-CC-PVTZ-RI
    Molecular point group: c1

    Geometry (in Angstrom), charge = 0, multiplicity = 1:

       Center              X                  Y                   Z               Mass
    ------------   -----------------  -----------------  -----------------  -----------------
         O            2.692211983559    -1.336662027760    -0.027272096623    15.994914619570
         C            2.749801983559     0.023270972240     0.406139903377    12.000000000000
         C            1.359628983559     0.574305972240     0.394547903377    12.000000000000
         C           -3.540779216441     0.382697172240    -0.402400796623    12.000000000000
         C            3.669852983559     0.838816972240    -0.496696096623    12.000000000000
         C            0.269359983559    -0.104644027760    -0.001500096623    12.000000000000
         C           -2.164236016441    -0.202649027760    -0.409890096623    12.000000000000
         C           -1.064579016441     0.467621972240    -0.018447096623    12.000000000000
         C           -4.471333016441    -0.385698027760     0.557555903377    12.000000000000
         H            3.135065983559     0.066625972240     1.439642903377     1.007825032230
         H            1.264466983559     1.609712972240     0.724466903377     1.007825032230
         H           -3.512404016441     1.422712972240    -0.145116096623     1.007825032230
         H           -3.972397016441     0.302851972240    -1.422843096623     1.007825032230
         H            3.304954983559     0.780581972240    -1.524560096623     1.007825032230
         H            3.697999983559     1.887756972240    -0.187931096623     1.007825032230
         H            4.693771983559     0.450537972240    -0.461655096623     1.007825032230
         H            0.383052983559    -1.137194027760    -0.323758096623     1.007825032230
         H           -2.039571916441    -1.239651827760    -0.728365296623     1.007825032230
         H           -1.165858016441     1.505368972240     0.305664903377     1.007825032230
         H           -4.526572016441    -1.447954027760     0.302497903377     1.007825032230
         H           -5.486369016441     0.021010972240     0.530248903377     1.007825032230
         H           -4.095334016441    -0.305166027760     1.580710903377     1.007825032230
         H            3.601805983559    -1.679573027760    -0.005159096623     1.007825032230

  Basis Set: AUG-CC-PVTZ
    Blend: AUG-CC-PVTZ
  Basis Set: (AUG-CC-PVTZ AUX)
    Blend: AUG-CC-PVTZ-JKFIT
	 Reference Energy          =    -386.0619135987117261 [Eh]
	 Singles Energy            =      -0.0000000000000000 [Eh]
	 Same-Spin Energy          =      -0.4003318415171186 [Eh]
	 Opposite-Spin Energy      =      -1.3782730969818029 [Eh]
	 Correlation Energy        =      -1.7786049384989215 [Eh]
	 Total Energy              =    -387.8405185372106416 [Eh]

	 ================> DF-SCS-MP2 Energies <==================
	-----------------------------------------------------------
	 SCS Same-Spin Scale       =       0.3333333333333333 [-]
	 SCS Opposite-Spin Scale   =       1.2000000000000000 [-]
	 SCS Same-Spin Energy      =      -0.1334439471723729 [Eh]
	 SCS Opposite-Spin Energy  =      -1.6539277163781634 [Eh]
	 SCS Correlation Energy    =      -1.7873716635505363 [Eh]
	 SCS Total Energy          =    -387.8492852622622422 [Eh]
	-----------------------------------------------------------

  Dipole Moment: [D]
     X:     1.1968      Y:     0.7385      Z:     0.3127     Total:     1.4407

*** Psi4 exiting successfully. Buy a developer a beer!
