                               Psi4 1.3.2 release

  ==> Input File <==

--------------------------------------------------------------------------
#psi4
#
memory 32 gb

molecule  {
0 1
  O        2.6932640    -1.3344870    -0.0264310
  C        2.7508540     0.0254460     0.4069810
  C        1.3606810     0.5764810     0.3953890
  C       -3.5492030     0.3621160    -0.4101590
  C        3.6632246     0.8379825    -0.5063022
  C        0.2704120    -0.1024690    -0.0006590
  C       -2.1631840    -0.2004740    -0.4090490
  C       -1.0635270     0.4697970    -0.0176060
  C       -4.4702810    -0.3835230     0.5583970
  H        3.1288189     0.0632292     1.4433938
  H        1.2655190     1.6118880     0.7253080
  H       -3.5113520     1.4248880    -0.1442750
  H       -3.9713450     0.3050270    -1.4220020
  H        3.3060070     0.7827570    -1.5237190
  H        3.6990520     1.8899320    -0.1870900
  H        4.6948240     0.4527130    -0.4608140
  H        0.3841050    -1.1350190    -0.3229170
  H       -2.0573220    -1.2386810    -0.7303930
  H       -1.1648060     1.5075440     0.3065060
  H       -4.5255200    -1.4457790     0.3033390
  H       -5.4853170     0.0231860     0.5310900
  H       -4.0942820    -0.3029910     1.5815520
  H        3.6028580    -1.6773980    -0.0043180
units angstrom
no_reorient  #important for SAPT in psi4, default
symmetry c1  #important for SAPT in psi4, default
}

set PROPERTIES_ORIGIN ["COM"]
properties('MP2/aug-cc-pvtz', properties = ['dipole'])
--------------------------------------------------------------------------

    Molecular point group: c1
  Charge       = 0
  Multiplicity = 1
  Basis Set: AUG-CC-PVTZ
    Blend: AUG-CC-PVTZ
  Basis Set: (AUG-CC-PVTZ AUX)
    Blend: AUG-CC-PVTZ-JKFIT

    Orbital Energies [Eh]
    ---------------------

    Doubly Occupied:

       1A    -20.558321     2A    -11.286446     3A    -11.225835
       4A    -11.223525     5A    -11.223182     6A    -11.222890
       7A    -11.221605     8A    -11.220770     9A    -11.212762
      10A     -1.360474    11A     -1.097787    12A     -1.061304
      13A     -1.016008    14A     -0.962319    15A     -0.876684
      16A     -0.828664    17A     -0.752386    18A     -0.747977
      19A     -0.695283    20A     -0.637008    21A     -0.627871
      22A     -0.616399    23A     -0.589474    24A     -0.582696
      25A     -0.549592    26A     -0.543226    27A     -0.526262
      28A     -0.518790    29A     -0.500526    30A     -0.491880
      31A     -0.479016    32A     -0.467504    33A     -0.453369
      34A     -0.418387    35A     -0.297413

  @DF-RHF Final Energy:  -386.06239409777663

   => Energetics <=

    Nuclear Repulsion Energy =            418.0577633481044586
    One-Electron Energy =               -1352.0530519987476055
    Two-Electron Energy =                 547.9328945528665145
    Total Energy =                       -386.0623940977766324
  Basis Set: (AUG-CC-PVTZ AUX)
    Blend: AUG-CC-PVTZ-RI
    Molecular point group: c1

    Geometry (in Angstrom), charge = 0, multiplicity = 1:

       Center              X                  Y                   Z               Mass
    ------------   -----------------  -----------------  -----------------  -----------------
         O            2.694053154232    -1.334156030670    -0.025459974593    15.994914619570
         C            2.751643154232     0.025776969330     0.407952025407    12.000000000000
         C            1.361470154232     0.576811969330     0.396360025407    12.000000000000
         C           -3.548413845768     0.362446969330    -0.409187974593    12.000000000000
         C            3.664013754232     0.838313469330    -0.505331174593    12.000000000000
         C            0.271201154232    -0.102138030670     0.000312025407    12.000000000000
         C           -2.162394845768    -0.200143030670    -0.408077974593    12.000000000000
         C           -1.062737845768     0.470127969330    -0.016634974593    12.000000000000
         C           -4.469491845768    -0.383192030670     0.559368025407    12.000000000000
         H            3.129608054232     0.063560169330     1.444364825407     1.007825032230
         H            1.266308154232     1.612218969330     0.726279025407     1.007825032230
         H           -3.510562845768     1.425218969330    -0.143303974593     1.007825032230
         H           -3.970555845768     0.305357969330    -1.421030974593     1.007825032230
         H            3.306796154232     0.783087969330    -1.522747974593     1.007825032230
         H            3.699841154232     1.890262969330    -0.186118974593     1.007825032230
         H            4.695613154232     0.453043969330    -0.459842974593     1.007825032230
         H            0.384894154232    -1.134688030670    -0.321945974593     1.007825032230
         H           -2.056532845768    -1.238350030670    -0.729421974593     1.007825032230
         H           -1.164016845768     1.507874969330     0.307477025407     1.007825032230
         H           -4.524730845768    -1.445448030670     0.304310025407     1.007825032230
         H           -5.484527845768     0.023516969330     0.532061025407     1.007825032230
         H           -4.093492845768    -0.302660030670     1.582523025407     1.007825032230
         H            3.603647154232    -1.677067030670    -0.003346974593     1.007825032230

  Basis Set: AUG-CC-PVTZ
    Blend: AUG-CC-PVTZ
  Basis Set: (AUG-CC-PVTZ AUX)
    Blend: AUG-CC-PVTZ-JKFIT
	 Reference Energy          =    -386.0623940977766324 [Eh]
	 Singles Energy            =      -0.0000000000000000 [Eh]
	 Same-Spin Energy          =      -0.4003453819127507 [Eh]
	 Opposite-Spin Energy      =      -1.3783262393201734 [Eh]
	 Correlation Energy        =      -1.7786716212329241 [Eh]
	 Total Energy              =    -387.8410657190095776 [Eh]

	 ================> DF-SCS-MP2 Energies <==================
	-----------------------------------------------------------
	 SCS Same-Spin Scale       =       0.3333333333333333 [-]
	 SCS Opposite-Spin Scale   =       1.2000000000000000 [-]
	 SCS Same-Spin Energy      =      -0.1334484606375836 [Eh]
	 SCS Opposite-Spin Energy  =      -1.6539914871842081 [Eh]
	 SCS Correlation Energy    =      -1.7874399478217917 [Eh]
	 SCS Total Energy          =    -387.8498340455984135 [Eh]
	-----------------------------------------------------------

  Dipole Moment: [D]
     X:     1.2052      Y:     0.7306      Z:     0.3070     Total:     1.4425

*** Psi4 exiting successfully. Buy a developer a beer!
