                               Psi4 1.3.2 release

  ==> Input File <==

--------------------------------------------------------------------------
#psi4
#
memory 32 gb

molecule  {
0 1
  O        2.6932640    -1.3344870    -0.0264310
  C        2.7508540     0.0254460     0.4069810
  C        1.3606810     0.5764810     0.3953890
  C       -3.5492030     0.3621160    -0.4101590
  C        3.6709050     0.8409920    -0.4958550
  C        0.2704120    -0.1024690    -0.0006590
  C       -2.1631840    -0.2004740    -0.4090490
  C       -1.1042943     0.5260335    -0.0057181
  C       -4.4702810    -0.3835230     0.5583970
  H        3.1361180     0.0688010     1.4404840
  H        1.2655190     1.6118880     0.7253080
  H       -3.5113520     1.4248880    -0.1442750
  H       -3.9713450     0.3050270    -1.4220020
  H        3.3060070     0.7827570    -1.5237190
  H        3.6990520     1.8899320    -0.1870900
  H        4.6948240     0.4527130    -0.4608140
  H        0.3841050    -1.1350190    -0.3229170
  H       -2.1137124    -1.2399771    -0.7396975
  H       -1.1648060     1.5075440     0.3065060
  H       -4.5255200    -1.4457790     0.3033390
  H       -5.4853170     0.0231860     0.5310900
  H       -4.0942820    -0.3029910     1.5815520
  H        3.6028580    -1.6773980    -0.0043180
units angstrom
no_reorient  #important for SAPT in psi4, default
symmetry c1  #important for SAPT in psi4, default
}

set PROPERTIES_ORIGIN ["COM"]
properties('MP2/aug-cc-pvtz', properties = ['dipole'])
--------------------------------------------------------------------------

    Molecular point group: c1
  Charge       = 0
  Multiplicity = 1
  Basis Set: AUG-CC-PVTZ
    Blend: AUG-CC-PVTZ
  Basis Set: (AUG-CC-PVTZ AUX)
    Blend: AUG-CC-PVTZ-JKFIT

    Orbital Energies [Eh]
    ---------------------

    Doubly Occupied:

       1A    -20.558143     2A    -11.285459     3A    -11.226983
       4A    -11.225678     5A    -11.223555     6A    -11.220390
       7A    -11.220292     8A    -11.219858     9A    -11.212126
      10A     -1.359975    11A     -1.094305    12A     -1.060574
      13A     -1.012064    14A     -0.962030    15A     -0.872972
      16A     -0.827644    17A     -0.760670    18A     -0.744874
      19A     -0.694505    20A     -0.639148    21A     -0.623849
      22A     -0.617249    23A     -0.593526    24A     -0.577716
      25A     -0.547627    26A     -0.544861    27A     -0.533817
      28A     -0.517419    29A     -0.502530    30A     -0.492968
      31A     -0.479915    32A     -0.458532    33A     -0.451613
      34A     -0.411777    35A     -0.300973

  @DF-RHF Final Energy:  -386.05729042696015

   => Energetics <=

    Nuclear Repulsion Energy =            417.4246499011254059
    One-Electron Energy =               -1350.8126420430858161
    Two-Electron Energy =                 547.3307017150002594
    Total Energy =                       -386.0572904269602077
  Basis Set: (AUG-CC-PVTZ AUX)
    Blend: AUG-CC-PVTZ-RI
    Molecular point group: c1

    Geometry (in Angstrom), charge = 0, multiplicity = 1:

       Center              X                  Y                   Z               Mass
    ------------   -----------------  -----------------  -----------------  -----------------
         O            2.697594014111    -1.339828003959    -0.027487748333    15.994914619570
         C            2.755184014111     0.020104996041     0.405924251667    12.000000000000
         C            1.365011014111     0.571139996041     0.394332251667    12.000000000000
         C           -3.544872985889     0.356774996041    -0.411215748333    12.000000000000
         C            3.675235014111     0.835650996041    -0.496911748333    12.000000000000
         C            0.274742014111    -0.107810003959    -0.001715748333    12.000000000000
         C           -2.158853985889    -0.205815003959    -0.410105748333    12.000000000000
         C           -1.099964285889     0.520692496041    -0.006774848333    12.000000000000
         C           -4.465950985889    -0.388864003959     0.557340251667    12.000000000000
         H            3.140448014111     0.063459996041     1.439427251667     1.007825032230
         H            1.269849014111     1.606546996041     0.724251251667     1.007825032230
         H           -3.507021985889     1.419546996041    -0.145331748333     1.007825032230
         H           -3.967014985889     0.299685996041    -1.423058748333     1.007825032230
         H            3.310337014111     0.777415996041    -1.524775748333     1.007825032230
         H            3.703382014111     1.884590996041    -0.188146748333     1.007825032230
         H            4.699154014111     0.447371996041    -0.461870748333     1.007825032230
         H            0.388435014111    -1.140360003959    -0.323973748333     1.007825032230
         H           -2.109382385889    -1.245318103959    -0.740754248333     1.007825032230
         H           -1.160475985889     1.502202996041     0.305449251667     1.007825032230
         H           -4.521189985889    -1.451120003959     0.302282251667     1.007825032230
         H           -5.480986985889     0.017844996041     0.530033251667     1.007825032230
         H           -4.089951985889    -0.308332003959     1.580495251667     1.007825032230
         H            3.607188014111    -1.682739003959    -0.005374748333     1.007825032230

  Basis Set: AUG-CC-PVTZ
    Blend: AUG-CC-PVTZ
  Basis Set: (AUG-CC-PVTZ AUX)
    Blend: AUG-CC-PVTZ-JKFIT
	 Reference Energy          =    -386.0572904269601509 [Eh]
	 Singles Energy            =      -0.0000000000000000 [Eh]
	 Same-Spin Energy          =      -0.3996331097104441 [Eh]
	 Opposite-Spin Energy      =      -1.3778874760416386 [Eh]
	 Correlation Energy        =      -1.7775205857520828 [Eh]
	 Total Energy              =    -387.8348110127122368 [Eh]

	 ================> DF-SCS-MP2 Energies <==================
	-----------------------------------------------------------
	 SCS Same-Spin Scale       =       0.3333333333333333 [-]
	 SCS Opposite-Spin Scale   =       1.2000000000000000 [-]
	 SCS Same-Spin Energy      =      -0.1332110365701480 [Eh]
	 SCS Opposite-Spin Energy  =      -1.6534649712499663 [Eh]
	 SCS Correlation Energy    =      -1.7866760078201143 [Eh]
	 SCS Total Energy          =    -387.8439664347802704 [Eh]
	-----------------------------------------------------------

  Dipole Moment: [D]
     X:     1.1664      Y:     0.7368      Z:     0.3016     Total:     1.4122

*** Psi4 exiting successfully. Buy a developer a beer!
