                               Psi4 1.4a3.dev225

  ==> Input File <==

--------------------------------------------------------------------------
#psi4
#
memory 32 gb

molecule  {
0 1
  O       -2.7161510     1.3794200    -0.1343610
  C       -2.7832390     0.0721360     0.4401970
  C       -1.3979030    -0.4954620     0.4743180
  C        3.5083460    -0.4405980    -0.4123350
  C       -3.7239960    -0.8239440    -0.3625680
  C       -0.3030690     0.1219220    -0.0067100
  C        2.1282810     0.1394430    -0.4544070
  C        1.0245920    -0.4684390     0.0236420
  C        4.4606410     0.4027870     0.4416180
  H       -3.1581590     0.1412460     1.4762970
  H       -1.3112260    -1.4900120     0.9147240
  H        3.4619600    -1.4629760    -0.0187660
  H        3.9104550    -0.5133060    -1.4317100
  H       -3.3684670    -0.8811940    -1.3941910
  H       -3.7626400    -1.8335820     0.0574350
  H       -4.7426360    -0.4191700    -0.3608330
  H       -0.4078810     1.1149080    -0.4388390
  H        2.0311270     1.1370710    -0.8883280
  H        1.1170930    -1.4649260     0.4609700
  H        4.5263310     1.4251690     0.0574090
  H        5.4690900    -0.0219830     0.4454750
  H        4.1044230     0.4539160     1.4740500
  H       -3.6687707     1.7505700    -0.1416925
units angstrom
no_reorient  #important for SAPT in psi4, default
symmetry c1  #important for SAPT in psi4, default
}

set PROPERTIES_ORIGIN ["COM"]
properties('MP2/aug-cc-pvtz', properties = ['dipole'])
--------------------------------------------------------------------------

    Molecular point group: c1
  Charge       = 0
  Multiplicity = 1
  Basis Set: AUG-CC-PVTZ
    Blend: AUG-CC-PVTZ
  Basis Set: (AUG-CC-PVTZ AUX)
    Blend: AUG-CC-PVTZ-JKFIT

    Orbital Energies [Eh]
    ---------------------

    Doubly Occupied:

       1A    -20.563179     2A    -11.286550     3A    -11.226432
       4A    -11.224246     5A    -11.223715     6A    -11.223528
       7A    -11.222386     8A    -11.220618     9A    -11.213088
      10A     -1.350286    11A     -1.096649    12A     -1.059398
      13A     -1.014753    14A     -0.961913    15A     -0.875480
      16A     -0.827363    17A     -0.752141    18A     -0.744997
      19A     -0.689378    20A     -0.635974    21A     -0.627120
      22A     -0.613989    23A     -0.589307    24A     -0.581897
      25A     -0.545159    26A     -0.543206    27A     -0.526977
      28A     -0.518121    29A     -0.500545    30A     -0.491095
      31A     -0.479108    32A     -0.467377    33A     -0.451742
      34A     -0.417719    35A     -0.297231

  @DF-RHF Final Energy:  -386.05717620738812

   => Energetics <=

    Nuclear Repulsion Energy =            417.1996889286828036
    One-Electron Energy =               -1350.3883994186437576
    Two-Electron Energy =                 547.1315342825728294
    Total Energy =                       -386.0571762073881246
  Basis Set: (AUG-CC-PVTZ AUX)
    Blend: AUG-CC-PVTZ-RI
    Molecular point group: c1

    Geometry (in Angstrom), charge = 0, multiplicity = 1:

       Center              X                  Y                   Z               Mass
    ------------   -----------------  -----------------  -----------------  -----------------
         O           -2.682471007550     1.362946172908    -0.132692753659    15.994914619570
         C           -2.749559007550     0.055662172908     0.441865246341    12.000000000000
         C           -1.364223007550    -0.511935827092     0.475986246341    12.000000000000
         C            3.542025992450    -0.457071827092    -0.410666753659    12.000000000000
         C           -3.690316007550    -0.840417827092    -0.360899753659    12.000000000000
         C           -0.269389007550     0.105448172908    -0.005041753659    12.000000000000
         C            2.161960992450     0.122969172908    -0.452738753659    12.000000000000
         C            1.058271992450    -0.484912827092     0.025310246341    12.000000000000
         C            4.494320992450     0.386313172908     0.443286246341    12.000000000000
         H           -3.124479007550     0.124772172908     1.477965246341     1.007825032230
         H           -1.277546007550    -1.506485827092     0.916392246341     1.007825032230
         H            3.495639992450    -1.479449827092    -0.017097753659     1.007825032230
         H            3.944134992450    -0.529779827092    -1.430041753659     1.007825032230
         H           -3.334787007550    -0.897667827092    -1.392522753659     1.007825032230
         H           -3.728960007550    -1.850055827092     0.059103246341     1.007825032230
         H           -4.708956007550    -0.435643827092    -0.359164753659     1.007825032230
         H           -0.374201007550     1.098434172908    -0.437170753659     1.007825032230
         H            2.064806992450     1.120597172908    -0.886659753659     1.007825032230
         H            1.150772992450    -1.481399827092     0.462638246341     1.007825032230
         H            4.560010992450     1.408695172908     0.059077246341     1.007825032230
         H            5.502769992450    -0.038456827092     0.447143246341     1.007825032230
         H            4.138102992450     0.437442172908     1.475718246341     1.007825032230
         H           -3.635090707550     1.734096172908    -0.140024253659     1.007825032230

  Basis Set: AUG-CC-PVTZ
    Blend: AUG-CC-PVTZ
  Basis Set: (AUG-CC-PVTZ AUX)
    Blend: AUG-CC-PVTZ-JKFIT
	 Reference Energy          =    -386.0571762073881246 [Eh]
	 Singles Energy            =      -0.0000000000000000 [Eh]
	 Same-Spin Energy          =      -0.4008597471886668 [Eh]
	 Opposite-Spin Energy      =      -1.3800257462055530 [Eh]
	 Correlation Energy        =      -1.7808854933942198 [Eh]
	 Total Energy              =    -387.8380617007823616 [Eh]

	 ================> DF-SCS-MP2 Energies <==================
	-----------------------------------------------------------
	 SCS Same-Spin Scale       =       0.3333333333333333 [-]
	 SCS Opposite-Spin Scale   =       1.2000000000000000 [-]
	 SCS Same-Spin Energy      =      -0.1336199157295556 [Eh]
	 SCS Opposite-Spin Energy  =      -1.6560308954466636 [Eh]
	 SCS Correlation Energy    =      -1.7896508111762193 [Eh]
	 SCS Total Energy          =    -387.8468270185643405 [Eh]
	-----------------------------------------------------------

  Dipole Moment: [D]
     X:    -1.2355      Y:    -0.6639      Z:     0.3888     Total:     1.4555

*** Psi4 exiting successfully. Buy a developer a beer!
