                               Psi4 1.3.2 release

  ==> Input File <==

--------------------------------------------------------------------------
#psi4
#
memory 32 gb

molecule  {
0 1
  O        2.6932640    -1.3344870    -0.0264310
  C        2.7508540     0.0254460     0.4069810
  C        1.3606810     0.5764810     0.3953890
  C       -3.5492030     0.3621160    -0.4101590
  C        3.6709050     0.8409920    -0.4958550
  C        0.2510210    -0.1459400    -0.0180233
  C       -2.1362971    -0.2381013    -0.4173318
  C       -1.0635270     0.4697970    -0.0176060
  C       -4.4702810    -0.3835230     0.5583970
  H        3.1361180     0.0688010     1.4404840
  H        1.2655190     1.6118880     0.7253080
  H       -3.5113520     1.4248880    -0.1442750
  H       -3.9713450     0.3050270    -1.4220020
  H        3.3060070     0.7827570    -1.5237190
  H        3.6990520     1.8899320    -0.1870900
  H        4.6948240     0.4527130    -0.4608140
  H        0.3841050    -1.1350190    -0.3229170
  H       -2.0573220    -1.2386810    -0.7303930
  H       -1.1648060     1.5075440     0.3065060
  H       -4.5255200    -1.4457790     0.3033390
  H       -5.4853170     0.0231860     0.5310900
  H       -4.0942820    -0.3029910     1.5815520
  H        3.6028580    -1.6773980    -0.0043180
units angstrom
no_reorient  #important for SAPT in psi4, default
symmetry c1  #important for SAPT in psi4, default
}

set PROPERTIES_ORIGIN ["COM"]
properties('MP2/aug-cc-pvtz', properties = ['dipole'])
--------------------------------------------------------------------------

    Molecular point group: c1
  Charge       = 0
  Multiplicity = 1
  Basis Set: AUG-CC-PVTZ
    Blend: AUG-CC-PVTZ
  Basis Set: (AUG-CC-PVTZ AUX)
    Blend: AUG-CC-PVTZ-JKFIT

    Orbital Energies [Eh]
    ---------------------

    Doubly Occupied:

       1A    -20.558540     2A    -11.285542     3A    -11.227500
       4A    -11.225140     5A    -11.224364     6A    -11.223930
       7A    -11.222573     8A    -11.220024     9A    -11.211626
      10A     -1.360329    11A     -1.094861    12A     -1.055389
      13A     -1.015017    14A     -0.958483    15A     -0.874433
      16A     -0.824189    17A     -0.759828    18A     -0.752336
      19A     -0.695543    20A     -0.639551    21A     -0.622600
      22A     -0.615754    23A     -0.589622    24A     -0.578766
      25A     -0.549488    26A     -0.545180    27A     -0.530178
      28A     -0.516652    29A     -0.508163    30A     -0.490270
      31A     -0.482390    32A     -0.461075    33A     -0.451725
      34A     -0.416352    35A     -0.291086

  @DF-RHF Final Energy:  -386.05496044165687

   => Energetics <=

    Nuclear Repulsion Energy =            417.4505449219460615
    One-Electron Energy =               -1350.8540154598495064
    Two-Electron Energy =                 547.3485100962465140
    Total Energy =                       -386.0549604416569309
  Basis Set: (AUG-CC-PVTZ AUX)
    Blend: AUG-CC-PVTZ-RI
    Molecular point group: c1

    Geometry (in Angstrom), charge = 0, multiplicity = 1:

       Center              X                  Y                   Z               Mass
    ------------   -----------------  -----------------  -----------------  -----------------
         O            2.692550655366    -1.326769692685    -0.023990309192    15.994914619570
         C            2.750140655366     0.033163307315     0.409421690808    12.000000000000
         C            1.359967655366     0.584198307315     0.397829690808    12.000000000000
         C           -3.549916344634     0.369833307315    -0.407718309192    12.000000000000
         C            3.670191655366     0.848709307315    -0.493414309192    12.000000000000
         C            0.250307655366    -0.138222692685    -0.015582609192    12.000000000000
         C           -2.137010444634    -0.230383992685    -0.414891109192    12.000000000000
         C           -1.064240344634     0.477514307315    -0.015165309192    12.000000000000
         C           -4.470994344634    -0.375805692685     0.560837690808    12.000000000000
         H            3.135404655366     0.076518307315     1.442924690808     1.007825032230
         H            1.264805655366     1.619605307315     0.727748690808     1.007825032230
         H           -3.512065344634     1.432605307315    -0.141834309192     1.007825032230
         H           -3.972058344634     0.312744307315    -1.419561309192     1.007825032230
         H            3.305293655366     0.790474307315    -1.521278309192     1.007825032230
         H            3.698338655366     1.897649307315    -0.184649309192     1.007825032230
         H            4.694110655366     0.460430307315    -0.458373309192     1.007825032230
         H            0.383391655366    -1.127301692685    -0.320476309192     1.007825032230
         H           -2.058035344634    -1.230963692685    -0.727952309192     1.007825032230
         H           -1.165519344634     1.515261307315     0.308946690808     1.007825032230
         H           -4.526233344634    -1.438061692685     0.305779690808     1.007825032230
         H           -5.486030344634     0.030903307315     0.533530690808     1.007825032230
         H           -4.094995344634    -0.295273692685     1.583992690808     1.007825032230
         H            3.602144655366    -1.669680692685    -0.001877309192     1.007825032230

  Basis Set: AUG-CC-PVTZ
    Blend: AUG-CC-PVTZ
  Basis Set: (AUG-CC-PVTZ AUX)
    Blend: AUG-CC-PVTZ-JKFIT
	 Reference Energy          =    -386.0549604416568741 [Eh]
	 Singles Energy            =      -0.0000000000000000 [Eh]
	 Same-Spin Energy          =      -0.4005043428201168 [Eh]
	 Opposite-Spin Energy      =      -1.3793088153093773 [Eh]
	 Correlation Energy        =      -1.7798131581294940 [Eh]
	 Total Energy              =    -387.8347735997863879 [Eh]

	 ================> DF-SCS-MP2 Energies <==================
	-----------------------------------------------------------
	 SCS Same-Spin Scale       =       0.3333333333333333 [-]
	 SCS Opposite-Spin Scale   =       1.2000000000000000 [-]
	 SCS Same-Spin Energy      =      -0.1335014476067056 [Eh]
	 SCS Opposite-Spin Energy  =      -1.6551705783712527 [Eh]
	 SCS Correlation Energy    =      -1.7886720259779583 [Eh]
	 SCS Total Energy          =    -387.8436324676348477 [Eh]
	-----------------------------------------------------------

  Dipole Moment: [D]
     X:     1.2314      Y:     0.7167      Z:     0.3053     Total:     1.4571

*** Psi4 exiting successfully. Buy a developer a beer!
