                               Psi4 1.3.2 release

  ==> Input File <==

--------------------------------------------------------------------------
#psi4
#
memory 32 gb

molecule  {
0 1
  O        2.6932640    -1.3344870    -0.0264310
  C        2.7508540     0.0254460     0.4069810
  C        1.3606810     0.5764810     0.3953890
  C       -3.5750863     0.2928473    -0.4359444
  C        3.6709050     0.8409920    -0.4958550
  C        0.2704120    -0.1024690    -0.0006590
  C       -2.1631840    -0.2004740    -0.4090490
  C       -1.0635270     0.4697970    -0.0176060
  C       -4.4702810    -0.3835230     0.5583970
  H        3.1361180     0.0688010     1.4404840
  H        1.2655190     1.6118880     0.7253080
  H       -3.5113520     1.4248880    -0.1442750
  H       -3.9713450     0.3050270    -1.4220020
  H        3.3060070     0.7827570    -1.5237190
  H        3.6990520     1.8899320    -0.1870900
  H        4.6948240     0.4527130    -0.4608140
  H        0.3841050    -1.1350190    -0.3229170
  H       -2.1138988    -1.2403950    -0.7384087
  H       -1.1648060     1.5075440     0.3065060
  H       -4.5255200    -1.4457790     0.3033390
  H       -5.4853170     0.0231860     0.5310900
  H       -4.0942820    -0.3029910     1.5815520
  H        3.6028580    -1.6773980    -0.0043180
units angstrom
no_reorient  #important for SAPT in psi4, default
symmetry c1  #important for SAPT in psi4, default
}

set PROPERTIES_ORIGIN ["COM"]
properties('MP2/aug-cc-pvtz', properties = ['dipole'])
--------------------------------------------------------------------------

    Molecular point group: c1
  Charge       = 0
  Multiplicity = 1
  Basis Set: AUG-CC-PVTZ
    Blend: AUG-CC-PVTZ
  Basis Set: (AUG-CC-PVTZ AUX)
    Blend: AUG-CC-PVTZ-JKFIT

    Orbital Energies [Eh]
    ---------------------

    Doubly Occupied:

       1A    -20.558956     2A    -11.286898     3A    -11.227117
       4A    -11.225556     5A    -11.224395     6A    -11.224149
       7A    -11.222532     8A    -11.220859     9A    -11.212124
      10A     -1.360874    11A     -1.098328    12A     -1.063317
      13A     -1.018663    14A     -0.964241    15A     -0.877733
      16A     -0.828677    17A     -0.750543    18A     -0.748421
      19A     -0.695679    20A     -0.637595    21A     -0.630656
      22A     -0.616814    23A     -0.592665    24A     -0.582147
      25A     -0.547439    26A     -0.546145    27A     -0.530297
      28A     -0.527710    29A     -0.502909    30A     -0.492356
      31A     -0.470322    32A     -0.453540    33A     -0.452721
      34A     -0.420329    35A     -0.299209

  @DF-RHF Final Energy:  -386.05478438267403

   => Energetics <=

    Nuclear Repulsion Energy =            418.0009433106840220
    One-Electron Energy =               -1351.8876218891641656
    Two-Electron Energy =                 547.8318941958060577
    Total Energy =                       -386.0547843826740291
  Basis Set: (AUG-CC-PVTZ AUX)
    Blend: AUG-CC-PVTZ-RI
    Molecular point group: c1

    Geometry (in Angstrom), charge = 0, multiplicity = 1:

       Center              X                  Y                   Z               Mass
    ------------   -----------------  -----------------  -----------------  -----------------
         O            2.696179154286    -1.327881689693    -0.023913087318    15.994914619570
         C            2.753769154286     0.032051310307     0.409498912682    12.000000000000
         C            1.363596154286     0.583086310307     0.397906912682    12.000000000000
         C           -3.572171145714     0.299452610307    -0.433426487318    12.000000000000
         C            3.673820154286     0.847597310307    -0.493337087318    12.000000000000
         C            0.273327154286    -0.095863689693     0.001858912682    12.000000000000
         C           -2.160268845714    -0.193868689693    -0.406531087318    12.000000000000
         C           -1.060611845714     0.476402310307    -0.015088087318    12.000000000000
         C           -4.467365845714    -0.376917689693     0.560914912682    12.000000000000
         H            3.139033154286     0.075406310307     1.443001912682     1.007825032230
         H            1.268434154286     1.618493310307     0.727825912682     1.007825032230
         H           -3.508436845714     1.431493310307    -0.141757087318     1.007825032230
         H           -3.968429845714     0.311632310307    -1.419484087318     1.007825032230
         H            3.308922154286     0.789362310307    -1.521201087318     1.007825032230
         H            3.701967154286     1.896537310307    -0.184572087318     1.007825032230
         H            4.697739154286     0.459318310307    -0.458296087318     1.007825032230
         H            0.387020154286    -1.128413689693    -0.320399087318     1.007825032230
         H           -2.110983645714    -1.233789689693    -0.735890787318     1.007825032230
         H           -1.161890845714     1.514149310307     0.309023912682     1.007825032230
         H           -4.522604845714    -1.439173689693     0.305856912682     1.007825032230
         H           -5.482401845714     0.029791310307     0.533607912682     1.007825032230
         H           -4.091366845714    -0.296385689693     1.584069912682     1.007825032230
         H            3.605773154286    -1.670792689693    -0.001800087318     1.007825032230

  Basis Set: AUG-CC-PVTZ
    Blend: AUG-CC-PVTZ
  Basis Set: (AUG-CC-PVTZ AUX)
    Blend: AUG-CC-PVTZ-JKFIT
	 Reference Energy          =    -386.0547843826740291 [Eh]
	 Singles Energy            =      -0.0000000000000000 [Eh]
	 Same-Spin Energy          =      -0.4006232021497669 [Eh]
	 Opposite-Spin Energy      =      -1.3790125653445835 [Eh]
	 Correlation Energy        =      -1.7796357674943504 [Eh]
	 Total Energy              =    -387.8344201501683983 [Eh]

	 ================> DF-SCS-MP2 Energies <==================
	-----------------------------------------------------------
	 SCS Same-Spin Scale       =       0.3333333333333333 [-]
	 SCS Opposite-Spin Scale   =       1.2000000000000000 [-]
	 SCS Same-Spin Energy      =      -0.1335410673832556 [Eh]
	 SCS Opposite-Spin Energy  =      -1.6548150784135001 [Eh]
	 SCS Correlation Energy    =      -1.7883561457967556 [Eh]
	 SCS Total Energy          =    -387.8431405284707694 [Eh]
	-----------------------------------------------------------

  Dipole Moment: [D]
     X:     1.2375      Y:     0.6853      Z:     0.3043     Total:     1.4470

*** Psi4 exiting successfully. Buy a developer a beer!
