                               Psi4 1.3.2 release

  ==> Input File <==

--------------------------------------------------------------------------
#psi4
#
memory 32 gb

molecule  {
0 1
  O        2.6438799    -1.3298590    -0.0315225
  C        2.7508540     0.0254460     0.4069810
  C        1.3434403     0.5301600     0.3786029
  C       -3.5492030     0.3621160    -0.4101590
  C        3.6709050     0.8409920    -0.4958550
  C        0.2704120    -0.1024690    -0.0006590
  C       -2.1631840    -0.2004740    -0.4090490
  C       -1.0635270     0.4697970    -0.0176060
  C       -4.4702810    -0.3835230     0.5583970
  H        3.1361180     0.0688010     1.4404840
  H        1.2655190     1.6118880     0.7253080
  H       -3.5113520     1.4248880    -0.1442750
  H       -3.9713450     0.3050270    -1.4220020
  H        3.3060070     0.7827570    -1.5237190
  H        3.6990520     1.8899320    -0.1870900
  H        4.6948240     0.4527130    -0.4608140
  H        0.3841050    -1.1350190    -0.3229170
  H       -2.0573220    -1.2386810    -0.7303930
  H       -1.1648060     1.5075440     0.3065060
  H       -4.5255200    -1.4457790     0.3033390
  H       -5.4853170     0.0231860     0.5310900
  H       -4.0942820    -0.3029910     1.5815520
  H        3.6028580    -1.6773980    -0.0043180
units angstrom
no_reorient  #important for SAPT in psi4, default
symmetry c1  #important for SAPT in psi4, default
}

set PROPERTIES_ORIGIN ["COM"]
properties('MP2/aug-cc-pvtz', properties = ['dipole'])
--------------------------------------------------------------------------

    Molecular point group: c1
  Charge       = 0
  Multiplicity = 1
  Basis Set: AUG-CC-PVTZ
    Blend: AUG-CC-PVTZ
  Basis Set: (AUG-CC-PVTZ AUX)
    Blend: AUG-CC-PVTZ-JKFIT

    Orbital Energies [Eh]
    ---------------------

    Doubly Occupied:

       1A    -20.563780     2A    -11.286509     3A    -11.225534
       4A    -11.222950     5A    -11.222664     6A    -11.222203
       7A    -11.219431     8A    -11.214624     9A    -11.212544
      10A     -1.353928    11A     -1.099500    12A     -1.061354
      13A     -1.016277    14A     -0.965914    15A     -0.875504
      16A     -0.830066    17A     -0.753109    18A     -0.734813
      19A     -0.692658    20A     -0.635963    21A     -0.630520
      22A     -0.615729    23A     -0.589132    24A     -0.579753
      25A     -0.546461    26A     -0.543017    27A     -0.526428
      28A     -0.517459    29A     -0.496002    30A     -0.492610
      31A     -0.478607    32A     -0.463525    33A     -0.453286
      34A     -0.422287    35A     -0.302631

  @DF-RHF Final Energy:  -386.05344541686992

   => Energetics <=

    Nuclear Repulsion Energy =            418.8586831935141959
    One-Electron Energy =               -1353.6907168956568057
    Two-Electron Energy =                 548.7785882852726900
    Total Energy =                       -386.0534454168698630
  Basis Set: (AUG-CC-PVTZ AUX)
    Blend: AUG-CC-PVTZ-RI
    Molecular point group: c1

    Geometry (in Angstrom), charge = 0, multiplicity = 1:

       Center              X                  Y                   Z               Mass
    ------------   -----------------  -----------------  -----------------  -----------------
         O            2.651784280856    -1.326038081798    -0.029279216097    15.994914619570
         C            2.758758380856     0.029266918202     0.409224283903    12.000000000000
         C            1.351344680856     0.533980918202     0.380846183903    12.000000000000
         C           -3.541298619144     0.365936918202    -0.407915716097    12.000000000000
         C            3.678809380856     0.844812918202    -0.493611716097    12.000000000000
         C            0.278316380856    -0.098648081798     0.001584283903    12.000000000000
         C           -2.155279619144    -0.196653081798    -0.406805716097    12.000000000000
         C           -1.055622619144     0.473617918202    -0.015362716097    12.000000000000
         C           -4.462376619144    -0.379702081798     0.560640283903    12.000000000000
         H            3.144022380856     0.072621918202     1.442727283903     1.007825032230
         H            1.273423380856     1.615708918202     0.727551283903     1.007825032230
         H           -3.503447619144     1.428708918202    -0.142031716097     1.007825032230
         H           -3.963440619144     0.308847918202    -1.419758716097     1.007825032230
         H            3.313911380856     0.786577918202    -1.521475716097     1.007825032230
         H            3.706956380856     1.893752918202    -0.184846716097     1.007825032230
         H            4.702728380856     0.456533918202    -0.458570716097     1.007825032230
         H            0.392009380856    -1.131198081798    -0.320673716097     1.007825032230
         H           -2.049417619144    -1.234860081798    -0.728149716097     1.007825032230
         H           -1.156901619144     1.511364918202     0.308749283903     1.007825032230
         H           -4.517615619144    -1.441958081798     0.305582283903     1.007825032230
         H           -5.477412619144     0.027006918202     0.533333283903     1.007825032230
         H           -4.086377619144    -0.299170081798     1.583795283903     1.007825032230
         H            3.610762380856    -1.673577081798    -0.002074716097     1.007825032230

  Basis Set: AUG-CC-PVTZ
    Blend: AUG-CC-PVTZ
  Basis Set: (AUG-CC-PVTZ AUX)
    Blend: AUG-CC-PVTZ-JKFIT
	 Reference Energy          =    -386.0534454168699199 [Eh]
	 Singles Energy            =      -0.0000000000000000 [Eh]
	 Same-Spin Energy          =      -0.4008951172580805 [Eh]
	 Opposite-Spin Energy      =      -1.3797013384800476 [Eh]
	 Correlation Energy        =      -1.7805964557381282 [Eh]
	 Total Energy              =    -387.8340418726080543 [Eh]

	 ================> DF-SCS-MP2 Energies <==================
	-----------------------------------------------------------
	 SCS Same-Spin Scale       =       0.3333333333333333 [-]
	 SCS Opposite-Spin Scale   =       1.2000000000000000 [-]
	 SCS Same-Spin Energy      =      -0.1336317057526935 [Eh]
	 SCS Opposite-Spin Energy  =      -1.6556416061760570 [Eh]
	 SCS Correlation Energy    =      -1.7892733119287505 [Eh]
	 SCS Total Energy          =    -387.8427187287986726 [Eh]
	-----------------------------------------------------------

  Dipole Moment: [D]
     X:     1.3123      Y:     0.6794      Z:     0.2894     Total:     1.5058

*** Psi4 exiting successfully. Buy a developer a beer!
