                               Psi4 1.3.2 release

  ==> Input File <==

--------------------------------------------------------------------------
#psi4
#
memory 32 gb

molecule  {
0 1
  O        2.6932640    -1.3344870    -0.0264310
  C        2.7508540     0.0254460     0.4069810
  C        1.3606810     0.5764810     0.3953890
  C       -3.5492030     0.3621160    -0.4101590
  C        3.6709050     0.8409920    -0.4958550
  C        0.2704120    -0.1024690    -0.0006590
  C       -2.1631840    -0.2004740    -0.4090490
  C       -1.0635270     0.4697970    -0.0176060
  C       -4.4702810    -0.3835230     0.5583970
  H        3.1361180     0.0688010     1.4404840
  H        1.2655190     1.6118880     0.7253080
  H       -3.5113520     1.4248880    -0.1442750
  H       -3.9713450     0.3050270    -1.4220020
  H        3.3060070     0.7827570    -1.5237190
  H        3.6990520     1.8899320    -0.1870900
  H        4.6948240     0.4527130    -0.4608140
  H        0.3841050    -1.1350190    -0.3229170
  H       -2.0573220    -1.2386810    -0.7303930
  H       -1.1648060     1.5075440     0.3065060
  H       -4.5255200    -1.4457790     0.3033390
  H       -5.4853170     0.0231860     0.5310900
  H       -4.0942820    -0.3029910     1.5815520
  H        3.7899525    -1.7479314     0.0002304
units angstrom
no_reorient  #important for SAPT in psi4, default
symmetry c1  #important for SAPT in psi4, default
}

set PROPERTIES_ORIGIN ["COM"]
properties('MP2/aug-cc-pvtz', properties = ['dipole'])
--------------------------------------------------------------------------

    Molecular point group: c1
  Charge       = 0
  Multiplicity = 1
  Basis Set: AUG-CC-PVTZ
    Blend: AUG-CC-PVTZ
  Basis Set: (AUG-CC-PVTZ AUX)
    Blend: AUG-CC-PVTZ-JKFIT

    Orbital Energies [Eh]
    ---------------------

    Doubly Occupied:

       1A    -20.573923     2A    -11.284867     3A    -11.225718
       4A    -11.223587     5A    -11.223112     6A    -11.222879
       7A    -11.221720     8A    -11.219341     9A    -11.212656
      10A     -1.329906    11A     -1.096584    12A     -1.057376
      13A     -1.013156    14A     -0.961983    15A     -0.873825
      16A     -0.825265    17A     -0.751834    18A     -0.739765
      19A     -0.675463    20A     -0.634143    21A     -0.627214
      22A     -0.606512    23A     -0.588538    24A     -0.577780
      25A     -0.543522    26A     -0.539450    27A     -0.525920
      28A     -0.518124    29A     -0.500043    30A     -0.486589
      31A     -0.478158    32A     -0.465588    33A     -0.449580
      34A     -0.417805    35A     -0.297251

  @DF-RHF Final Energy:  -386.02671028920281

   => Energetics <=

    Nuclear Repulsion Energy =            416.9070428546020821
    One-Electron Energy =               -1349.8891491063757258
    Two-Electron Energy =                 546.9553959625708330
    Total Energy =                       -386.0267102892028106
  Basis Set: (AUG-CC-PVTZ AUX)
    Blend: AUG-CC-PVTZ-RI
    Molecular point group: c1

    Geometry (in Angstrom), charge = 0, multiplicity = 1:

       Center              X                  Y                   Z               Mass
    ------------   -----------------  -----------------  -----------------  -----------------
         O            2.691768702717    -1.333923240130    -0.026467217454    15.994914619570
         C            2.749358702717     0.026009759870     0.406944782546    12.000000000000
         C            1.359185702717     0.577044759870     0.395352782546    12.000000000000
         C           -3.550698297283     0.362679759870    -0.410195217454    12.000000000000
         C            3.669409702717     0.841555759870    -0.495891217454    12.000000000000
         C            0.268916702717    -0.101905240130    -0.000695217454    12.000000000000
         C           -2.164679297283    -0.199910240130    -0.409085217454    12.000000000000
         C           -1.065022297283     0.470360759870    -0.017642217454    12.000000000000
         C           -4.471776297283    -0.382959240130     0.558360782546    12.000000000000
         H            3.134622702717     0.069364759870     1.440447782546     1.007825032230
         H            1.264023702717     1.612451759870     0.725271782546     1.007825032230
         H           -3.512847297283     1.425451759870    -0.144311217454     1.007825032230
         H           -3.972840297283     0.305590759870    -1.422038217454     1.007825032230
         H            3.304511702717     0.783320759870    -1.523755217454     1.007825032230
         H            3.697556702717     1.890495759870    -0.187126217454     1.007825032230
         H            4.693328702717     0.453276759870    -0.460850217454     1.007825032230
         H            0.382609702717    -1.134455240130    -0.322953217454     1.007825032230
         H           -2.058817297283    -1.238117240130    -0.730429217454     1.007825032230
         H           -1.166301297283     1.508107759870     0.306469782546     1.007825032230
         H           -4.527015297283    -1.445215240130     0.303302782546     1.007825032230
         H           -5.486812297283     0.023749759870     0.531053782546     1.007825032230
         H           -4.095777297283    -0.302427240130     1.581515782546     1.007825032230
         H            3.788457202717    -1.747367640130     0.000194182546     1.007825032230

  Basis Set: AUG-CC-PVTZ
    Blend: AUG-CC-PVTZ
  Basis Set: (AUG-CC-PVTZ AUX)
    Blend: AUG-CC-PVTZ-JKFIT
	 Reference Energy          =    -386.0267102892028106 [Eh]
	 Singles Energy            =      -0.0000000000000000 [Eh]
	 Same-Spin Energy          =      -0.4025706553354463 [Eh]
	 Opposite-Spin Energy      =      -1.3851576606009672 [Eh]
	 Correlation Energy        =      -1.7877283159364135 [Eh]
	 Total Energy              =    -387.8144386051392303 [Eh]

	 ================> DF-SCS-MP2 Energies <==================
	-----------------------------------------------------------
	 SCS Same-Spin Scale       =       0.3333333333333333 [-]
	 SCS Opposite-Spin Scale   =       1.2000000000000000 [-]
	 SCS Same-Spin Energy      =      -0.1341902184451488 [Eh]
	 SCS Opposite-Spin Energy  =      -1.6621891927211607 [Eh]
	 SCS Correlation Energy    =      -1.7963794111663094 [Eh]
	 SCS Total Energy          =    -387.8230897003691098 [Eh]
	-----------------------------------------------------------

  Dipole Moment: [D]
     X:     1.2937      Y:     0.6597      Z:     0.3108     Total:     1.4851

*** Psi4 exiting successfully. Buy a developer a beer!
