                               Psi4 1.3.2 release

  ==> Input File <==

--------------------------------------------------------------------------
#psi4
#
memory 32 gb

molecule  {
0 1
  O        2.6932640    -1.3344870    -0.0264310
  C        2.7508540     0.0254460     0.4069810
  C        1.3614786     0.5786091     0.4082398
  C       -3.5492030     0.3621160    -0.4101590
  C        3.6709050     0.8409920    -0.4958550
  C        0.2704120    -0.1024690    -0.0006590
  C       -2.1631840    -0.2004740    -0.4090490
  C       -1.0635270     0.4697970    -0.0176060
  C       -4.4702810    -0.3835230     0.5583970
  H        3.1277857     0.0726686     1.4433829
  H        1.2655190     1.6118880     0.7253080
  H       -3.5113520     1.4248880    -0.1442750
  H       -3.9713450     0.3050270    -1.4220020
  H        3.3060070     0.7827570    -1.5237190
  H        3.6990520     1.8899320    -0.1870900
  H        4.6948240     0.4527130    -0.4608140
  H        0.3841050    -1.1350190    -0.3229170
  H       -2.0573220    -1.2386810    -0.7303930
  H       -1.1648060     1.5075440     0.3065060
  H       -4.5255200    -1.4457790     0.3033390
  H       -5.4853170     0.0231860     0.5310900
  H       -4.0942820    -0.3029910     1.5815520
  H        3.6028580    -1.6773980    -0.0043180
units angstrom
no_reorient  #important for SAPT in psi4, default
symmetry c1  #important for SAPT in psi4, default
}

set PROPERTIES_ORIGIN ["COM"]
properties('MP2/aug-cc-pvtz', properties = ['dipole'])
--------------------------------------------------------------------------

    Molecular point group: c1
  Charge       = 0
  Multiplicity = 1
  Basis Set: AUG-CC-PVTZ
    Blend: AUG-CC-PVTZ
  Basis Set: (AUG-CC-PVTZ AUX)
    Blend: AUG-CC-PVTZ-JKFIT

    Orbital Energies [Eh]
    ---------------------

    Doubly Occupied:

       1A    -20.558966     2A    -11.286447     3A    -11.225812
       4A    -11.224048     5A    -11.223210     6A    -11.222959
       7A    -11.222189     8A    -11.220772     9A    -11.212746
      10A     -1.360648    11A     -1.097448    12A     -1.061077
      13A     -1.015974    14A     -0.962038    15A     -0.876875
      16A     -0.828314    17A     -0.752263    18A     -0.748955
      19A     -0.694899    20A     -0.637401    21A     -0.627374
      22A     -0.616773    23A     -0.590132    24A     -0.582724
      25A     -0.546981    26A     -0.543825    27A     -0.527714
      28A     -0.518803    29A     -0.501308    30A     -0.491926
      31A     -0.479017    32A     -0.467925    33A     -0.453139
      34A     -0.417708    35A     -0.296612

  @DF-RHF Final Energy:  -386.06226052105012

   => Energetics <=

    Nuclear Repulsion Energy =            417.9073843871508416
    One-Electron Energy =               -1351.7492876242297370
    Two-Electron Energy =                 547.7796427160287749
    Total Energy =                       -386.0622605210501206
  Basis Set: (AUG-CC-PVTZ AUX)
    Blend: AUG-CC-PVTZ-RI
    Molecular point group: c1

    Geometry (in Angstrom), charge = 0, multiplicity = 1:

       Center              X                  Y                   Z               Mass
    ------------   -----------------  -----------------  -----------------  -----------------
         O            2.693254651854    -1.334720360122    -0.027676906520    15.994914619570
         C            2.750844651854     0.025212639878     0.405735093480    12.000000000000
         C            1.361469251854     0.578375739878     0.406993893480    12.000000000000
         C           -3.549212348146     0.361882639878    -0.411404906520    12.000000000000
         C            3.670895651854     0.840758639878    -0.497100906520    12.000000000000
         C            0.270402651854    -0.102702360122    -0.001904906520    12.000000000000
         C           -2.163193348146    -0.200707360122    -0.410294906520    12.000000000000
         C           -1.063536348146     0.469563639878    -0.018851906520    12.000000000000
         C           -4.470290348146    -0.383756360122     0.557151093480    12.000000000000
         H            3.127776351854     0.072435239878     1.442136993480     1.007825032230
         H            1.265509651854     1.611654639878     0.724062093480     1.007825032230
         H           -3.511361348146     1.424654639878    -0.145520906520     1.007825032230
         H           -3.971354348146     0.304793639878    -1.423247906520     1.007825032230
         H            3.305997651854     0.782523639878    -1.524964906520     1.007825032230
         H            3.699042651854     1.889698639878    -0.188335906520     1.007825032230
         H            4.694814651854     0.452479639878    -0.462059906520     1.007825032230
         H            0.384095651854    -1.135252360122    -0.324162906520     1.007825032230
         H           -2.057331348146    -1.238914360122    -0.731638906520     1.007825032230
         H           -1.164815348146     1.507310639878     0.305260093480     1.007825032230
         H           -4.525529348146    -1.446012360122     0.302093093480     1.007825032230
         H           -5.485326348146     0.022952639878     0.529844093480     1.007825032230
         H           -4.094291348146    -0.303224360122     1.580306093480     1.007825032230
         H            3.602848651854    -1.677631360122    -0.005563906520     1.007825032230

  Basis Set: AUG-CC-PVTZ
    Blend: AUG-CC-PVTZ
  Basis Set: (AUG-CC-PVTZ AUX)
    Blend: AUG-CC-PVTZ-JKFIT
	 Reference Energy          =    -386.0622605210501206 [Eh]
	 Singles Energy            =      -0.0000000000000000 [Eh]
	 Same-Spin Energy          =      -0.4004060342545766 [Eh]
	 Opposite-Spin Energy      =      -1.3784337645254374 [Eh]
	 Correlation Energy        =      -1.7788397987800140 [Eh]
	 Total Energy              =    -387.8411003198301614 [Eh]

	 ================> DF-SCS-MP2 Energies <==================
	-----------------------------------------------------------
	 SCS Same-Spin Scale       =       0.3333333333333333 [-]
	 SCS Opposite-Spin Scale   =       1.2000000000000000 [-]
	 SCS Same-Spin Energy      =      -0.1334686780848588 [Eh]
	 SCS Opposite-Spin Energy  =      -1.6541205174305249 [Eh]
	 SCS Correlation Energy    =      -1.7875891955153838 [Eh]
	 SCS Total Energy          =    -387.8498497165655294 [Eh]
	-----------------------------------------------------------

  Dipole Moment: [D]
     X:     1.2124      Y:     0.7353      Z:     0.2992     Total:     1.4492

*** Psi4 exiting successfully. Buy a developer a beer!
