                               Psi4 1.3.2 release

  ==> Input File <==

--------------------------------------------------------------------------
#psi4
#
memory 32 gb

molecule  {
0 1
  O        2.6932640    -1.3344870    -0.0264310
  C        2.7508540     0.0254460     0.4069810
  C        1.3606810     0.5764810     0.3953890
  C       -3.5492030     0.3621160    -0.4101590
  C        3.6709050     0.8409920    -0.4958550
  C        0.2704120    -0.1024690    -0.0006590
  C       -2.1631840    -0.2004740    -0.4090490
  C       -1.0338227     0.5347591     0.0083397
  C       -4.4702810    -0.3835230     0.5583970
  H        3.1361180     0.0688010     1.4404840
  H        1.2655190     1.6118880     0.7253080
  H       -3.5113520     1.4248880    -0.1442750
  H       -3.9713450     0.3050270    -1.4220020
  H        3.3060070     0.7827570    -1.5237190
  H        3.6990520     1.8899320    -0.1870900
  H        4.6948240     0.4527130    -0.4608140
  H        0.4399577    -1.1304503    -0.3128200
  H       -2.0573220    -1.2386810    -0.7303930
  H       -1.1648060     1.5075440     0.3065060
  H       -4.5255200    -1.4457790     0.3033390
  H       -5.4853170     0.0231860     0.5310900
  H       -4.0942820    -0.3029910     1.5815520
  H        3.6028580    -1.6773980    -0.0043180
units angstrom
no_reorient  #important for SAPT in psi4, default
symmetry c1  #important for SAPT in psi4, default
}

set PROPERTIES_ORIGIN ["COM"]
properties('MP2/aug-cc-pvtz', properties = ['dipole'])
--------------------------------------------------------------------------

    Molecular point group: c1
  Charge       = 0
  Multiplicity = 1
  Basis Set: AUG-CC-PVTZ
    Blend: AUG-CC-PVTZ
  Basis Set: (AUG-CC-PVTZ AUX)
    Blend: AUG-CC-PVTZ-JKFIT

    Orbital Energies [Eh]
    ---------------------

    Doubly Occupied:

       1A    -20.558983     2A    -11.285369     3A    -11.234967
       4A    -11.227434     5A    -11.222967     6A    -11.222275
       7A    -11.219990     8A    -11.219157     9A    -11.212677
      10A     -1.360896    11A     -1.093901    12A     -1.059597
      13A     -1.015397    14A     -0.956418    15A     -0.876307
      16A     -0.826520    17A     -0.761954    18A     -0.745937
      19A     -0.695992    20A     -0.636714    21A     -0.626158
      22A     -0.616942    23A     -0.592681    24A     -0.579470
      25A     -0.546396    26A     -0.544442    27A     -0.531715
      28A     -0.515597    29A     -0.503667    30A     -0.494441
      31A     -0.480390    32A     -0.467085    33A     -0.452698
      34A     -0.413902    35A     -0.287413

  @DF-RHF Final Energy:  -386.05082500426755

   => Energetics <=

    Nuclear Repulsion Energy =            417.5093754588168053
    One-Electron Energy =               -1350.9475038420766850
    Two-Electron Energy =                 547.3873033789924420
    Total Energy =                       -386.0508250042674945
  Basis Set: (AUG-CC-PVTZ AUX)
    Blend: AUG-CC-PVTZ-RI
    Molecular point group: c1

    Geometry (in Angstrom), charge = 0, multiplicity = 1:

       Center              X                  Y                   Z               Mass
    ------------   -----------------  -----------------  -----------------  -----------------
         O            2.689990947833    -1.340705196469    -0.028980533836    15.994914619570
         C            2.747580947833     0.019227803531     0.404431466164    12.000000000000
         C            1.357407947833     0.570262803531     0.392839466164    12.000000000000
         C           -3.552476052167     0.355897803531    -0.412708533836    12.000000000000
         C            3.667631947833     0.834773803531    -0.498404533836    12.000000000000
         C            0.267138947833    -0.108687196469    -0.003208533836    12.000000000000
         C           -2.166457052167    -0.206692196469    -0.411598533836    12.000000000000
         C           -1.037095752167     0.528540903531     0.005790166164    12.000000000000
         C           -4.473554052167    -0.389741196469     0.555847466164    12.000000000000
         H            3.132844947833     0.062582803531     1.437934466164     1.007825032230
         H            1.262245947833     1.605669803531     0.722758466164     1.007825032230
         H           -3.514625052167     1.418669803531    -0.146824533836     1.007825032230
         H           -3.974618052167     0.298808803531    -1.424551533836     1.007825032230
         H            3.302733947833     0.776538803531    -1.526268533836     1.007825032230
         H            3.695778947833     1.883713803531    -0.189639533836     1.007825032230
         H            4.691550947833     0.446494803531    -0.463363533836     1.007825032230
         H            0.436684647833    -1.136668496469    -0.315369533836     1.007825032230
         H           -2.060595052167    -1.244899196469    -0.732942533836     1.007825032230
         H           -1.168079052167     1.501325803531     0.303956466164     1.007825032230
         H           -4.528793052167    -1.451997196469     0.300789466164     1.007825032230
         H           -5.488590052167     0.016967803531     0.528540466164     1.007825032230
         H           -4.097555052167    -0.309209196469     1.579002466164     1.007825032230
         H            3.599584947833    -1.683616196469    -0.006867533836     1.007825032230

  Basis Set: AUG-CC-PVTZ
    Blend: AUG-CC-PVTZ
  Basis Set: (AUG-CC-PVTZ AUX)
    Blend: AUG-CC-PVTZ-JKFIT
	 Reference Energy          =    -386.0508250042675513 [Eh]
	 Singles Energy            =      -0.0000000000000000 [Eh]
	 Same-Spin Energy          =      -0.4012739958918949 [Eh]
	 Opposite-Spin Energy      =      -1.3803529226881681 [Eh]
	 Correlation Energy        =      -1.7816269185800631 [Eh]
	 Total Energy              =    -387.8324519228476106 [Eh]

	 ================> DF-SCS-MP2 Energies <==================
	-----------------------------------------------------------
	 SCS Same-Spin Scale       =       0.3333333333333333 [-]
	 SCS Opposite-Spin Scale   =       1.2000000000000000 [-]
	 SCS Same-Spin Energy      =      -0.1337579986306316 [Eh]
	 SCS Opposite-Spin Energy  =      -1.6564235072258018 [Eh]
	 SCS Correlation Energy    =      -1.7901815058564334 [Eh]
	 SCS Total Energy          =    -387.8410065101239752 [Eh]
	-----------------------------------------------------------

  Dipole Moment: [D]
     X:     1.2135      Y:     0.7431      Z:     0.3154     Total:     1.4575

*** Psi4 exiting successfully. Buy a developer a beer!
