                               Psi4 1.3.2 release

  ==> Input File <==

--------------------------------------------------------------------------
#psi4
#
memory 32 gb

molecule  {
0 1
  O        2.6932640    -1.3344870    -0.0264310
  C        2.7508540     0.0254460     0.4069810
  C        1.3645000     0.5857863     0.3870743
  C       -3.5492030     0.3621160    -0.4101590
  C        3.6607008     0.8489548    -0.4989627
  C        0.2704120    -0.1024690    -0.0006590
  C       -2.1631840    -0.2004740    -0.4090490
  C       -1.0635270     0.4697970    -0.0176060
  C       -4.4702810    -0.3835230     0.5583970
  H        3.1361180     0.0688010     1.4404840
  H        1.2655190     1.6118880     0.7253080
  H       -3.5113520     1.4248880    -0.1442750
  H       -3.9713450     0.3050270    -1.4220020
  H        3.3060070     0.7827570    -1.5237190
  H        3.6990520     1.8899320    -0.1870900
  H        4.6948240     0.4527130    -0.4608140
  H        0.3841050    -1.1350190    -0.3229170
  H       -2.0573220    -1.2386810    -0.7303930
  H       -1.1648060     1.5075440     0.3065060
  H       -4.5255200    -1.4457790     0.3033390
  H       -5.4853170     0.0231860     0.5310900
  H       -4.0942820    -0.3029910     1.5815520
  H        3.6028580    -1.6773980    -0.0043180
units angstrom
no_reorient  #important for SAPT in psi4, default
symmetry c1  #important for SAPT in psi4, default
}

set PROPERTIES_ORIGIN ["COM"]
properties('MP2/aug-cc-pvtz', properties = ['dipole'])
--------------------------------------------------------------------------

    Molecular point group: c1
  Charge       = 0
  Multiplicity = 1
  Basis Set: AUG-CC-PVTZ
    Blend: AUG-CC-PVTZ
  Basis Set: (AUG-CC-PVTZ AUX)
    Blend: AUG-CC-PVTZ-JKFIT

    Orbital Energies [Eh]
    ---------------------

    Doubly Occupied:

       1A    -20.559136     2A    -11.286518     3A    -11.225786
       4A    -11.223976     5A    -11.223196     6A    -11.222931
       7A    -11.222103     8A    -11.220409     9A    -11.212746
      10A     -1.360742    11A     -1.097502    12A     -1.061337
      13A     -1.016152    14A     -0.961756    15A     -0.876292
      16A     -0.828126    17A     -0.752500    18A     -0.749072
      19A     -0.695494    20A     -0.637300    21A     -0.627292
      22A     -0.617330    23A     -0.589611    24A     -0.582755
      25A     -0.547058    26A     -0.543917    27A     -0.527590
      28A     -0.518860    29A     -0.501293    30A     -0.491869
      31A     -0.478980    32A     -0.467403    33A     -0.453528
      34A     -0.417783    35A     -0.296592

  @DF-RHF Final Energy:  -386.06202625009155

   => Energetics <=

    Nuclear Repulsion Energy =            417.9828501847840698
    One-Electron Energy =               -1351.8998839239479821
    Two-Electron Energy =                 547.8550074890723636
    Total Energy =                       -386.0620262500915487
  Basis Set: (AUG-CC-PVTZ AUX)
    Blend: AUG-CC-PVTZ-RI
    Molecular point group: c1

    Geometry (in Angstrom), charge = 0, multiplicity = 1:

       Center              X                  Y                   Z               Mass
    ------------   -----------------  -----------------  -----------------  -----------------
         O            2.693871569736    -1.336130160606    -0.025343920263    15.994914619570
         C            2.751461569736     0.023802839394     0.408068079737    12.000000000000
         C            1.365107569736     0.584143139394     0.388161379737    12.000000000000
         C           -3.548595430264     0.360472839394    -0.409071920263    12.000000000000
         C            3.661308369736     0.847311639394    -0.497875620263    12.000000000000
         C            0.271019569736    -0.104112160606     0.000428079737    12.000000000000
         C           -2.162576430264    -0.202117160606    -0.407961920263    12.000000000000
         C           -1.062919430264     0.468153839394    -0.016518920263    12.000000000000
         C           -4.469673430264    -0.385166160606     0.559484079737    12.000000000000
         H            3.136725569736     0.067157839394     1.441571079737     1.007825032230
         H            1.266126569736     1.610244839394     0.726395079737     1.007825032230
         H           -3.510744430264     1.423244839394    -0.143187920263     1.007825032230
         H           -3.970737430264     0.303383839394    -1.420914920263     1.007825032230
         H            3.306614569736     0.781113839394    -1.522631920263     1.007825032230
         H            3.699659569736     1.888288839394    -0.186002920263     1.007825032230
         H            4.695431569736     0.451069839394    -0.459726920263     1.007825032230
         H            0.384712569736    -1.136662160606    -0.321829920263     1.007825032230
         H           -2.056714430264    -1.240324160606    -0.729305920263     1.007825032230
         H           -1.164198430264     1.505900839394     0.307593079737     1.007825032230
         H           -4.524912430264    -1.447422160606     0.304426079737     1.007825032230
         H           -5.484709430264     0.021542839394     0.532177079737     1.007825032230
         H           -4.093674430264    -0.304634160606     1.582639079737     1.007825032230
         H            3.603465569736    -1.679041160606    -0.003230920263     1.007825032230

  Basis Set: AUG-CC-PVTZ
    Blend: AUG-CC-PVTZ
  Basis Set: (AUG-CC-PVTZ AUX)
    Blend: AUG-CC-PVTZ-JKFIT
	 Reference Energy          =    -386.0620262500915487 [Eh]
	 Singles Energy            =      -0.0000000000000000 [Eh]
	 Same-Spin Energy          =      -0.4004352211667965 [Eh]
	 Opposite-Spin Energy      =      -1.3785007241599323 [Eh]
	 Correlation Energy        =      -1.7789359453267288 [Eh]
	 Total Energy              =    -387.8409621954182853 [Eh]

	 ================> DF-SCS-MP2 Energies <==================
	-----------------------------------------------------------
	 SCS Same-Spin Scale       =       0.3333333333333333 [-]
	 SCS Opposite-Spin Scale   =       1.2000000000000000 [-]
	 SCS Same-Spin Energy      =      -0.1334784070555988 [Eh]
	 SCS Opposite-Spin Energy  =      -1.6542008689919188 [Eh]
	 SCS Correlation Energy    =      -1.7876792760475175 [Eh]
	 SCS Total Energy          =    -387.8497055261390756 [Eh]
	-----------------------------------------------------------

  Dipole Moment: [D]
     X:     1.2024      Y:     0.7306      Z:     0.3230     Total:     1.4435

*** Psi4 exiting successfully. Buy a developer a beer!
