                               Psi4 1.3.2 release

  ==> Input File <==

--------------------------------------------------------------------------
#psi4
#
memory 32 gb

molecule  {
0 1
  O        2.6932640    -1.3344870    -0.0264310
  C        2.7508540     0.0254460     0.4069810
  C        1.3606810     0.5764810     0.3953890
  C       -3.5492030     0.3621160    -0.4101590
  C        3.6709050     0.8409920    -0.4958550
  C        0.2704120    -0.1024690    -0.0006590
  C       -2.1631840    -0.2004740    -0.4090490
  C       -1.0635270     0.4697970    -0.0176060
  C       -4.4702810    -0.3835230     0.5583970
  H        3.1361180     0.0688010     1.4404840
  H        1.2655190     1.6118880     0.7253080
  H       -3.5113520     1.4248880    -0.1442750
  H       -3.9713450     0.3050270    -1.4220020
  H        3.3060070     0.7827570    -1.5237190
  H        3.6990520     1.8899320    -0.1870900
  H        4.6948240     0.4527130    -0.4608140
  H        0.3841050    -1.1350190    -0.3229170
  H       -2.0767116    -1.0485235    -0.6715358
  H       -1.1648060     1.5075440     0.3065060
  H       -4.5255200    -1.4457790     0.3033390
  H       -5.4853170     0.0231860     0.5310900
  H       -4.0942820    -0.3029910     1.5815520
  H        3.6028580    -1.6773980    -0.0043180
units angstrom
no_reorient  #important for SAPT in psi4, default
symmetry c1  #important for SAPT in psi4, default
}

set PROPERTIES_ORIGIN ["COM"]
properties('MP2/aug-cc-pvtz', properties = ['dipole'])
--------------------------------------------------------------------------

    Molecular point group: c1
  Charge       = 0
  Multiplicity = 1
  Basis Set: AUG-CC-PVTZ
    Blend: AUG-CC-PVTZ
  Basis Set: (AUG-CC-PVTZ AUX)
    Blend: AUG-CC-PVTZ-JKFIT

    Orbital Energies [Eh]
    ---------------------

    Doubly Occupied:

       1A    -20.558802     2A    -11.286542     3A    -11.223594
       4A    -11.222325     5A    -11.221660     6A    -11.221050
       7A    -11.220617     8A    -11.212483     9A    -11.200831
      10A     -1.360700    11A     -1.102389    12A     -1.063389
      13A     -1.015838    14A     -0.966131    15A     -0.879456
      16A     -0.828359    17A     -0.784381    18A     -0.748137
      19A     -0.697884    20A     -0.641284    21A     -0.629178
      22A     -0.617129    23A     -0.591560    24A     -0.583665
      25A     -0.553414    26A     -0.545791    27A     -0.530753
      28A     -0.517770    29A     -0.500294    30A     -0.492660
      31A     -0.483243    32A     -0.468384    33A     -0.453021
      34A     -0.417840    35A     -0.296972

  @DF-RHF Final Energy:  -386.02866523051841

   => Energetics <=

    Nuclear Repulsion Energy =            419.0238453949517066
    One-Electron Energy =               -1353.8299653972360375
    Two-Electron Energy =                 548.7774547717659743
    Total Energy =                       -386.0286652305184134
  Basis Set: (AUG-CC-PVTZ AUX)
    Blend: AUG-CC-PVTZ-RI
    Molecular point group: c1

    Geometry (in Angstrom), charge = 0, multiplicity = 1:

       Center              X                  Y                   Z               Mass
    ------------   -----------------  -----------------  -----------------  -----------------
         O            2.693418920611    -1.336006677972    -0.026901252585    15.994914619570
         C            2.751008920611     0.023926322028     0.406510747415    12.000000000000
         C            1.360835920611     0.574961322028     0.394918747415    12.000000000000
         C           -3.549048079389     0.360596322028    -0.410629252585    12.000000000000
         C            3.671059920611     0.839472322028    -0.496325252585    12.000000000000
         C            0.270566920611    -0.103988677972    -0.001129252585    12.000000000000
         C           -2.163029079389    -0.201993677972    -0.409519252585    12.000000000000
         C           -1.063372079389     0.468277322028    -0.018076252585    12.000000000000
         C           -4.470126079389    -0.385042677972     0.557926747415    12.000000000000
         H            3.136272920611     0.067281322028     1.440013747415     1.007825032230
         H            1.265673920611     1.610368322028     0.724837747415     1.007825032230
         H           -3.511197079389     1.423368322028    -0.144745252585     1.007825032230
         H           -3.971190079389     0.303507322028    -1.422472252585     1.007825032230
         H            3.306161920611     0.781237322028    -1.524189252585     1.007825032230
         H            3.699206920611     1.888412322028    -0.187560252585     1.007825032230
         H            4.694978920611     0.451193322028    -0.461284252585     1.007825032230
         H            0.384259920611    -1.136538677972    -0.323387252585     1.007825032230
         H           -2.076556679389    -1.050043177972    -0.672006052585     1.007825032230
         H           -1.164651079389     1.506024322028     0.306035747415     1.007825032230
         H           -4.525365079389    -1.447298677972     0.302868747415     1.007825032230
         H           -5.485162079389     0.021666322028     0.530619747415     1.007825032230
         H           -4.094127079389    -0.304510677972     1.581081747415     1.007825032230
         H            3.603012920611    -1.678917677972    -0.004788252585     1.007825032230

  Basis Set: AUG-CC-PVTZ
    Blend: AUG-CC-PVTZ
  Basis Set: (AUG-CC-PVTZ AUX)
    Blend: AUG-CC-PVTZ-JKFIT
	 Reference Energy          =    -386.0286652305184134 [Eh]
	 Singles Energy            =      -0.0000000000000000 [Eh]
	 Same-Spin Energy          =      -0.4001335905161015 [Eh]
	 Opposite-Spin Energy      =      -1.3776883838204326 [Eh]
	 Correlation Energy        =      -1.7778219743365340 [Eh]
	 Total Energy              =    -387.8064872048549319 [Eh]

	 ================> DF-SCS-MP2 Energies <==================
	-----------------------------------------------------------
	 SCS Same-Spin Scale       =       0.3333333333333333 [-]
	 SCS Opposite-Spin Scale   =       1.2000000000000000 [-]
	 SCS Same-Spin Energy      =      -0.1333778635053672 [Eh]
	 SCS Opposite-Spin Energy  =      -1.6532260605845190 [Eh]
	 SCS Correlation Energy    =      -1.7866039240898861 [Eh]
	 SCS Total Energy          =    -387.8152691546083020 [Eh]
	-----------------------------------------------------------

  Dipole Moment: [D]
     X:     1.2453      Y:     0.6647      Z:     0.2921     Total:     1.4415

*** Psi4 exiting successfully. Buy a developer a beer!
