                               Psi4 1.3.2 release

  ==> Input File <==

--------------------------------------------------------------------------
#psi4
#
memory 32 gb

molecule  {
0 1
  O        2.6932640    -1.3344870    -0.0264310
  C        2.7508540     0.0254460     0.4069810
  C        1.3606810     0.5764810     0.3953890
  C       -3.5492030     0.3621160    -0.4101590
  C        3.6709050     0.8409920    -0.4958550
  C        0.2964788    -0.0358983     0.0251182
  C       -2.1631840    -0.2004740    -0.4090490
  C       -1.0635270     0.4697970    -0.0176060
  C       -4.4702810    -0.3835230     0.5583970
  H        3.1361180     0.0688010     1.4404840
  H        1.2655190     1.6118880     0.7253080
  H       -3.5113520     1.4248880    -0.1442750
  H       -3.9713450     0.3050270    -1.4220020
  H        3.3060070     0.7827570    -1.5237190
  H        3.6990520     1.8899320    -0.1870900
  H        4.6948240     0.4527130    -0.4608140
  H        0.3841050    -1.1350190    -0.3229170
  H       -2.0573220    -1.2386810    -0.7303930
  H       -1.1083666     1.5086644     0.3155137
  H       -4.5255200    -1.4457790     0.3033390
  H       -5.4853170     0.0231860     0.5310900
  H       -4.0942820    -0.3029910     1.5815520
  H        3.6028580    -1.6773980    -0.0043180
units angstrom
no_reorient  #important for SAPT in psi4, default
symmetry c1  #important for SAPT in psi4, default
}

set PROPERTIES_ORIGIN ["COM"]
properties('MP2/aug-cc-pvtz', properties = ['dipole'])
--------------------------------------------------------------------------

    Molecular point group: c1
  Charge       = 0
  Multiplicity = 1
  Basis Set: AUG-CC-PVTZ
    Blend: AUG-CC-PVTZ
  Basis Set: (AUG-CC-PVTZ AUX)
    Blend: AUG-CC-PVTZ-JKFIT

    Orbital Energies [Eh]
    ---------------------

    Doubly Occupied:

       1A    -20.558403     2A    -11.287423     3A    -11.228740
       4A    -11.224148     5A    -11.224005     6A    -11.220944
       7A    -11.218199     8A    -11.213885     9A    -11.213268
      10A     -1.360409    11A     -1.102105    12A     -1.066004
      13A     -1.016688    14A     -0.967949    15A     -0.876951
      16A     -0.831778    17A     -0.757156    18A     -0.738481
      19A     -0.693686    20A     -0.637579    21A     -0.632132
      22A     -0.617461    23A     -0.592546    24A     -0.583099
      25A     -0.545977    26A     -0.543947    27A     -0.528578
      28A     -0.519146    29A     -0.495231    30A     -0.489582
      31A     -0.479838    32A     -0.456698    33A     -0.454492
      34A     -0.423224    35A     -0.307004

  @DF-RHF Final Energy:  -386.05547711309833

   => Energetics <=

    Nuclear Repulsion Energy =            418.5741676945275458
    One-Electron Energy =               -1353.0457777266706216
    Two-Electron Energy =                 548.4161329190447987
    Total Energy =                       -386.0554771130982772
  Basis Set: (AUG-CC-PVTZ AUX)
    Blend: AUG-CC-PVTZ-RI
    Molecular point group: c1

    Geometry (in Angstrom), charge = 0, multiplicity = 1:

       Center              X                  Y                   Z               Mass
    ------------   -----------------  -----------------  -----------------  -----------------
         O            2.690332400525    -1.340830710795    -0.028955793842    15.994914619570
         C            2.747922400525     0.019102289205     0.404456206158    12.000000000000
         C            1.357749400525     0.570137289205     0.392864206158    12.000000000000
         C           -3.552134599475     0.355772289205    -0.412683793842    12.000000000000
         C            3.667973400525     0.834648289205    -0.498379793842    12.000000000000
         C            0.293547200525    -0.042242010795     0.022593406158    12.000000000000
         C           -2.166115599475    -0.206817710795    -0.411573793842    12.000000000000
         C           -1.066458599475     0.463453289205    -0.020130793842    12.000000000000
         C           -4.473212599475    -0.389866710795     0.555872206158    12.000000000000
         H            3.133186400525     0.062457289205     1.437959206158     1.007825032230
         H            1.262587400525     1.605544289205     0.722783206158     1.007825032230
         H           -3.514283599475     1.418544289205    -0.146799793842     1.007825032230
         H           -3.974276599475     0.298683289205    -1.424526793842     1.007825032230
         H            3.303075400525     0.776413289205    -1.526243793842     1.007825032230
         H            3.696120400525     1.883588289205    -0.189614793842     1.007825032230
         H            4.691892400525     0.446369289205    -0.463338793842     1.007825032230
         H            0.381173400525    -1.141362710795    -0.325441793842     1.007825032230
         H           -2.060253599475    -1.245024710795    -0.732917793842     1.007825032230
         H           -1.111298199475     1.502320689205     0.312988906158     1.007825032230
         H           -4.528451599475    -1.452122710795     0.300814206158     1.007825032230
         H           -5.488248599475     0.016842289205     0.528565206158     1.007825032230
         H           -4.097213599475    -0.309334710795     1.579027206158     1.007825032230
         H            3.599926400525    -1.683741710795    -0.006842793842     1.007825032230

  Basis Set: AUG-CC-PVTZ
    Blend: AUG-CC-PVTZ
  Basis Set: (AUG-CC-PVTZ AUX)
    Blend: AUG-CC-PVTZ-JKFIT
	 Reference Energy          =    -386.0554771130983340 [Eh]
	 Singles Energy            =      -0.0000000000000000 [Eh]
	 Same-Spin Energy          =      -0.4000087085955846 [Eh]
	 Opposite-Spin Energy      =      -1.3774055316907980 [Eh]
	 Correlation Energy        =      -1.7774142402863826 [Eh]
	 Total Energy              =    -387.8328913533846958 [Eh]

	 ================> DF-SCS-MP2 Energies <==================
	-----------------------------------------------------------
	 SCS Same-Spin Scale       =       0.3333333333333333 [-]
	 SCS Opposite-Spin Scale   =       1.2000000000000000 [-]
	 SCS Same-Spin Energy      =      -0.1333362361985282 [Eh]
	 SCS Opposite-Spin Energy  =      -1.6528866380289575 [Eh]
	 SCS Correlation Energy    =      -1.7862228742274857 [Eh]
	 SCS Total Energy          =    -387.8416999873257964 [Eh]
	-----------------------------------------------------------

  Dipole Moment: [D]
     X:     1.1910      Y:     0.7390      Z:     0.3111     Total:     1.4358

*** Psi4 exiting successfully. Buy a developer a beer!
