                               Psi4 1.3.2 release

  ==> Input File <==

--------------------------------------------------------------------------
#psi4
#
memory 32 gb

molecule  {
0 1
  O        2.6932640    -1.3344870    -0.0264310
  C        2.7508540     0.0254460     0.4069810
  C        1.3606810     0.5764810     0.3953890
  C       -3.5492030     0.3621160    -0.4101590
  C        3.6709050     0.8409920    -0.4958550
  C        0.2704120    -0.1024690    -0.0006590
  C       -2.1631840    -0.2004740    -0.4090490
  C       -0.9716332     0.4303741    -0.0164385
  C       -4.4702810    -0.3835230     0.5583970
  H        3.1361180     0.0688010     1.4404840
  H        1.2655190     1.6118880     0.7253080
  H       -3.5113520     1.4248880    -0.1442750
  H       -3.9713450     0.3050270    -1.4220020
  H        3.3060070     0.7827570    -1.5237190
  H        3.6990520     1.8899320    -0.1870900
  H        4.6948240     0.4527130    -0.4608140
  H        0.3841050    -1.1350190    -0.3229170
  H       -2.0573220    -1.2386810    -0.7303930
  H       -1.1648060     1.5075440     0.3065060
  H       -4.5255200    -1.4457790     0.3033390
  H       -5.4853170     0.0231860     0.5310900
  H       -4.0942820    -0.3029910     1.5815520
  H        3.6028580    -1.6773980    -0.0043180
units angstrom
no_reorient  #important for SAPT in psi4, default
symmetry c1  #important for SAPT in psi4, default
}

set PROPERTIES_ORIGIN ["COM"]
properties('MP2/aug-cc-pvtz', properties = ['dipole'])
--------------------------------------------------------------------------

    Molecular point group: c1
  Charge       = 0
  Multiplicity = 1
  Basis Set: AUG-CC-PVTZ
    Blend: AUG-CC-PVTZ
  Basis Set: (AUG-CC-PVTZ AUX)
    Blend: AUG-CC-PVTZ-JKFIT

    Orbital Energies [Eh]
    ---------------------

    Doubly Occupied:

       1A    -20.559339     2A    -11.287099     3A    -11.234105
       4A    -11.227599     5A    -11.226303     6A    -11.224707
       7A    -11.221154     8A    -11.215711     9A    -11.213891
      10A     -1.361283    11A     -1.104879    12A     -1.060653
      13A     -1.022909    14A     -0.956653    15A     -0.884116
      16A     -0.827337    17A     -0.757430    18A     -0.745306
      19A     -0.695252    20A     -0.638999    21A     -0.632378
      22A     -0.616956    23A     -0.590412    24A     -0.584117
      25A     -0.547233    26A     -0.544347    27A     -0.523189
      28A     -0.518039    29A     -0.498678    30A     -0.489736
      31A     -0.479221    32A     -0.470840    33A     -0.455163
      34A     -0.427274    35A     -0.282157

  @DF-RHF Final Energy:  -386.04366706899611

   => Energetics <=

    Nuclear Repulsion Energy =            418.5459879561634580
    One-Electron Energy =               -1352.9303810855401480
    Two-Electron Energy =                 548.3407260603805753
    Total Energy =                       -386.0436670689961147
  Basis Set: (AUG-CC-PVTZ AUX)
    Blend: AUG-CC-PVTZ-RI
    Molecular point group: c1

    Geometry (in Angstrom), charge = 0, multiplicity = 1:

       Center              X                  Y                   Z               Mass
    ------------   -----------------  -----------------  -----------------  -----------------
         O            2.684519418729    -1.330735490404    -0.026541965074    15.994914619570
         C            2.742109418729     0.029197509596     0.406870034926    12.000000000000
         C            1.351936418729     0.580232509596     0.395278034926    12.000000000000
         C           -3.557947581271     0.365867509596    -0.410269965074    12.000000000000
         C            3.662160418729     0.844743509596    -0.495965965074    12.000000000000
         C            0.261667418729    -0.098717490404    -0.000769965074    12.000000000000
         C           -2.171928581271    -0.196722490404    -0.409159965074    12.000000000000
         C           -0.980377781271     0.434125609596    -0.016549465074    12.000000000000
         C           -4.479025581271    -0.379771490404     0.558286034926    12.000000000000
         H            3.127373418729     0.072552509596     1.440373034926     1.007825032230
         H            1.256774418729     1.615639509596     0.725197034926     1.007825032230
         H           -3.520096581271     1.428639509596    -0.144385965074     1.007825032230
         H           -3.980089581271     0.308778509596    -1.422112965074     1.007825032230
         H            3.297262418729     0.786508509596    -1.523829965074     1.007825032230
         H            3.690307418729     1.893683509596    -0.187200965074     1.007825032230
         H            4.686079418729     0.456464509596    -0.460924965074     1.007825032230
         H            0.375360418729    -1.131267490404    -0.323027965074     1.007825032230
         H           -2.066066581271    -1.234929490404    -0.730503965074     1.007825032230
         H           -1.173550581271     1.511295509596     0.306395034926     1.007825032230
         H           -4.534264581271    -1.442027490404     0.303228034926     1.007825032230
         H           -5.494061581271     0.026937509596     0.530979034926     1.007825032230
         H           -4.103026581271    -0.299239490404     1.581441034926     1.007825032230
         H            3.594113418729    -1.673646490404    -0.004428965074     1.007825032230

  Basis Set: AUG-CC-PVTZ
    Blend: AUG-CC-PVTZ
  Basis Set: (AUG-CC-PVTZ AUX)
    Blend: AUG-CC-PVTZ-JKFIT
	 Reference Energy          =    -386.0436670689961147 [Eh]
	 Singles Energy            =      -0.0000000000000000 [Eh]
	 Same-Spin Energy          =      -0.4030446850287570 [Eh]
	 Opposite-Spin Energy      =      -1.3822124385415531 [Eh]
	 Correlation Energy        =      -1.7852571235703101 [Eh]
	 Total Energy              =    -387.8289241925664328 [Eh]

	 ================> DF-SCS-MP2 Energies <==================
	-----------------------------------------------------------
	 SCS Same-Spin Scale       =       0.3333333333333333 [-]
	 SCS Opposite-Spin Scale   =       1.2000000000000000 [-]
	 SCS Same-Spin Energy      =      -0.1343482283429190 [Eh]
	 SCS Opposite-Spin Energy  =      -1.6586549262498635 [Eh]
	 SCS Correlation Energy    =      -1.7930031545927825 [Eh]
	 SCS Total Energy          =    -387.8366702235888965 [Eh]
	-----------------------------------------------------------

  Dipole Moment: [D]
     X:     1.2463      Y:     0.7136      Z:     0.3180     Total:     1.4709

*** Psi4 exiting successfully. Buy a developer a beer!
