                               Psi4 1.4a3.dev225

  ==> Input File <==

--------------------------------------------------------------------------
#psi4
#
memory 32 gb

molecule  {
0 1
  O       -2.7161510     1.3794200    -0.1343610
  C       -2.7832390     0.0721360     0.4401970
  C       -1.4164051    -0.4878814     0.4738623
  C        3.5083460    -0.4405980    -0.4123350
  C       -3.7239960    -0.8239440    -0.3625680
  C       -0.3030690     0.1219220    -0.0067100
  C        2.1282810     0.1394430    -0.4544070
  C        1.0245920    -0.4684390     0.0236420
  C        4.4606410     0.4027870     0.4416180
  H       -3.1581590     0.1412460     1.4762970
  H       -1.3112260    -1.4900120     0.9147240
  H        3.4619600    -1.4629760    -0.0187660
  H        3.9104550    -0.5133060    -1.4317100
  H       -3.3684670    -0.8811940    -1.3941910
  H       -3.7626400    -1.8335820     0.0574350
  H       -4.7426360    -0.4191700    -0.3608330
  H       -0.4078810     1.1149080    -0.4388390
  H        2.0311270     1.1370710    -0.8883280
  H        1.1170930    -1.4649260     0.4609700
  H        4.5263310     1.4251690     0.0574090
  H        5.4690900    -0.0219830     0.4454750
  H        4.1044230     0.4539160     1.4740500
  H       -3.6221830     1.7324190    -0.1413340
units angstrom
no_reorient  #important for SAPT in psi4, default
symmetry c1  #important for SAPT in psi4, default
}

set PROPERTIES_ORIGIN ["COM"]
properties('MP2/aug-cc-pvtz', properties = ['dipole'])
--------------------------------------------------------------------------

    Molecular point group: c1
  Charge       = 0
  Multiplicity = 1
  Basis Set: AUG-CC-PVTZ
    Blend: AUG-CC-PVTZ
  Basis Set: (AUG-CC-PVTZ AUX)
    Blend: AUG-CC-PVTZ-JKFIT

    Orbital Energies [Eh]
    ---------------------

    Doubly Occupied:

       1A    -20.558927     2A    -11.286292     3A    -11.226955
       4A    -11.225575     5A    -11.224361     6A    -11.223905
       7A    -11.223755     8A    -11.221173     9A    -11.213280
      10A     -1.360668    11A     -1.096661    12A     -1.061717
      13A     -1.016132    14A     -0.961426    15A     -0.878142
      16A     -0.828819    17A     -0.752594    18A     -0.746597
      19A     -0.695790    20A     -0.637093    21A     -0.627288
      22A     -0.616986    23A     -0.590084    24A     -0.582084
      25A     -0.546314    26A     -0.542690    27A     -0.528256
      28A     -0.518181    29A     -0.500259    30A     -0.492585
      31A     -0.479744    32A     -0.470138    33A     -0.453395
      34A     -0.416570    35A     -0.295703

  @DF-RHF Final Energy:  -386.06104112428932

   => Energetics <=

    Nuclear Repulsion Energy =            417.5657137277603397
    One-Electron Energy =               -1351.0532300880761341
    Two-Electron Energy =                 547.4264752360264765
    Total Energy =                       -386.0610411242893178
  Basis Set: (AUG-CC-PVTZ AUX)
    Blend: AUG-CC-PVTZ-RI
    Molecular point group: c1

    Geometry (in Angstrom), charge = 0, multiplicity = 1:

       Center              X                  Y                   Z               Mass
    ------------   -----------------  -----------------  -----------------  -----------------
         O           -2.681082690732     1.362369871603    -0.132652254738    15.994914619570
         C           -2.748170690732     0.055085871603     0.441905745262    12.000000000000
         C           -1.381336790732    -0.504931528397     0.475571045262    12.000000000000
         C            3.543414309268    -0.457648128397    -0.410626254738    12.000000000000
         C           -3.688927690732    -0.840994128397    -0.360859254738    12.000000000000
         C           -0.268000690732     0.104871871603    -0.005001254738    12.000000000000
         C            2.163349309268     0.122392871603    -0.452698254738    12.000000000000
         C            1.059660309268    -0.485489128397     0.025350745262    12.000000000000
         C            4.495709309268     0.385736871603     0.443326745262    12.000000000000
         H           -3.123090690732     0.124195871603     1.478005745262     1.007825032230
         H           -1.276157690732    -1.507062128397     0.916432745262     1.007825032230
         H            3.497028309268    -1.480026128397    -0.017057254738     1.007825032230
         H            3.945523309268    -0.530356128397    -1.430001254738     1.007825032230
         H           -3.333398690732    -0.898244128397    -1.392482254738     1.007825032230
         H           -3.727571690732    -1.850632128397     0.059143745262     1.007825032230
         H           -4.707567690732    -0.436220128397    -0.359124254738     1.007825032230
         H           -0.372812690732     1.097857871603    -0.437130254738     1.007825032230
         H            2.066195309268     1.120020871603    -0.886619254738     1.007825032230
         H            1.152161309268    -1.481976128397     0.462678745262     1.007825032230
         H            4.561399309268     1.408118871603     0.059117745262     1.007825032230
         H            5.504158309268    -0.039033128397     0.447183745262     1.007825032230
         H            4.139491309268     0.436865871603     1.475758745262     1.007825032230
         H           -3.587114690732     1.715368871603    -0.139625254738     1.007825032230

  Basis Set: AUG-CC-PVTZ
    Blend: AUG-CC-PVTZ
  Basis Set: (AUG-CC-PVTZ AUX)
    Blend: AUG-CC-PVTZ-JKFIT
	 Reference Energy          =    -386.0610411242893178 [Eh]
	 Singles Energy            =      -0.0000000000000000 [Eh]
	 Same-Spin Energy          =      -0.4006188956862864 [Eh]
	 Opposite-Spin Energy      =      -1.3789224423771129 [Eh]
	 Correlation Energy        =      -1.7795413380633993 [Eh]
	 Total Energy              =    -387.8405824623526996 [Eh]

	 ================> DF-SCS-MP2 Energies <==================
	-----------------------------------------------------------
	 SCS Same-Spin Scale       =       0.3333333333333333 [-]
	 SCS Opposite-Spin Scale   =       1.2000000000000000 [-]
	 SCS Same-Spin Energy      =      -0.1335396318954288 [Eh]
	 SCS Opposite-Spin Energy  =      -1.6547069308525355 [Eh]
	 SCS Correlation Energy    =      -1.7882465627479642 [Eh]
	 SCS Total Energy          =    -387.8492876870373038 [Eh]
	-----------------------------------------------------------

  Dipole Moment: [D]
     X:    -1.2104      Y:    -0.6846      Z:     0.3905     Total:     1.4444

*** Psi4 exiting successfully. Buy a developer a beer!
