                               Psi4 1.3.2 release

  ==> Input File <==

--------------------------------------------------------------------------
#psi4
#
memory 32 gb

molecule  {
0 1
  O        2.6932640    -1.3344870    -0.0264310
  C        2.7508540     0.0254460     0.4069810
  C        1.3606810     0.5764810     0.3953890
  C       -3.5492030     0.3621160    -0.4101590
  C        3.6709050     0.8409920    -0.4958550
  C        0.2704120    -0.1024690    -0.0006590
  C       -2.1631840    -0.2004740    -0.4090490
  C       -1.0635270     0.4697970    -0.0176060
  C       -4.4702810    -0.3835230     0.5583970
  H        3.1361180     0.0688010     1.4404840
  H        1.2655190     1.6118880     0.7253080
  H       -3.5113520     1.4248880    -0.1442750
  H       -3.9713450     0.3050270    -1.4220020
  H        3.3060070     0.7827570    -1.5237190
  H        3.6990520     1.8899320    -0.1870900
  H        4.6948240     0.4527130    -0.4608140
  H        0.3841050    -1.1350190    -0.3229170
  H       -2.0476272    -1.3337597    -0.7598216
  H       -1.1648060     1.5075440     0.3065060
  H       -4.5255200    -1.4457790     0.3033390
  H       -5.4853170     0.0231860     0.5310900
  H       -4.0942820    -0.3029910     1.5815520
  H        3.6028580    -1.6773980    -0.0043180
units angstrom
no_reorient  #important for SAPT in psi4, default
symmetry c1  #important for SAPT in psi4, default
}

set PROPERTIES_ORIGIN ["COM"]
properties('MP2/aug-cc-pvtz', properties = ['dipole'])
--------------------------------------------------------------------------

    Molecular point group: c1
  Charge       = 0
  Multiplicity = 1
  Basis Set: AUG-CC-PVTZ
    Blend: AUG-CC-PVTZ
  Basis Set: (AUG-CC-PVTZ AUX)
    Blend: AUG-CC-PVTZ-JKFIT

    Orbital Energies [Eh]
    ---------------------

    Doubly Occupied:

       1A    -20.558690     2A    -11.286541     3A    -11.237231
       4A    -11.224694     5A    -11.224614     6A    -11.223478
       7A    -11.221890     8A    -11.220596     9A    -11.212948
      10A     -1.360594    11A     -1.097020    12A     -1.060939
      13A     -1.016421    14A     -0.961753    15A     -0.876163
      16A     -0.828949    17A     -0.748660    18A     -0.741540
      19A     -0.693654    20A     -0.636210    21A     -0.627026
      22A     -0.616554    23A     -0.589866    24A     -0.582236
      25A     -0.546184    26A     -0.540674    27A     -0.523966
      28A     -0.519392    29A     -0.500976    30A     -0.492324
      31A     -0.476088    32A     -0.466111    33A     -0.453013
      34A     -0.418725    35A     -0.298060

  @DF-RHF Final Energy:  -386.05557525074715

   => Energetics <=

    Nuclear Repulsion Energy =            417.5747286935155103
    One-Electron Energy =               -1351.0930448315739341
    Two-Electron Energy =                 547.4627408873113836
    Total Energy =                       -386.0555752507470970
  Basis Set: (AUG-CC-PVTZ AUX)
    Blend: AUG-CC-PVTZ-RI
    Molecular point group: c1

    Geometry (in Angstrom), charge = 0, multiplicity = 1:

       Center              X                  Y                   Z               Mass
    ------------   -----------------  -----------------  -----------------  -----------------
         O            2.693186478514    -1.333727074453    -0.026195673769    15.994914619570
         C            2.750776478514     0.026205925547     0.407216326231    12.000000000000
         C            1.360603478514     0.577240925547     0.395624326231    12.000000000000
         C           -3.549280521486     0.362875925547    -0.409923673769    12.000000000000
         C            3.670827478514     0.841751925547    -0.495619673769    12.000000000000
         C            0.270334478514    -0.101709074453    -0.000423673769    12.000000000000
         C           -2.163261521486    -0.199714074453    -0.408813673769    12.000000000000
         C           -1.063604521486     0.470556925547    -0.017370673769    12.000000000000
         C           -4.470358521486    -0.382763074453     0.558632326231    12.000000000000
         H            3.136040478514     0.069560925547     1.440719326231     1.007825032230
         H            1.265441478514     1.612647925547     0.725543326231     1.007825032230
         H           -3.511429521486     1.425647925547    -0.144039673769     1.007825032230
         H           -3.971422521486     0.305786925547    -1.421766673769     1.007825032230
         H            3.305929478514     0.783516925547    -1.523483673769     1.007825032230
         H            3.698974478514     1.890691925547    -0.186854673769     1.007825032230
         H            4.694746478514     0.453472925547    -0.460578673769     1.007825032230
         H            0.384027478514    -1.134259074453    -0.322681673769     1.007825032230
         H           -2.047704721486    -1.332999774453    -0.759586273769     1.007825032230
         H           -1.164883521486     1.508303925547     0.306741326231     1.007825032230
         H           -4.525597521486    -1.445019074453     0.303574326231     1.007825032230
         H           -5.485394521486     0.023945925547     0.531325326231     1.007825032230
         H           -4.094359521486    -0.302231074453     1.581787326231     1.007825032230
         H            3.602780478514    -1.676638074453    -0.004082673769     1.007825032230

  Basis Set: AUG-CC-PVTZ
    Blend: AUG-CC-PVTZ
  Basis Set: (AUG-CC-PVTZ AUX)
    Blend: AUG-CC-PVTZ-JKFIT
	 Reference Energy          =    -386.0555752507471539 [Eh]
	 Singles Energy            =      -0.0000000000000000 [Eh]
	 Same-Spin Energy          =      -0.4005674135310780 [Eh]
	 Opposite-Spin Energy      =      -1.3791941999650992 [Eh]
	 Correlation Energy        =      -1.7797616134961771 [Eh]
	 Total Energy              =    -387.8353368642433452 [Eh]

	 ================> DF-SCS-MP2 Energies <==================
	-----------------------------------------------------------
	 SCS Same-Spin Scale       =       0.3333333333333333 [-]
	 SCS Opposite-Spin Scale   =       1.2000000000000000 [-]
	 SCS Same-Spin Energy      =      -0.1335224711770260 [Eh]
	 SCS Opposite-Spin Energy  =      -1.6550330399581190 [Eh]
	 SCS Correlation Energy    =      -1.7885555111351450 [Eh]
	 SCS Total Energy          =    -387.8441307618822975 [Eh]
	-----------------------------------------------------------

  Dipole Moment: [D]
     X:     1.1910      Y:     0.7823      Z:     0.3262     Total:     1.4619

*** Psi4 exiting successfully. Buy a developer a beer!
