                               Psi4 1.3.2 release

  ==> Input File <==

--------------------------------------------------------------------------
#psi4
#
memory 32 gb

molecule  {
0 1
  O        2.6932640    -1.3344870    -0.0264310
  C        2.7508540     0.0254460     0.4069810
  C        1.3606810     0.5764810     0.3953890
  C       -3.5492030     0.3621160    -0.4101590
  C        3.6709050     0.8409920    -0.4958550
  C        0.2704120    -0.1024690    -0.0006590
  C       -2.1631840    -0.2004740    -0.4090490
  C       -1.0635270     0.4697970    -0.0176060
  C       -4.4702810    -0.3835230     0.5583970
  H        3.1361180     0.0688010     1.4404840
  H        1.2655190     1.6118880     0.7253080
  H       -3.5113520     1.4248880    -0.1442750
  H       -3.9713450     0.3050270    -1.4220020
  H        3.3060070     0.7827570    -1.5237190
  H        3.6990520     1.8899320    -0.1870900
  H        4.6948240     0.4527130    -0.4608140
  H        0.3945583    -1.2299549    -0.3525464
  H       -2.0573220    -1.2386810    -0.7303930
  H       -1.1648060     1.5075440     0.3065060
  H       -4.5255200    -1.4457790     0.3033390
  H       -5.4853170     0.0231860     0.5310900
  H       -4.0942820    -0.3029910     1.5815520
  H        3.6028580    -1.6773980    -0.0043180
units angstrom
no_reorient  #important for SAPT in psi4, default
symmetry c1  #important for SAPT in psi4, default
}

set PROPERTIES_ORIGIN ["COM"]
properties('MP2/aug-cc-pvtz', properties = ['dipole'])
--------------------------------------------------------------------------

    Molecular point group: c1
  Charge       = 0
  Multiplicity = 1
  Basis Set: AUG-CC-PVTZ
    Blend: AUG-CC-PVTZ
  Basis Set: (AUG-CC-PVTZ AUX)
    Blend: AUG-CC-PVTZ-JKFIT

    Orbital Energies [Eh]
    ---------------------

    Doubly Occupied:

       1A    -20.558412     2A    -11.286545     3A    -11.233201
       4A    -11.226148     5A    -11.223759     6A    -11.223254
       7A    -11.223063     8A    -11.220518     9A    -11.212866
      10A     -1.360385    11A     -1.096718    12A     -1.060973
      13A     -1.015421    14A     -0.962147    15A     -0.875992
      16A     -0.828101    17A     -0.752661    18A     -0.738654
      19A     -0.694711    20A     -0.633033    21A     -0.627798
      22A     -0.616034    23A     -0.589003    24A     -0.582475
      25A     -0.546063    26A     -0.542362    27A     -0.527538
      28A     -0.518120    29A     -0.495724    30A     -0.487642
      31A     -0.479187    32A     -0.466416    33A     -0.452891
      34A     -0.418551    35A     -0.297694

  @DF-RHF Final Energy:  -386.05509746441930

   => Energetics <=

    Nuclear Repulsion Energy =            417.5794786287523266
    One-Electron Energy =               -1351.1210342871390822
    Two-Electron Energy =                 547.4864581939674508
    Total Energy =                       -386.0550974644193047
  Basis Set: (AUG-CC-PVTZ AUX)
    Blend: AUG-CC-PVTZ-RI
    Molecular point group: c1

    Geometry (in Angstrom), charge = 0, multiplicity = 1:

       Center              X                  Y                   Z               Mass
    ------------   -----------------  -----------------  -----------------  -----------------
         O            2.693180416593    -1.333728215708    -0.026194068978    15.994914619570
         C            2.750770416593     0.026204784292     0.407217931022    12.000000000000
         C            1.360597416593     0.577239784292     0.395625931022    12.000000000000
         C           -3.549286583407     0.362874784292    -0.409922068978    12.000000000000
         C            3.670821416593     0.841750784292    -0.495618068978    12.000000000000
         C            0.270328416593    -0.101710215708    -0.000422068978    12.000000000000
         C           -2.163267583407    -0.199715215708    -0.408812068978    12.000000000000
         C           -1.063610583407     0.470555784292    -0.017369068978    12.000000000000
         C           -4.470364583407    -0.382764215708     0.558633931022    12.000000000000
         H            3.136034416593     0.069559784292     1.440720931022     1.007825032230
         H            1.265435416593     1.612646784292     0.725544931022     1.007825032230
         H           -3.511435583407     1.425646784292    -0.144038068978     1.007825032230
         H           -3.971428583407     0.305785784292    -1.421765068978     1.007825032230
         H            3.305923416593     0.783515784292    -1.523482068978     1.007825032230
         H            3.698968416593     1.890690784292    -0.186853068978     1.007825032230
         H            4.694740416593     0.453471784292    -0.460577068978     1.007825032230
         H            0.394474716593    -1.229196115708    -0.352309468978     1.007825032230
         H           -2.057405583407    -1.237922215708    -0.730156068978     1.007825032230
         H           -1.164889583407     1.508302784292     0.306742931022     1.007825032230
         H           -4.525603583407    -1.445020215708     0.303575931022     1.007825032230
         H           -5.485400583407     0.023944784292     0.531326931022     1.007825032230
         H           -4.094365583407    -0.302232215708     1.581788931022     1.007825032230
         H            3.602774416593    -1.676639215708    -0.004081068978     1.007825032230

  Basis Set: AUG-CC-PVTZ
    Blend: AUG-CC-PVTZ
  Basis Set: (AUG-CC-PVTZ AUX)
    Blend: AUG-CC-PVTZ-JKFIT
	 Reference Energy          =    -386.0550974644193047 [Eh]
	 Singles Energy            =      -0.0000000000000000 [Eh]
	 Same-Spin Energy          =      -0.4007416203992080 [Eh]
	 Opposite-Spin Energy      =      -1.3793356351782182 [Eh]
	 Correlation Energy        =      -1.7800772555774262 [Eh]
	 Total Energy              =    -387.8351747199967576 [Eh]

	 ================> DF-SCS-MP2 Energies <==================
	-----------------------------------------------------------
	 SCS Same-Spin Scale       =       0.3333333333333333 [-]
	 SCS Opposite-Spin Scale   =       1.2000000000000000 [-]
	 SCS Same-Spin Energy      =      -0.1335805401330693 [Eh]
	 SCS Opposite-Spin Energy  =      -1.6552027622138619 [Eh]
	 SCS Correlation Energy    =      -1.7887833023469311 [Eh]
	 SCS Total Energy          =    -387.8438807667662331 [Eh]
	-----------------------------------------------------------

  Dipole Moment: [D]
     X:     1.2019      Y:     0.7411      Z:     0.3131     Total:     1.4464

*** Psi4 exiting successfully. Buy a developer a beer!
