                               Psi4 1.4a3.dev225

  ==> Input File <==

--------------------------------------------------------------------------
#psi4
#
memory 32 gb

molecule  {
0 1
  O       -2.7161510     1.3794200    -0.1343610
  C       -2.7832390     0.0721360     0.4401970
  C       -1.3979030    -0.4954620     0.4743180
  C        3.5083460    -0.4405980    -0.4123350
  C       -3.7239960    -0.8239440    -0.3625680
  C       -0.3030690     0.1219220    -0.0067100
  C        2.1282810     0.1394430    -0.4544070
  C        1.0245920    -0.4684390     0.0236420
  C        4.4606410     0.4027870     0.4416180
  H       -3.1751389     0.1443759     1.5232213
  H       -1.3112260    -1.4900120     0.9147240
  H        3.4619600    -1.4629760    -0.0187660
  H        3.9104550    -0.5133060    -1.4317100
  H       -3.3684670    -0.8811940    -1.3941910
  H       -3.7626400    -1.8335820     0.0574350
  H       -4.7426360    -0.4191700    -0.3608330
  H       -0.4078810     1.1149080    -0.4388390
  H        2.0311270     1.1370710    -0.8883280
  H        1.1170930    -1.4649260     0.4609700
  H        4.5263310     1.4251690     0.0574090
  H        5.4690900    -0.0219830     0.4454750
  H        4.1044230     0.4539160     1.4740500
  H       -3.6221830     1.7324190    -0.1413340
units angstrom
no_reorient  #important for SAPT in psi4, default
symmetry c1  #important for SAPT in psi4, default
}

set PROPERTIES_ORIGIN ["COM"]
properties('MP2/aug-cc-pvtz', properties = ['dipole'])
--------------------------------------------------------------------------

    Molecular point group: c1
  Charge       = 0
  Multiplicity = 1
  Basis Set: AUG-CC-PVTZ
    Blend: AUG-CC-PVTZ
  Basis Set: (AUG-CC-PVTZ AUX)
    Blend: AUG-CC-PVTZ-JKFIT

    Orbital Energies [Eh]
    ---------------------

    Doubly Occupied:

       1A    -20.559832     2A    -11.293232     3A    -11.226771
       4A    -11.224687     5A    -11.224022     6A    -11.223793
       7A    -11.222860     8A    -11.221534     9A    -11.213259
      10A     -1.360720    11A     -1.097243    12A     -1.060314
      13A     -1.015060    14A     -0.962286    15A     -0.875734
      16A     -0.826647    17A     -0.751487    18A     -0.748007
      19A     -0.690541    20A     -0.637240    21A     -0.626759
      22A     -0.616137    23A     -0.590030    24A     -0.582994
      25A     -0.546594    26A     -0.543806    27A     -0.527476
      28A     -0.518363    29A     -0.501001    30A     -0.491506
      31A     -0.479377    32A     -0.467917    33A     -0.451272
      34A     -0.417373    35A     -0.297367

  @DF-RHF Final Energy:  -386.06013370829857

   => Energetics <=

    Nuclear Repulsion Energy =            417.2509516526034758
    One-Electron Energy =               -1350.4356877635107139
    Two-Electron Energy =                 547.1246024026086161
    Total Energy =                       -386.0601337082986220
  Basis Set: (AUG-CC-PVTZ AUX)
    Blend: AUG-CC-PVTZ-RI
    Molecular point group: c1

    Geometry (in Angstrom), charge = 0, multiplicity = 1:

       Center              X                  Y                   Z               Mass
    ------------   -----------------  -----------------  -----------------  -----------------
         O           -2.682707632653     1.363066221319    -0.133070637102    15.994914619570
         C           -2.749795632653     0.055782221319     0.441487362898    12.000000000000
         C           -1.364459632653    -0.511815778681     0.475608362898    12.000000000000
         C            3.541789367347    -0.456951778681    -0.411044637102    12.000000000000
         C           -3.690552632653    -0.840297778681    -0.361277637102    12.000000000000
         C           -0.269625632653     0.105568221319    -0.005419637102    12.000000000000
         C            2.161724367347     0.123089221319    -0.453116637102    12.000000000000
         C            1.058035367347    -0.484792778681     0.024932362898    12.000000000000
         C            4.494084367347     0.386433221319     0.442908362898    12.000000000000
         H           -3.141695532653     0.128022121319     1.524511662898     1.007825032230
         H           -1.277782632653    -1.506365778681     0.916014362898     1.007825032230
         H            3.495403367347    -1.479329778681    -0.017475637102     1.007825032230
         H            3.943898367347    -0.529659778681    -1.430419637102     1.007825032230
         H           -3.335023632653    -0.897547778681    -1.392900637102     1.007825032230
         H           -3.729196632653    -1.849935778681     0.058725362898     1.007825032230
         H           -4.709192632653    -0.435523778681    -0.359542637102     1.007825032230
         H           -0.374437632653     1.098554221319    -0.437548637102     1.007825032230
         H            2.064570367347     1.120717221319    -0.887037637102     1.007825032230
         H            1.150536367347    -1.481279778681     0.462260362898     1.007825032230
         H            4.559774367347     1.408815221319     0.058699362898     1.007825032230
         H            5.502533367347    -0.038336778681     0.446765362898     1.007825032230
         H            4.137866367347     0.437562221319     1.475340362898     1.007825032230
         H           -3.588739632653     1.716065221319    -0.140043637102     1.007825032230

  Basis Set: AUG-CC-PVTZ
    Blend: AUG-CC-PVTZ
  Basis Set: (AUG-CC-PVTZ AUX)
    Blend: AUG-CC-PVTZ-JKFIT
	 Reference Energy          =    -386.0601337082985651 [Eh]
	 Singles Energy            =      -0.0000000000000000 [Eh]
	 Same-Spin Energy          =      -0.4003424659273911 [Eh]
	 Opposite-Spin Energy      =      -1.3788084649957946 [Eh]
	 Correlation Energy        =      -1.7791509309231857 [Eh]
	 Total Energy              =    -387.8392846392217734 [Eh]

	 ================> DF-SCS-MP2 Energies <==================
	-----------------------------------------------------------
	 SCS Same-Spin Scale       =       0.3333333333333333 [-]
	 SCS Opposite-Spin Scale   =       1.2000000000000000 [-]
	 SCS Same-Spin Energy      =      -0.1334474886424637 [Eh]
	 SCS Opposite-Spin Energy  =      -1.6545701579949534 [Eh]
	 SCS Correlation Energy    =      -1.7880176466374171 [Eh]
	 SCS Total Energy          =    -387.8481513549359647 [Eh]
	-----------------------------------------------------------

  Dipole Moment: [D]
     X:    -1.1838      Y:    -0.6787      Z:     0.3468     Total:     1.4080

*** Psi4 exiting successfully. Buy a developer a beer!
