                               Psi4 1.3.2 release

  ==> Input File <==

--------------------------------------------------------------------------
#psi4
#
memory 32 gb

molecule  {
0 1
  O        2.6932640    -1.3344870    -0.0264310
  C        2.7508540     0.0254460     0.4069810
  C        1.3606810     0.5764810     0.3953890
  C       -3.5492030     0.3621160    -0.4101590
  C        3.6709050     0.8409920    -0.4958550
  C        0.2657100    -0.1134165    -0.0049616
  C       -2.1631840    -0.2004740    -0.4090490
  C       -1.0635270     0.4697970    -0.0176060
  C       -4.4702810    -0.3835230     0.5583970
  H        3.1361180     0.0688010     1.4404840
  H        1.2655190     1.6118880     0.7253080
  H       -3.5113520     1.4248880    -0.1442750
  H       -3.9713450     0.3050270    -1.4220020
  H        3.3060070     0.7827570    -1.5237190
  H        3.6990520     1.8899320    -0.1870900
  H        4.6948240     0.4527130    -0.4608140
  H        0.3841050    -1.1350190    -0.3229170
  H       -2.0573220    -1.2386810    -0.7303930
  H       -1.1741898     1.5070805     0.3049176
  H       -4.5255200    -1.4457790     0.3033390
  H       -5.4853170     0.0231860     0.5310900
  H       -4.0942820    -0.3029910     1.5815520
  H        3.6028580    -1.6773980    -0.0043180
units angstrom
no_reorient  #important for SAPT in psi4, default
symmetry c1  #important for SAPT in psi4, default
}

set PROPERTIES_ORIGIN ["COM"]
properties('MP2/aug-cc-pvtz', properties = ['dipole'])
--------------------------------------------------------------------------

    Molecular point group: c1
  Charge       = 0
  Multiplicity = 1
  Basis Set: AUG-CC-PVTZ
    Blend: AUG-CC-PVTZ
  Basis Set: (AUG-CC-PVTZ AUX)
    Blend: AUG-CC-PVTZ-JKFIT

    Orbital Energies [Eh]
    ---------------------

    Doubly Occupied:

       1A    -20.558725     2A    -11.286338     3A    -11.225511
       4A    -11.224624     5A    -11.223355     6A    -11.223051
       7A    -11.222631     8A    -11.220488     9A    -11.212727
      10A     -1.360603    11A     -1.097359    12A     -1.060540
      13A     -1.016083    14A     -0.961548    15A     -0.876602
      16A     -0.828099    17A     -0.751802    18A     -0.749700
      19A     -0.695475    20A     -0.637469    21A     -0.627334
      22A     -0.616600    23A     -0.589808    24A     -0.582479
      25A     -0.546736    26A     -0.543609    27A     -0.527202
      28A     -0.518730    29A     -0.502686    30A     -0.492395
      31A     -0.479003    32A     -0.468449    33A     -0.452715
      34A     -0.417553    35A     -0.295846

  @DF-RHF Final Energy:  -386.06191926415175

   => Energetics <=

    Nuclear Repulsion Energy =            417.9062150788383292
    One-Electron Energy =               -1351.7485237464547936
    Two-Electron Energy =                 547.7803894034645964
    Total Energy =                       -386.0619192641518111
  Basis Set: (AUG-CC-PVTZ AUX)
    Blend: AUG-CC-PVTZ-RI
    Molecular point group: c1

    Geometry (in Angstrom), charge = 0, multiplicity = 1:

       Center              X                  Y                   Z               Mass
    ------------   -----------------  -----------------  -----------------  -----------------
         O            2.693786392962    -1.333441482400    -0.026008740265    15.994914619570
         C            2.751376392962     0.026491517600     0.407403259735    12.000000000000
         C            1.361203392962     0.577526517600     0.395811259735    12.000000000000
         C           -3.548680607038     0.363161517600    -0.409736740265    12.000000000000
         C            3.671427392962     0.842037517600    -0.495432740265    12.000000000000
         C            0.266232392962    -0.112370982400    -0.004539340265    12.000000000000
         C           -2.162661607038    -0.199428482400    -0.408626740265    12.000000000000
         C           -1.063004607038     0.470842517600    -0.017183740265    12.000000000000
         C           -4.469758607038    -0.382477482400     0.558819259735    12.000000000000
         H            3.136640392962     0.069846517600     1.440906259735     1.007825032230
         H            1.266041392962     1.612933517600     0.725730259735     1.007825032230
         H           -3.510829607038     1.425933517600    -0.143852740265     1.007825032230
         H           -3.970822607038     0.306072517600    -1.421579740265     1.007825032230
         H            3.306529392962     0.783802517600    -1.523296740265     1.007825032230
         H            3.699574392962     1.890977517600    -0.186667740265     1.007825032230
         H            4.695346392962     0.453758517600    -0.460391740265     1.007825032230
         H            0.384627392962    -1.133973482400    -0.322494740265     1.007825032230
         H           -2.056799607038    -1.237635482400    -0.729970740265     1.007825032230
         H           -1.173667407038     1.508126017600     0.305339859735     1.007825032230
         H           -4.524997607038    -1.444733482400     0.303761259735     1.007825032230
         H           -5.484794607038     0.024231517600     0.531512259735     1.007825032230
         H           -4.093759607038    -0.301945482400     1.581974259735     1.007825032230
         H            3.603380392962    -1.676352482400    -0.003895740265     1.007825032230

  Basis Set: AUG-CC-PVTZ
    Blend: AUG-CC-PVTZ
  Basis Set: (AUG-CC-PVTZ AUX)
    Blend: AUG-CC-PVTZ-JKFIT
	 Reference Energy          =    -386.0619192641517543 [Eh]
	 Singles Energy            =      -0.0000000000000000 [Eh]
	 Same-Spin Energy          =      -0.4004585499207406 [Eh]
	 Opposite-Spin Energy      =      -1.3785836452048876 [Eh]
	 Correlation Energy        =      -1.7790421951256281 [Eh]
	 Total Energy              =    -387.8409614592773664 [Eh]

	 ================> DF-SCS-MP2 Energies <==================
	-----------------------------------------------------------
	 SCS Same-Spin Scale       =       0.3333333333333333 [-]
	 SCS Opposite-Spin Scale   =       1.2000000000000000 [-]
	 SCS Same-Spin Energy      =      -0.1334861833069135 [Eh]
	 SCS Opposite-Spin Energy  =      -1.6543003742458651 [Eh]
	 SCS Correlation Energy    =      -1.7877865575527787 [Eh]
	 SCS Total Energy          =    -387.8497058217045605 [Eh]
	-----------------------------------------------------------

  Dipole Moment: [D]
     X:     1.2062      Y:     0.7285      Z:     0.3093     Total:     1.4427

*** Psi4 exiting successfully. Buy a developer a beer!
