                               Psi4 1.3.2 release

  ==> Input File <==

--------------------------------------------------------------------------
#psi4
#
memory 32 gb

molecule  {
0 1
  O        2.6932640    -1.3344870    -0.0264310
  C        2.7508540     0.0254460     0.4069810
  C        1.3606810     0.5764810     0.3953890
  C       -3.5492030     0.3621160    -0.4101590
  C        3.6709050     0.8409920    -0.4958550
  C        0.2704120    -0.1024690    -0.0006590
  C       -2.1696922    -0.1909262    -0.4069386
  C       -1.0635270     0.4697970    -0.0176060
  C       -4.4702810    -0.3835230     0.5583970
  H        3.1361180     0.0688010     1.4404840
  H        1.2655190     1.6118880     0.7253080
  H       -3.5113520     1.4248880    -0.1442750
  H       -3.9713450     0.3050270    -1.4220020
  H        3.3060070     0.7827570    -1.5237190
  H        3.6990520     1.8899320    -0.1870900
  H        4.6948240     0.4527130    -0.4608140
  H        0.3841050    -1.1350190    -0.3229170
  H       -2.0573220    -1.2386810    -0.7303930
  H       -1.1741856     1.5070893     0.3048910
  H       -4.5255200    -1.4457790     0.3033390
  H       -5.4853170     0.0231860     0.5310900
  H       -4.0942820    -0.3029910     1.5815520
  H        3.6028580    -1.6773980    -0.0043180
units angstrom
no_reorient  #important for SAPT in psi4, default
symmetry c1  #important for SAPT in psi4, default
}

set PROPERTIES_ORIGIN ["COM"]
properties('MP2/aug-cc-pvtz', properties = ['dipole'])
--------------------------------------------------------------------------

    Molecular point group: c1
  Charge       = 0
  Multiplicity = 1
  Basis Set: AUG-CC-PVTZ
    Blend: AUG-CC-PVTZ
  Basis Set: (AUG-CC-PVTZ AUX)
    Blend: AUG-CC-PVTZ-JKFIT

    Orbital Energies [Eh]
    ---------------------

    Doubly Occupied:

       1A    -20.558759     2A    -11.286578     3A    -11.226156
       4A    -11.223868     5A    -11.223039     6A    -11.222848
       7A    -11.222029     8A    -11.220620     9A    -11.213036
      10A     -1.360663    11A     -1.098256    12A     -1.062158
      13A     -1.016354    14A     -0.962553    15A     -0.877227
      16A     -0.829244    17A     -0.750830    18A     -0.748024
      19A     -0.695365    20A     -0.637138    21A     -0.628661
      22A     -0.616763    23A     -0.590377    24A     -0.583211
      25A     -0.546478    26A     -0.543020    27A     -0.526466
      28A     -0.519710    29A     -0.501145    30A     -0.492579
      31A     -0.477869    32A     -0.469158    33A     -0.453034
      34A     -0.418144    35A     -0.297428

  @DF-RHF Final Energy:  -386.06223608890542

   => Energetics <=

    Nuclear Repulsion Energy =            418.0477923643668987
    One-Electron Energy =               -1352.0224816335100968
    Two-Electron Energy =                 547.9124531802378897
    Total Energy =                       -386.0622360889053652
  Basis Set: (AUG-CC-PVTZ AUX)
    Blend: AUG-CC-PVTZ-RI
    Molecular point group: c1

    Geometry (in Angstrom), charge = 0, multiplicity = 1:

       Center              X                  Y                   Z               Mass
    ------------   -----------------  -----------------  -----------------  -----------------
         O            2.693958235943    -1.335391869079    -0.026618783627    15.994914619570
         C            2.751548235943     0.024541130921     0.406793216373    12.000000000000
         C            1.361375235943     0.575576130921     0.395201216373    12.000000000000
         C           -3.548508764057     0.361211130921    -0.410346783627    12.000000000000
         C            3.671599235943     0.840087130921    -0.496042783627    12.000000000000
         C            0.271106235943    -0.103373869079    -0.000846783627    12.000000000000
         C           -2.168997964057    -0.191831069079    -0.407126383627    12.000000000000
         C           -1.062832764057     0.468892130921    -0.017793783627    12.000000000000
         C           -4.469586764057    -0.384427869079     0.558209216373    12.000000000000
         H            3.136812235943     0.067896130921     1.440296216373     1.007825032230
         H            1.266213235943     1.610983130921     0.725120216373     1.007825032230
         H           -3.510657764057     1.423983130921    -0.144462783627     1.007825032230
         H           -3.970650764057     0.304122130921    -1.422189783627     1.007825032230
         H            3.306701235943     0.781852130921    -1.523906783627     1.007825032230
         H            3.699746235943     1.889027130921    -0.187277783627     1.007825032230
         H            4.695518235943     0.451808130921    -0.461001783627     1.007825032230
         H            0.384799235943    -1.135923869079    -0.323104783627     1.007825032230
         H           -2.056627764057    -1.239585869079    -0.730580783627     1.007825032230
         H           -1.173491364057     1.506184430921     0.304703216373     1.007825032230
         H           -4.524825764057    -1.446683869079     0.303151216373     1.007825032230
         H           -5.484622764057     0.022281130921     0.530902216373     1.007825032230
         H           -4.093587764057    -0.303895869079     1.581364216373     1.007825032230
         H            3.603552235943    -1.678302869079    -0.004505783627     1.007825032230

  Basis Set: AUG-CC-PVTZ
    Blend: AUG-CC-PVTZ
  Basis Set: (AUG-CC-PVTZ AUX)
    Blend: AUG-CC-PVTZ-JKFIT
	 Reference Energy          =    -386.0622360889054221 [Eh]
	 Singles Energy            =      -0.0000000000000000 [Eh]
	 Same-Spin Energy          =      -0.4004647944162752 [Eh]
	 Opposite-Spin Energy      =      -1.3784349534332598 [Eh]
	 Correlation Energy        =      -1.7788997478495352 [Eh]
	 Total Energy              =    -387.8411358367549724 [Eh]

	 ================> DF-SCS-MP2 Energies <==================
	-----------------------------------------------------------
	 SCS Same-Spin Scale       =       0.3333333333333333 [-]
	 SCS Opposite-Spin Scale   =       1.2000000000000000 [-]
	 SCS Same-Spin Energy      =      -0.1334882648054251 [Eh]
	 SCS Opposite-Spin Energy  =      -1.6541219441199118 [Eh]
	 SCS Correlation Energy    =      -1.7876102089253370 [Eh]
	 SCS Total Energy          =    -387.8498462978307657 [Eh]
	-----------------------------------------------------------

  Dipole Moment: [D]
     X:     1.1994      Y:     0.7333      Z:     0.3110     Total:     1.4398

*** Psi4 exiting successfully. Buy a developer a beer!
