                               Psi4 1.3.2 release

  ==> Input File <==

--------------------------------------------------------------------------
#psi4
#
memory 32 gb

molecule  {
0 1
  O        2.6932640    -1.3344870    -0.0264310
  C        2.7508540     0.0254460     0.4069810
  C        1.3606810     0.5764810     0.3953890
  C       -3.5581705     0.3393993    -0.4193849
  C        3.6709050     0.8409920    -0.4958550
  C        0.2704120    -0.1024690    -0.0006590
  C       -2.1631840    -0.2004740    -0.4090490
  C       -1.0505162     0.4508293    -0.0223827
  C       -4.4702810    -0.3835230     0.5583970
  H        3.1361180     0.0688010     1.4404840
  H        1.2655190     1.6118880     0.7253080
  H       -3.5113520     1.4248880    -0.1442750
  H       -3.9713450     0.3050270    -1.4220020
  H        3.3060070     0.7827570    -1.5237190
  H        3.6990520     1.8899320    -0.1870900
  H        4.6948240     0.4527130    -0.4608140
  H        0.3841050    -1.1350190    -0.3229170
  H       -2.0573220    -1.2386810    -0.7303930
  H       -1.1648060     1.5075440     0.3065060
  H       -4.5255200    -1.4457790     0.3033390
  H       -5.4853170     0.0231860     0.5310900
  H       -4.0942820    -0.3029910     1.5815520
  H        3.6028580    -1.6773980    -0.0043180
units angstrom
no_reorient  #important for SAPT in psi4, default
symmetry c1  #important for SAPT in psi4, default
}

set PROPERTIES_ORIGIN ["COM"]
properties('MP2/aug-cc-pvtz', properties = ['dipole'])
--------------------------------------------------------------------------

    Molecular point group: c1
  Charge       = 0
  Multiplicity = 1
  Basis Set: AUG-CC-PVTZ
    Blend: AUG-CC-PVTZ
  Basis Set: (AUG-CC-PVTZ AUX)
    Blend: AUG-CC-PVTZ-JKFIT

    Orbital Energies [Eh]
    ---------------------

    Doubly Occupied:

       1A    -20.558945     2A    -11.286942     3A    -11.226093
       4A    -11.224432     5A    -11.224085     6A    -11.223831
       7A    -11.221397     8A    -11.220876     9A    -11.212736
      10A     -1.360873    11A     -1.099445    12A     -1.062134
      13A     -1.018332    14A     -0.963238    15A     -0.878283
      16A     -0.828860    17A     -0.752177    18A     -0.746656
      19A     -0.695349    20A     -0.637028    21A     -0.630322
      22A     -0.616703    23A     -0.590735    24A     -0.583479
      25A     -0.546775    26A     -0.544094    27A     -0.525264
      28A     -0.523139    29A     -0.500820    30A     -0.491000
      31A     -0.474103    32A     -0.467449    33A     -0.453601
      34A     -0.421284    35A     -0.296922

  @DF-RHF Final Energy:  -386.06042171484353

   => Energetics <=

    Nuclear Repulsion Energy =            418.1931703740321495
    One-Electron Energy =               -1352.2923766114085993
    Two-Electron Energy =                 548.0387845225328647
    Total Energy =                       -386.0604217148435282
  Basis Set: (AUG-CC-PVTZ AUX)
    Blend: AUG-CC-PVTZ-RI
    Molecular point group: c1

    Geometry (in Angstrom), charge = 0, multiplicity = 1:

       Center              X                  Y                   Z               Mass
    ------------   -----------------  -----------------  -----------------  -----------------
         O            2.692879202020    -1.330520287874    -0.025098390495    15.994914619570
         C            2.750469202020     0.029412712126     0.408313609505    12.000000000000
         C            1.360296202020     0.580447712126     0.396721609505    12.000000000000
         C           -3.558555297980     0.343366012126    -0.418052290495    12.000000000000
         C            3.670520202020     0.844958712126    -0.494522390495    12.000000000000
         C            0.270027202020    -0.098502287874     0.000673609505    12.000000000000
         C           -2.163568797980    -0.196507287874    -0.407716390495    12.000000000000
         C           -1.050900997980     0.454796012126    -0.021050090495    12.000000000000
         C           -4.470665797980    -0.379556287874     0.559729609505    12.000000000000
         H            3.135733202020     0.072767712126     1.441816609505     1.007825032230
         H            1.265134202020     1.615854712126     0.726640609505     1.007825032230
         H           -3.511736797980     1.428854712126    -0.142942390495     1.007825032230
         H           -3.971729797980     0.308993712126    -1.420669390495     1.007825032230
         H            3.305622202020     0.786723712126    -1.522386390495     1.007825032230
         H            3.698667202020     1.893898712126    -0.185757390495     1.007825032230
         H            4.694439202020     0.456679712126    -0.459481390495     1.007825032230
         H            0.383720202020    -1.131052287874    -0.321584390495     1.007825032230
         H           -2.057706797980    -1.234714287874    -0.729060390495     1.007825032230
         H           -1.165190797980     1.511510712126     0.307838609505     1.007825032230
         H           -4.525904797980    -1.441812287874     0.304671609505     1.007825032230
         H           -5.485701797980     0.027152712126     0.532422609505     1.007825032230
         H           -4.094666797980    -0.299024287874     1.582884609505     1.007825032230
         H            3.602473202020    -1.673431287874    -0.002985390495     1.007825032230

  Basis Set: AUG-CC-PVTZ
    Blend: AUG-CC-PVTZ
  Basis Set: (AUG-CC-PVTZ AUX)
    Blend: AUG-CC-PVTZ-JKFIT
	 Reference Energy          =    -386.0604217148435282 [Eh]
	 Singles Energy            =      -0.0000000000000000 [Eh]
	 Same-Spin Energy          =      -0.4007308585269925 [Eh]
	 Opposite-Spin Energy      =      -1.3788092482063330 [Eh]
	 Correlation Energy        =      -1.7795401067333254 [Eh]
	 Total Energy              =    -387.8399618215768783 [Eh]

	 ================> DF-SCS-MP2 Energies <==================
	-----------------------------------------------------------
	 SCS Same-Spin Scale       =       0.3333333333333333 [-]
	 SCS Opposite-Spin Scale   =       1.2000000000000000 [-]
	 SCS Same-Spin Energy      =      -0.1335769528423308 [Eh]
	 SCS Opposite-Spin Energy  =      -1.6545710978475996 [Eh]
	 SCS Correlation Energy    =      -1.7881480506899303 [Eh]
	 SCS Total Energy          =    -387.8485697655334548 [Eh]
	-----------------------------------------------------------

  Dipole Moment: [D]
     X:     1.2265      Y:     0.7104      Z:     0.3078     Total:     1.4504

*** Psi4 exiting successfully. Buy a developer a beer!
