                               Psi4 1.3.2 release

  ==> Input File <==

--------------------------------------------------------------------------
#psi4
#
memory 32 gb

molecule  {
0 1
  O        2.6932640    -1.3344870    -0.0264310
  C        2.7508540     0.0254460     0.4069810
  C        1.3606810     0.5764810     0.3953890
  C       -3.5445177     0.3735159    -0.4058592
  C        3.6709050     0.8409920    -0.4958550
  C        0.2704120    -0.1024690    -0.0006590
  C       -2.1631840    -0.2004740    -0.4090490
  C       -1.0635270     0.4697970    -0.0176060
  C       -4.4702810    -0.3835230     0.5583970
  H        3.1361180     0.0688010     1.4404840
  H        1.2655190     1.6118880     0.7253080
  H       -3.5113520     1.4248880    -0.1442750
  H       -3.9713450     0.3050270    -1.4220020
  H        3.3060070     0.7827570    -1.5237190
  H        3.6990520     1.8899320    -0.1870900
  H        4.6948240     0.4527130    -0.4608140
  H        0.3841050    -1.1350190    -0.3229170
  H       -2.0479166    -1.2381184    -0.7289708
  H       -1.1648060     1.5075440     0.3065060
  H       -4.5255200    -1.4457790     0.3033390
  H       -5.4853170     0.0231860     0.5310900
  H       -4.0942820    -0.3029910     1.5815520
  H        3.6028580    -1.6773980    -0.0043180
units angstrom
no_reorient  #important for SAPT in psi4, default
symmetry c1  #important for SAPT in psi4, default
}

set PROPERTIES_ORIGIN ["COM"]
properties('MP2/aug-cc-pvtz', properties = ['dipole'])
--------------------------------------------------------------------------

    Molecular point group: c1
  Charge       = 0
  Multiplicity = 1
  Basis Set: AUG-CC-PVTZ
    Blend: AUG-CC-PVTZ
  Basis Set: (AUG-CC-PVTZ AUX)
    Blend: AUG-CC-PVTZ-JKFIT

    Orbital Energies [Eh]
    ---------------------

    Doubly Occupied:

       1A    -20.558648     2A    -11.286406     3A    -11.225829
       4A    -11.223456     5A    -11.223210     6A    -11.222663
       7A    -11.221606     8A    -11.220499     9A    -11.212998
      10A     -1.360543    11A     -1.097807    12A     -1.061050
      13A     -1.015727    14A     -0.962166    15A     -0.876480
      16A     -0.828697    17A     -0.752930    18A     -0.747969
      19A     -0.695184    20A     -0.637457    21A     -0.627470
      22A     -0.616683    23A     -0.590171    24A     -0.582409
      25A     -0.546500    26A     -0.543419    27A     -0.527352
      28A     -0.516816    29A     -0.500491    30A     -0.492275
      31A     -0.482335    32A     -0.467915    33A     -0.452874
      34A     -0.417894    35A     -0.297166

  @DF-RHF Final Energy:  -386.06247143103030

   => Energetics <=

    Nuclear Repulsion Energy =            418.0001100994743979
    One-Electron Energy =               -1351.9389767340405797
    Two-Electron Energy =                 547.8763952035359353
    Total Energy =                       -386.0624714310303034
  Basis Set: (AUG-CC-PVTZ AUX)
    Blend: AUG-CC-PVTZ-RI
    Molecular point group: c1

    Geometry (in Angstrom), charge = 0, multiplicity = 1:

       Center              X                  Y                   Z               Mass
    ------------   -----------------  -----------------  -----------------  -----------------
         O            2.692742941995    -1.335576243680    -0.026851398437    15.994914619570
         C            2.750332941995     0.024356756320     0.406560601563    12.000000000000
         C            1.360159941995     0.575391756320     0.394968601563    12.000000000000
         C           -3.545038758005     0.372426656320    -0.406279598437    12.000000000000
         C            3.670383941995     0.839902756320    -0.496275398437    12.000000000000
         C            0.269890941995    -0.103558243680    -0.001079398437    12.000000000000
         C           -2.163705058005    -0.201563243680    -0.409469398437    12.000000000000
         C           -1.064048058005     0.468707756320    -0.018026398437    12.000000000000
         C           -4.470802058005    -0.384612243680     0.557976601563    12.000000000000
         H            3.135596941995     0.067711756320     1.440063601563     1.007825032230
         H            1.264997941995     1.610798756320     0.724887601563     1.007825032230
         H           -3.511873058005     1.423798756320    -0.144695398437     1.007825032230
         H           -3.971866058005     0.303937756320    -1.422422398437     1.007825032230
         H            3.305485941995     0.781667756320    -1.524139398437     1.007825032230
         H            3.698530941995     1.888842756320    -0.187510398437     1.007825032230
         H            4.694302941995     0.451623756320    -0.461234398437     1.007825032230
         H            0.383583941995    -1.136108243680    -0.323337398437     1.007825032230
         H           -2.048437658005    -1.239207643680    -0.729391198437     1.007825032230
         H           -1.165327058005     1.506454756320     0.306085601563     1.007825032230
         H           -4.526041058005    -1.446868243680     0.302918601563     1.007825032230
         H           -5.485838058005     0.022096756320     0.530669601563     1.007825032230
         H           -4.094803058005    -0.304080243680     1.581131601563     1.007825032230
         H            3.602336941995    -1.678487243680    -0.004738398437     1.007825032230

  Basis Set: AUG-CC-PVTZ
    Blend: AUG-CC-PVTZ
  Basis Set: (AUG-CC-PVTZ AUX)
    Blend: AUG-CC-PVTZ-JKFIT
	 Reference Energy          =    -386.0624714310303034 [Eh]
	 Singles Energy            =      -0.0000000000000000 [Eh]
	 Same-Spin Energy          =      -0.4003354281902945 [Eh]
	 Opposite-Spin Energy      =      -1.3782846809410172 [Eh]
	 Correlation Energy        =      -1.7786201091313116 [Eh]
	 Total Energy              =    -387.8410915401616421 [Eh]

	 ================> DF-SCS-MP2 Energies <==================
	-----------------------------------------------------------
	 SCS Same-Spin Scale       =       0.3333333333333333 [-]
	 SCS Opposite-Spin Scale   =       1.2000000000000000 [-]
	 SCS Same-Spin Energy      =      -0.1334451427300982 [Eh]
	 SCS Opposite-Spin Energy  =      -1.6539416171292205 [Eh]
	 SCS Correlation Energy    =      -1.7873867598593187 [Eh]
	 SCS Total Energy          =    -387.8498581908896199 [Eh]
	-----------------------------------------------------------

  Dipole Moment: [D]
     X:     1.2010      Y:     0.7339      Z:     0.3109     Total:     1.4414

*** Psi4 exiting successfully. Buy a developer a beer!
