                               Psi4 1.4a3.dev225

  ==> Input File <==

--------------------------------------------------------------------------
#psi4
#
memory 32 gb

molecule  {
0 1
  O       -2.7161510     1.3794200    -0.1343610
  C       -2.7832390     0.0721360     0.4401970
  C       -1.3979030    -0.4954620     0.4743180
  C        3.5083460    -0.4405980    -0.4123350
  C       -3.7239960    -0.8239440    -0.3625680
  C       -0.3030690     0.1219220    -0.0067100
  C        2.1282810     0.1394430    -0.4544070
  C        1.0245920    -0.4684390     0.0236420
  C        4.4606410     0.4027870     0.4416180
  H       -3.1581590     0.1412460     1.4762970
  H       -1.3151978    -1.4444384     0.8945431
  H        3.4619600    -1.4629760    -0.0187660
  H        3.9104550    -0.5133060    -1.4317100
  H       -3.3684670    -0.8811940    -1.3941910
  H       -3.7626400    -1.8335820     0.0574350
  H       -4.7426360    -0.4191700    -0.3608330
  H       -0.4078810     1.1149080    -0.4388390
  H        2.0311270     1.1370710    -0.8883280
  H        1.1170930    -1.4649260     0.4609700
  H        4.5263310     1.4251690     0.0574090
  H        5.4690900    -0.0219830     0.4454750
  H        4.1044230     0.4539160     1.4740500
  H       -3.6221830     1.7324190    -0.1413340
units angstrom
no_reorient  #important for SAPT in psi4, default
symmetry c1  #important for SAPT in psi4, default
}

set PROPERTIES_ORIGIN ["COM"]
properties('MP2/aug-cc-pvtz', properties = ['dipole'])
--------------------------------------------------------------------------

    Molecular point group: c1
  Charge       = 0
  Multiplicity = 1
  Basis Set: AUG-CC-PVTZ
    Blend: AUG-CC-PVTZ
  Basis Set: (AUG-CC-PVTZ AUX)
    Blend: AUG-CC-PVTZ-JKFIT

    Orbital Energies [Eh]
    ---------------------

    Doubly Occupied:

       1A    -20.558414     2A    -11.286453     3A    -11.226500
       4A    -11.223970     5A    -11.223642     6A    -11.222829
       7A    -11.220939     8A    -11.217100     9A    -11.213133
      10A     -1.359720    11A     -1.097564    12A     -1.061486
      13A     -1.015512    14A     -0.962694    15A     -0.876656
      16A     -0.828305    17A     -0.755656    18A     -0.751505
      19A     -0.694693    20A     -0.636710    21A     -0.627990
      22A     -0.616311    23A     -0.591011    24A     -0.583929
      25A     -0.548057    26A     -0.544143    27A     -0.527672
      28A     -0.518637    29A     -0.502094    30A     -0.492192
      31A     -0.479300    32A     -0.467975    33A     -0.452536
      34A     -0.417702    35A     -0.297118

  @DF-RHF Final Energy:  -386.06157764573726

   => Energetics <=

    Nuclear Repulsion Energy =            417.7501247016925277
    One-Electron Energy =               -1351.4231132145600895
    Two-Electron Energy =                 547.6114108671303029
    Total Energy =                       -386.0615776457372021
  Basis Set: (AUG-CC-PVTZ AUX)
    Blend: AUG-CC-PVTZ-RI
    Molecular point group: c1

    Geometry (in Angstrom), charge = 0, multiplicity = 1:

       Center              X                  Y                   Z               Mass
    ------------   -----------------  -----------------  -----------------  -----------------
         O           -2.682811593197     1.362727011892    -0.132534333329    15.994914619570
         C           -2.749899593197     0.055443011892     0.442023666671    12.000000000000
         C           -1.364563593197    -0.512154988108     0.476144666671    12.000000000000
         C            3.541685406803    -0.457290988108    -0.410508333329    12.000000000000
         C           -3.690656593197    -0.840636988108    -0.360741333329    12.000000000000
         C           -0.269729593197     0.105229011892    -0.004883333329    12.000000000000
         C            2.161620406803     0.122750011892    -0.452580333329    12.000000000000
         C            1.057931406803    -0.485131988108     0.025468666671    12.000000000000
         C            4.493980406803     0.386094011892     0.443444666671    12.000000000000
         H           -3.124819593197     0.124553011892     1.478123666671     1.007825032230
         H           -1.281858393197    -1.461131388108     0.896369766671     1.007825032230
         H            3.495299406803    -1.479668988108    -0.016939333329     1.007825032230
         H            3.943794406803    -0.529998988108    -1.429883333329     1.007825032230
         H           -3.335127593197    -0.897886988108    -1.392364333329     1.007825032230
         H           -3.729300593197    -1.850274988108     0.059261666671     1.007825032230
         H           -4.709296593197    -0.435862988108    -0.359006333329     1.007825032230
         H           -0.374541593197     1.098215011892    -0.437012333329     1.007825032230
         H            2.064466406803     1.120378011892    -0.886501333329     1.007825032230
         H            1.150432406803    -1.481618988108     0.462796666671     1.007825032230
         H            4.559670406803     1.408476011892     0.059235666671     1.007825032230
         H            5.502429406803    -0.038675988108     0.447301666671     1.007825032230
         H            4.137762406803     0.437223011892     1.475876666671     1.007825032230
         H           -3.588843593197     1.715726011892    -0.139507333329     1.007825032230

  Basis Set: AUG-CC-PVTZ
    Blend: AUG-CC-PVTZ
  Basis Set: (AUG-CC-PVTZ AUX)
    Blend: AUG-CC-PVTZ-JKFIT
	 Reference Energy          =    -386.0615776457372590 [Eh]
	 Singles Energy            =      -0.0000000000000000 [Eh]
	 Same-Spin Energy          =      -0.4001819393268347 [Eh]
	 Opposite-Spin Energy      =      -1.3780848767368055 [Eh]
	 Correlation Energy        =      -1.7782668160636401 [Eh]
	 Total Energy              =    -387.8398444618009080 [Eh]

	 ================> DF-SCS-MP2 Energies <==================
	-----------------------------------------------------------
	 SCS Same-Spin Scale       =       0.3333333333333333 [-]
	 SCS Opposite-Spin Scale   =       1.2000000000000000 [-]
	 SCS Same-Spin Energy      =      -0.1333939797756115 [Eh]
	 SCS Opposite-Spin Energy  =      -1.6537018520841664 [Eh]
	 SCS Correlation Energy    =      -1.7870958318597781 [Eh]
	 SCS Total Energy          =    -387.8486734775970604 [Eh]
	-----------------------------------------------------------

  Dipole Moment: [D]
     X:    -1.2040      Y:    -0.7045      Z:     0.3993     Total:     1.4509

*** Psi4 exiting successfully. Buy a developer a beer!
