                               Psi4 1.3.2 release

  ==> Input File <==

--------------------------------------------------------------------------
#psi4
#
memory 32 gb

molecule  {
0 1
  O        2.6932640    -1.3344870    -0.0264310
  C        2.7320377    -0.0199239     0.3893126
  C        1.3606810     0.5764810     0.3953890
  C       -3.5492030     0.3621160    -0.4101590
  C        3.6709050     0.8409920    -0.4958550
  C        0.2704120    -0.1024690    -0.0006590
  C       -2.1631840    -0.2004740    -0.4090490
  C       -1.0635270     0.4697970    -0.0176060
  C       -4.4702810    -0.3835230     0.5583970
  H        3.1361180     0.0688010     1.4404840
  H        1.2279835     1.6096461     0.7193200
  H       -3.5113520     1.4248880    -0.1442750
  H       -3.9713450     0.3050270    -1.4220020
  H        3.3060070     0.7827570    -1.5237190
  H        3.6990520     1.8899320    -0.1870900
  H        4.6948240     0.4527130    -0.4608140
  H        0.3841050    -1.1350190    -0.3229170
  H       -2.0573220    -1.2386810    -0.7303930
  H       -1.1648060     1.5075440     0.3065060
  H       -4.5255200    -1.4457790     0.3033390
  H       -5.4853170     0.0231860     0.5310900
  H       -4.0942820    -0.3029910     1.5815520
  H        3.6028580    -1.6773980    -0.0043180
units angstrom
no_reorient  #important for SAPT in psi4, default
symmetry c1  #important for SAPT in psi4, default
}

set PROPERTIES_ORIGIN ["COM"]
properties('MP2/aug-cc-pvtz', properties = ['dipole'])
--------------------------------------------------------------------------

    Molecular point group: c1
  Charge       = 0
  Multiplicity = 1
  Basis Set: AUG-CC-PVTZ
    Blend: AUG-CC-PVTZ
  Basis Set: (AUG-CC-PVTZ AUX)
    Blend: AUG-CC-PVTZ-JKFIT

    Orbital Energies [Eh]
    ---------------------

    Doubly Occupied:

       1A    -20.564814     2A    -11.288490     3A    -11.225286
       4A    -11.222962     5A    -11.222714     6A    -11.222347
       7A    -11.220236     8A    -11.219546     9A    -11.212551
      10A     -1.381919    11A     -1.097544    12A     -1.059725
      13A     -1.011880    14A     -0.960839    15A     -0.876064
      16A     -0.828513    17A     -0.753330    18A     -0.750982
      19A     -0.699250    20A     -0.643124    21A     -0.626470
      22A     -0.621258    23A     -0.592281    24A     -0.583337
      25A     -0.547265    26A     -0.540932    27A     -0.531994
      28A     -0.518543    29A     -0.502470    30A     -0.490883
      31A     -0.478586    32A     -0.466144    33A     -0.449067
      34A     -0.414696    35A     -0.295963

  @DF-RHF Final Energy:  -386.06052586483656

   => Energetics <=

    Nuclear Repulsion Energy =            418.4957615341413089
    One-Electron Energy =               -1352.8685651908954242
    Two-Electron Energy =                 548.3122777919174951
    Total Energy =                       -386.0605258648365634
  Basis Set: (AUG-CC-PVTZ AUX)
    Blend: AUG-CC-PVTZ-RI
    Molecular point group: c1

    Geometry (in Angstrom), charge = 0, multiplicity = 1:

       Center              X                  Y                   Z               Mass
    ------------   -----------------  -----------------  -----------------  -----------------
         O            2.695354486430    -1.330151661411    -0.024701699892    15.994914619570
         C            2.734128186430    -0.015588561411     0.391041900108    12.000000000000
         C            1.362771486430     0.580816338589     0.397118300108    12.000000000000
         C           -3.547112513570     0.366451338589    -0.408429699892    12.000000000000
         C            3.672995486430     0.845327338589    -0.494125699892    12.000000000000
         C            0.272502486430    -0.098133661411     0.001070300108    12.000000000000
         C           -2.161093513570    -0.196138661411    -0.407319699892    12.000000000000
         C           -1.061436513570     0.474132338589    -0.015876699892    12.000000000000
         C           -4.468190513570    -0.379187661411     0.560126300108    12.000000000000
         H            3.138208486430     0.073136338589     1.442213300108     1.007825032230
         H            1.230073986430     1.613981438589     0.721049300108     1.007825032230
         H           -3.509261513570     1.429223338589    -0.142545699892     1.007825032230
         H           -3.969254513570     0.309362338589    -1.420272699892     1.007825032230
         H            3.308097486430     0.787092338589    -1.521989699892     1.007825032230
         H            3.701142486430     1.894267338589    -0.185360699892     1.007825032230
         H            4.696914486430     0.457048338589    -0.459084699892     1.007825032230
         H            0.386195486430    -1.130683661411    -0.321187699892     1.007825032230
         H           -2.055231513570    -1.234345661411    -0.728663699892     1.007825032230
         H           -1.162715513570     1.511879338589     0.308235300108     1.007825032230
         H           -4.523429513570    -1.441443661411     0.305068300108     1.007825032230
         H           -5.483226513570     0.027521338589     0.532819300108     1.007825032230
         H           -4.092191513570    -0.298655661411     1.583281300108     1.007825032230
         H            3.604948486430    -1.673062661411    -0.002588699892     1.007825032230

  Basis Set: AUG-CC-PVTZ
    Blend: AUG-CC-PVTZ
  Basis Set: (AUG-CC-PVTZ AUX)
    Blend: AUG-CC-PVTZ-JKFIT
	 Reference Energy          =    -386.0605258648365634 [Eh]
	 Singles Energy            =      -0.0000000000000000 [Eh]
	 Same-Spin Energy          =      -0.4003767299731504 [Eh]
	 Opposite-Spin Energy      =      -1.3776175452603465 [Eh]
	 Correlation Energy        =      -1.7779942752334970 [Eh]
	 Total Energy              =    -387.8385201400700453 [Eh]

	 ================> DF-SCS-MP2 Energies <==================
	-----------------------------------------------------------
	 SCS Same-Spin Scale       =       0.3333333333333333 [-]
	 SCS Opposite-Spin Scale   =       1.2000000000000000 [-]
	 SCS Same-Spin Energy      =      -0.1334589099910501 [Eh]
	 SCS Opposite-Spin Energy  =      -1.6531410543124159 [Eh]
	 SCS Correlation Energy    =      -1.7865999643034660 [Eh]
	 SCS Total Energy          =    -387.8471258291400545 [Eh]
	-----------------------------------------------------------

  Dipole Moment: [D]
     X:     1.2186      Y:     0.5613      Z:     0.2766     Total:     1.3699

*** Psi4 exiting successfully. Buy a developer a beer!
