                               Psi4 1.4a3.dev225

  ==> Input File <==

--------------------------------------------------------------------------
#psi4
#
memory 32 gb

molecule  {
0 1
  O       -2.7161510     1.3794200    -0.1343610
  C       -2.7832390     0.0721360     0.4401970
  C       -1.3979030    -0.4954620     0.4743180
  C        3.5083460    -0.4405980    -0.4123350
  C       -3.7239960    -0.8239440    -0.3625680
  C       -0.3030690     0.1219220    -0.0067100
  C        2.1282810     0.1394430    -0.4544070
  C        1.0063212    -0.4603147     0.0232243
  C        4.4606410     0.4027870     0.4416180
  H       -3.1581590     0.1412460     1.4762970
  H       -1.3112260    -1.4900120     0.9147240
  H        3.4619600    -1.4629760    -0.0187660
  H        3.9104550    -0.5133060    -1.4317100
  H       -3.3684670    -0.8811940    -1.3941910
  H       -3.7626400    -1.8335820     0.0574350
  H       -4.7426360    -0.4191700    -0.3608330
  H       -0.4078810     1.1149080    -0.4388390
  H        2.0311270     1.1370710    -0.8883280
  H        1.1170930    -1.4649260     0.4609700
  H        4.5263310     1.4251690     0.0574090
  H        5.4690900    -0.0219830     0.4454750
  H        4.1044230     0.4539160     1.4740500
  H       -3.6221830     1.7324190    -0.1413340
units angstrom
no_reorient  #important for SAPT in psi4, default
symmetry c1  #important for SAPT in psi4, default
}

set PROPERTIES_ORIGIN ["COM"]
properties('MP2/aug-cc-pvtz', properties = ['dipole'])
--------------------------------------------------------------------------

    Molecular point group: c1
  Charge       = 0
  Multiplicity = 1
  Basis Set: AUG-CC-PVTZ
    Blend: AUG-CC-PVTZ
  Basis Set: (AUG-CC-PVTZ AUX)
    Blend: AUG-CC-PVTZ-JKFIT

    Orbital Energies [Eh]
    ---------------------

    Doubly Occupied:

       1A    -20.558941     2A    -11.287156     3A    -11.228056
       4A    -11.224825     5A    -11.224291     6A    -11.224000
       7A    -11.221784     8A    -11.221059     9A    -11.213358
      10A     -1.360272    11A     -1.097844    12A     -1.060557
      13A     -1.016900    14A     -0.960976    15A     -0.877834
      16A     -0.828239    17A     -0.752699    18A     -0.747763
      19A     -0.694980    20A     -0.637041    21A     -0.628206
      22A     -0.616493    23A     -0.588791    24A     -0.583960
      25A     -0.546513    26A     -0.543646    27A     -0.526038
      28A     -0.518221    29A     -0.500338    30A     -0.492169
      31A     -0.478498    32A     -0.470504    33A     -0.453189
      34A     -0.419433    35A     -0.294424

  @DF-RHF Final Energy:  -386.06087822175164

   => Energetics <=

    Nuclear Repulsion Energy =            417.5954447355726984
    One-Electron Energy =               -1351.1146465363531206
    Two-Electron Energy =                 547.4583235790287290
    Total Energy =                       -386.0608782217516364
  Basis Set: (AUG-CC-PVTZ AUX)
    Blend: AUG-CC-PVTZ-RI
    Molecular point group: c1

    Geometry (in Angstrom), charge = 0, multiplicity = 1:

       Center              X                  Y                   Z               Mass
    ------------   -----------------  -----------------  -----------------  -----------------
         O           -2.681104701055     1.362318133546    -0.132655870788    15.994914619570
         C           -2.748192701055     0.055034133546     0.441902129212    12.000000000000
         C           -1.362856701055    -0.512563866454     0.476023129212    12.000000000000
         C            3.543392298945    -0.457699866454    -0.410629870788    12.000000000000
         C           -3.688949701055    -0.841045866454    -0.360862870788    12.000000000000
         C           -0.268022701055     0.104820133546    -0.005004870788    12.000000000000
         C            2.163327298945     0.122341133546    -0.452701870788    12.000000000000
         C            1.041367498945    -0.477416566454     0.024929429212    12.000000000000
         C            4.495687298945     0.385685133546     0.443323129212    12.000000000000
         H           -3.123112701055     0.124144133546     1.478002129212     1.007825032230
         H           -1.276179701055    -1.507113866454     0.916429129212     1.007825032230
         H            3.497006298945    -1.480077866454    -0.017060870788     1.007825032230
         H            3.945501298945    -0.530407866454    -1.430004870788     1.007825032230
         H           -3.333420701055    -0.898295866454    -1.392485870788     1.007825032230
         H           -3.727593701055    -1.850683866454     0.059140129212     1.007825032230
         H           -4.707589701055    -0.436271866454    -0.359127870788     1.007825032230
         H           -0.372834701055     1.097806133546    -0.437133870788     1.007825032230
         H            2.066173298945     1.119969133546    -0.886622870788     1.007825032230
         H            1.152139298945    -1.482027866454     0.462675129212     1.007825032230
         H            4.561377298945     1.408067133546     0.059114129212     1.007825032230
         H            5.504136298945    -0.039084866454     0.447180129212     1.007825032230
         H            4.139469298945     0.436814133546     1.475755129212     1.007825032230
         H           -3.587136701055     1.715317133546    -0.139628870788     1.007825032230

  Basis Set: AUG-CC-PVTZ
    Blend: AUG-CC-PVTZ
  Basis Set: (AUG-CC-PVTZ AUX)
    Blend: AUG-CC-PVTZ-JKFIT
	 Reference Energy          =    -386.0608782217516364 [Eh]
	 Singles Energy            =      -0.0000000000000000 [Eh]
	 Same-Spin Energy          =      -0.4007086737792116 [Eh]
	 Opposite-Spin Energy      =      -1.3790112305965421 [Eh]
	 Correlation Energy        =      -1.7797199043757537 [Eh]
	 Total Energy              =    -387.8405981261274178 [Eh]

	 ================> DF-SCS-MP2 Energies <==================
	-----------------------------------------------------------
	 SCS Same-Spin Scale       =       0.3333333333333333 [-]
	 SCS Opposite-Spin Scale   =       1.2000000000000000 [-]
	 SCS Same-Spin Energy      =      -0.1335695579264038 [Eh]
	 SCS Opposite-Spin Energy  =      -1.6548134767158504 [Eh]
	 SCS Correlation Energy    =      -1.7883830346422542 [Eh]
	 SCS Total Energy          =    -387.8492612563939019 [Eh]
	-----------------------------------------------------------

  Dipole Moment: [D]
     X:    -1.2163      Y:    -0.6832      Z:     0.3928     Total:     1.4492

*** Psi4 exiting successfully. Buy a developer a beer!
