                               Psi4 1.3.2 release

  ==> Input File <==

--------------------------------------------------------------------------
#psi4
#
memory 32 gb

molecule  {
0 1
  O        2.6932640    -1.3344870    -0.0264310
  C        2.7508540     0.0254460     0.4069810
  C        1.3606810     0.5764810     0.3953890
  C       -3.5492030     0.3621160    -0.4101590
  C        3.6709050     0.8409920    -0.4958550
  C        0.2704120    -0.1024690    -0.0006590
  C       -2.1631840    -0.2004740    -0.4090490
  C       -1.0635270     0.4697970    -0.0176060
  C       -4.4702810    -0.3835230     0.5583970
  H        3.1361180     0.0688010     1.4404840
  H        1.2655190     1.6118880     0.7253080
  H       -3.5113520     1.4248880    -0.1442750
  H       -3.9713450     0.3050270    -1.4220020
  H        3.3060070     0.7827570    -1.5237190
  H        3.6990520     1.8899320    -0.1870900
  H        4.6948240     0.4527130    -0.4608140
  H        0.3841050    -1.1350190    -0.3229170
  H       -2.0573220    -1.2386810    -0.7303930
  H       -1.1648060     1.5075440     0.3065060
  H       -4.5255200    -1.4457790     0.3033390
  H       -5.4853170     0.0231860     0.5310900
  H       -4.0942820    -0.3029910     1.5815520
  H        3.4157635    -1.6068646    -0.0088664
units angstrom
no_reorient  #important for SAPT in psi4, default
symmetry c1  #important for SAPT in psi4, default
}

set PROPERTIES_ORIGIN ["COM"]
properties('MP2/aug-cc-pvtz', properties = ['dipole'])
--------------------------------------------------------------------------

    Molecular point group: c1
  Charge       = 0
  Multiplicity = 1
  Basis Set: AUG-CC-PVTZ
    Blend: AUG-CC-PVTZ
  Basis Set: (AUG-CC-PVTZ AUX)
    Blend: AUG-CC-PVTZ-JKFIT

    Orbital Energies [Eh]
    ---------------------

    Doubly Occupied:

       1A    -20.536705     2A    -11.288822     3A    -11.226469
       4A    -11.224269     5A    -11.223663     6A    -11.223463
       7A    -11.222420     8A    -11.221926     9A    -11.213119
      10A     -1.421048    11A     -1.100703    12A     -1.068022
      13A     -1.020171    14A     -0.963218    15A     -0.882352
      16A     -0.834921    17A     -0.767705    18A     -0.752828
      19A     -0.712708    20A     -0.641106    21A     -0.629132
      22A     -0.625051    23A     -0.591862    24A     -0.585063
      25A     -0.551870    26A     -0.544671    27A     -0.529694
      28A     -0.519486    29A     -0.501840    30A     -0.497089
      31A     -0.479807    32A     -0.469488    33A     -0.458891
      34A     -0.419227    35A     -0.298132

  @DF-RHF Final Energy:  -386.01632857246182

   => Energetics <=

    Nuclear Repulsion Energy =            419.4936891747144045
    One-Electron Energy =               -1354.5261536258158230
    Two-Electron Energy =                 549.0161358786396022
    Total Energy =                       -386.0163285724618163
  Basis Set: (AUG-CC-PVTZ AUX)
    Blend: AUG-CC-PVTZ-RI
    Molecular point group: c1

    Geometry (in Angstrom), charge = 0, multiplicity = 1:

       Center              X                  Y                   Z               Mass
    ------------   -----------------  -----------------  -----------------  -----------------
         O            2.694759215708    -1.335050643923    -0.026394515962    15.994914619570
         C            2.752349215708     0.024882356077     0.407017484038    12.000000000000
         C            1.362176215708     0.575917356077     0.395425484038    12.000000000000
         C           -3.547707784292     0.361552356077    -0.410122515962    12.000000000000
         C            3.672400215708     0.840428356077    -0.495818515962    12.000000000000
         C            0.271907215708    -0.103032643923    -0.000622515962    12.000000000000
         C           -2.161688784292    -0.201037643923    -0.409012515962    12.000000000000
         C           -1.062031784292     0.469233356077    -0.017569515962    12.000000000000
         C           -4.468785784292    -0.384086643923     0.558433484038    12.000000000000
         H            3.137613215708     0.068237356077     1.440520484038     1.007825032230
         H            1.267014215708     1.611324356077     0.725344484038     1.007825032230
         H           -3.509856784292     1.424324356077    -0.144238515962     1.007825032230
         H           -3.969849784292     0.304463356077    -1.421965515962     1.007825032230
         H            3.307502215708     0.782193356077    -1.523682515962     1.007825032230
         H            3.700547215708     1.889368356077    -0.187053515962     1.007825032230
         H            4.696319215708     0.452149356077    -0.460777515962     1.007825032230
         H            0.385600215708    -1.135582643923    -0.322880515962     1.007825032230
         H           -2.055826784292    -1.239244643923    -0.730356515962     1.007825032230
         H           -1.163310784292     1.506980356077     0.306542484038     1.007825032230
         H           -4.524024784292    -1.446342643923     0.303375484038     1.007825032230
         H           -5.483821784292     0.022622356077     0.531126484038     1.007825032230
         H           -4.092786784292    -0.303554643923     1.581588484038     1.007825032230
         H            3.417258715708    -1.607428243923    -0.008829915962     1.007825032230

  Basis Set: AUG-CC-PVTZ
    Blend: AUG-CC-PVTZ
  Basis Set: (AUG-CC-PVTZ AUX)
    Blend: AUG-CC-PVTZ-JKFIT
	 Reference Energy          =    -386.0163285724618163 [Eh]
	 Singles Energy            =      -0.0000000000000000 [Eh]
	 Same-Spin Energy          =      -0.3979648230175209 [Eh]
	 Opposite-Spin Energy      =      -1.3726917328163577 [Eh]
	 Correlation Energy        =      -1.7706565558338787 [Eh]
	 Total Energy              =    -387.7869851282956688 [Eh]

	 ================> DF-SCS-MP2 Energies <==================
	-----------------------------------------------------------
	 SCS Same-Spin Scale       =       0.3333333333333333 [-]
	 SCS Opposite-Spin Scale   =       1.2000000000000000 [-]
	 SCS Same-Spin Energy      =      -0.1326549410058403 [Eh]
	 SCS Opposite-Spin Energy  =      -1.6472300793796293 [Eh]
	 SCS Correlation Energy    =      -1.7798850203854695 [Eh]
	 SCS Total Energy          =    -387.7962135928472662 [Eh]
	-----------------------------------------------------------

  Dipole Moment: [D]
     X:     1.0753      Y:     0.8421      Z:     0.3137     Total:     1.4013

*** Psi4 exiting successfully. Buy a developer a beer!
