                               Psi4 1.3.2 release

  ==> Input File <==

--------------------------------------------------------------------------
#psi4
#
memory 32 gb

molecule  {
0 1
  O        2.6932640    -1.3344870    -0.0264310
  C        2.7508540     0.0254460     0.4069810
  C        1.3737978     0.5575098     0.3911080
  C       -3.5492030     0.3621160    -0.4101590
  C        3.6709050     0.8409920    -0.4958550
  C        0.2704120    -0.1024690    -0.0006590
  C       -2.1631840    -0.2004740    -0.4090490
  C       -1.0726046     0.4478177    -0.0263452
  C       -4.4702810    -0.3835230     0.5583970
  H        3.1361180     0.0688010     1.4404840
  H        1.2655190     1.6118880     0.7253080
  H       -3.5113520     1.4248880    -0.1442750
  H       -3.9713450     0.3050270    -1.4220020
  H        3.3060070     0.7827570    -1.5237190
  H        3.6990520     1.8899320    -0.1870900
  H        4.6948240     0.4527130    -0.4608140
  H        0.3841050    -1.1350190    -0.3229170
  H       -2.0573220    -1.2386810    -0.7303930
  H       -1.1648060     1.5075440     0.3065060
  H       -4.5255200    -1.4457790     0.3033390
  H       -5.4853170     0.0231860     0.5310900
  H       -4.0942820    -0.3029910     1.5815520
  H        3.6028580    -1.6773980    -0.0043180
units angstrom
no_reorient  #important for SAPT in psi4, default
symmetry c1  #important for SAPT in psi4, default
}

set PROPERTIES_ORIGIN ["COM"]
properties('MP2/aug-cc-pvtz', properties = ['dipole'])
--------------------------------------------------------------------------

    Molecular point group: c1
  Charge       = 0
  Multiplicity = 1
  Basis Set: AUG-CC-PVTZ
    Blend: AUG-CC-PVTZ
  Basis Set: (AUG-CC-PVTZ AUX)
    Blend: AUG-CC-PVTZ-JKFIT

    Orbital Energies [Eh]
    ---------------------

    Doubly Occupied:

       1A    -20.558635     2A    -11.286260     3A    -11.224503
       4A    -11.224026     5A    -11.223513     6A    -11.222363
       7A    -11.221796     8A    -11.221198     9A    -11.213002
      10A     -1.361231    11A     -1.099746    12A     -1.063388
      13A     -1.017144    14A     -0.964975    15A     -0.878449
      16A     -0.830676    17A     -0.751372    18A     -0.743921
      19A     -0.696274    20A     -0.637547    21A     -0.629636
      22A     -0.617283    23A     -0.591282    24A     -0.581762
      25A     -0.546474    26A     -0.542366    27A     -0.526489
      28A     -0.519264    29A     -0.498684    30A     -0.492017
      31A     -0.479821    32A     -0.466909    33A     -0.453822
      34A     -0.419771    35A     -0.300690

  @DF-RHF Final Energy:  -386.06134673982910

   => Energetics <=

    Nuclear Repulsion Energy =            418.4016315116006695
    One-Electron Energy =               -1352.7133816816731269
    Two-Electron Energy =                 548.2504034302432956
    Total Energy =                       -386.0613467398291050
  Basis Set: (AUG-CC-PVTZ AUX)
    Blend: AUG-CC-PVTZ-RI
    Molecular point group: c1

    Geometry (in Angstrom), charge = 0, multiplicity = 1:

       Center              X                  Y                   Z               Mass
    ------------   -----------------  -----------------  -----------------  -----------------
         O            2.692879592172    -1.330590125211    -0.025191874893    15.994914619570
         C            2.750469592172     0.029342874789     0.408220125107    12.000000000000
         C            1.373413392172     0.561406674789     0.392347125107    12.000000000000
         C           -3.549587407828     0.366012874789    -0.408919874893    12.000000000000
         C            3.670520592172     0.844888874789    -0.494615874893    12.000000000000
         C            0.270027592172    -0.098572125211     0.000580125107    12.000000000000
         C           -2.163568407828    -0.196577125211    -0.407809874893    12.000000000000
         C           -1.072989007828     0.451714574789    -0.025106074893    12.000000000000
         C           -4.470665407828    -0.379626125211     0.559636125107    12.000000000000
         H            3.135733592172     0.072697874789     1.441723125107     1.007825032230
         H            1.265134592172     1.615784874789     0.726547125107     1.007825032230
         H           -3.511736407828     1.428784874789    -0.143035874893     1.007825032230
         H           -3.971729407828     0.308923874789    -1.420762874893     1.007825032230
         H            3.305622592172     0.786653874789    -1.522479874893     1.007825032230
         H            3.698667592172     1.893828874789    -0.185850874893     1.007825032230
         H            4.694439592172     0.456609874789    -0.459574874893     1.007825032230
         H            0.383720592172    -1.131122125211    -0.321677874893     1.007825032230
         H           -2.057706407828    -1.234784125211    -0.729153874893     1.007825032230
         H           -1.165190407828     1.511440874789     0.307745125107     1.007825032230
         H           -4.525904407828    -1.441882125211     0.304578125107     1.007825032230
         H           -5.485701407828     0.027082874789     0.532329125107     1.007825032230
         H           -4.094666407828    -0.299094125211     1.582791125107     1.007825032230
         H            3.602473592172    -1.673501125211    -0.003078874893     1.007825032230

  Basis Set: AUG-CC-PVTZ
    Blend: AUG-CC-PVTZ
  Basis Set: (AUG-CC-PVTZ AUX)
    Blend: AUG-CC-PVTZ-JKFIT
	 Reference Energy          =    -386.0613467398291050 [Eh]
	 Singles Energy            =      -0.0000000000000000 [Eh]
	 Same-Spin Energy          =      -0.4003983242160464 [Eh]
	 Opposite-Spin Energy      =      -1.3781693162995481 [Eh]
	 Correlation Energy        =      -1.7785676405155946 [Eh]
	 Total Energy              =    -387.8399143803446805 [Eh]

	 ================> DF-SCS-MP2 Energies <==================
	-----------------------------------------------------------
	 SCS Same-Spin Scale       =       0.3333333333333333 [-]
	 SCS Opposite-Spin Scale   =       1.2000000000000000 [-]
	 SCS Same-Spin Energy      =      -0.1334661080720154 [Eh]
	 SCS Opposite-Spin Energy  =      -1.6538031795594577 [Eh]
	 SCS Correlation Energy    =      -1.7872692876314731 [Eh]
	 SCS Total Energy          =    -387.8486160274605936 [Eh]
	-----------------------------------------------------------

  Dipole Moment: [D]
     X:     1.2197      Y:     0.7101      Z:     0.3025     Total:     1.4433

*** Psi4 exiting successfully. Buy a developer a beer!
