                               Psi4 1.3.2 release

  ==> Input File <==

--------------------------------------------------------------------------
#psi4
#
memory 32 gb

molecule  {
0 1
  O        2.6932640    -1.3344870    -0.0264310
  C        2.7508540     0.0254460     0.4069810
  C        1.3606810     0.5764810     0.3953890
  C       -3.5492030     0.3621160    -0.4101590
  C        3.6709050     0.8409920    -0.4958550
  C        0.2881778    -0.0583007     0.0166847
  C       -2.1887311    -0.1620301    -0.4002893
  C       -1.0635270     0.4697970    -0.0176060
  C       -4.4702810    -0.3835230     0.5583970
  H        3.1361180     0.0688010     1.4404840
  H        1.2655190     1.6118880     0.7253080
  H       -3.5113520     1.4248880    -0.1442750
  H       -3.9713450     0.3050270    -1.4220020
  H        3.3060070     0.7827570    -1.5237190
  H        3.6990520     1.8899320    -0.1870900
  H        4.6948240     0.4527130    -0.4608140
  H        0.3841050    -1.1350190    -0.3229170
  H       -2.0573220    -1.2386810    -0.7303930
  H       -1.1648060     1.5075440     0.3065060
  H       -4.5255200    -1.4457790     0.3033390
  H       -5.4853170     0.0231860     0.5310900
  H       -4.0942820    -0.3029910     1.5815520
  H        3.6028580    -1.6773980    -0.0043180
units angstrom
no_reorient  #important for SAPT in psi4, default
symmetry c1  #important for SAPT in psi4, default
}

set PROPERTIES_ORIGIN ["COM"]
properties('MP2/aug-cc-pvtz', properties = ['dipole'])
--------------------------------------------------------------------------

    Molecular point group: c1
  Charge       = 0
  Multiplicity = 1
  Basis Set: AUG-CC-PVTZ
    Blend: AUG-CC-PVTZ
  Basis Set: (AUG-CC-PVTZ AUX)
    Blend: AUG-CC-PVTZ-JKFIT

    Orbital Energies [Eh]
    ---------------------

    Doubly Occupied:

       1A    -20.558789     2A    -11.287486     3A    -11.229035
       4A    -11.223269     5A    -11.222613     6A    -11.221221
       7A    -11.221084     8A    -11.217584     9A    -11.214100
      10A     -1.360785    11A     -1.102043    12A     -1.068325
      13A     -1.017256    14A     -0.966459    15A     -0.879381
      16A     -0.833353    17A     -0.750084    18A     -0.741014
      19A     -0.694600    20A     -0.637687    21A     -0.632113
      22A     -0.617272    23A     -0.594846    24A     -0.583683
      25A     -0.546269    26A     -0.541316    27A     -0.524385
      28A     -0.523316    29A     -0.499752    30A     -0.491306
      31A     -0.475040    32A     -0.463191    33A     -0.454397
      34A     -0.421112    35A     -0.303663

  @DF-RHF Final Energy:  -386.05689277949722

   => Energetics <=

    Nuclear Repulsion Energy =            418.5798724943549018
    One-Electron Energy =               -1353.0378709281794727
    Two-Electron Energy =                 548.4011056543272389
    Total Energy =                       -386.0568927794972751
  Basis Set: (AUG-CC-PVTZ AUX)
    Blend: AUG-CC-PVTZ-RI
    Molecular point group: c1

    Geometry (in Angstrom), charge = 0, multiplicity = 1:

       Center              X                  Y                   Z               Mass
    ------------   -----------------  -----------------  -----------------  -----------------
         O            2.694004421495    -1.342348252880    -0.028914845366    15.994914619570
         C            2.751594421495     0.017584747120     0.404497154634    12.000000000000
         C            1.361421421495     0.568619747120     0.392905154634    12.000000000000
         C           -3.548462578505     0.354254747120    -0.412642845366    12.000000000000
         C            3.671645421495     0.833130747120    -0.498338845366    12.000000000000
         C            0.288918221495    -0.066161952880     0.014200854634    12.000000000000
         C           -2.187990678505    -0.169891352880    -0.402773145366    12.000000000000
         C           -1.062786578505     0.461935747120    -0.020089845366    12.000000000000
         C           -4.469540578505    -0.391384252880     0.555913154634    12.000000000000
         H            3.136858421495     0.060939747120     1.438000154634     1.007825032230
         H            1.266259421495     1.604026747120     0.722824154634     1.007825032230
         H           -3.510611578505     1.417026747120    -0.146758845366     1.007825032230
         H           -3.970604578505     0.297165747120    -1.424485845366     1.007825032230
         H            3.306747421495     0.774895747120    -1.526202845366     1.007825032230
         H            3.699792421495     1.882070747120    -0.189573845366     1.007825032230
         H            4.695564421495     0.444851747120    -0.463297845366     1.007825032230
         H            0.384845421495    -1.142880252880    -0.325400845366     1.007825032230
         H           -2.056581578505    -1.246542252880    -0.732876845366     1.007825032230
         H           -1.164065578505     1.499682747120     0.304022154634     1.007825032230
         H           -4.524779578505    -1.453640252880     0.300855154634     1.007825032230
         H           -5.484576578505     0.015324747120     0.528606154634     1.007825032230
         H           -4.093541578505    -0.310852252880     1.579068154634     1.007825032230
         H            3.603598421495    -1.685259252880    -0.006801845366     1.007825032230

  Basis Set: AUG-CC-PVTZ
    Blend: AUG-CC-PVTZ
  Basis Set: (AUG-CC-PVTZ AUX)
    Blend: AUG-CC-PVTZ-JKFIT
	 Reference Energy          =    -386.0568927794972183 [Eh]
	 Singles Energy            =      -0.0000000000000000 [Eh]
	 Same-Spin Energy          =      -0.4005672305875222 [Eh]
	 Opposite-Spin Energy      =      -1.3781414564680801 [Eh]
	 Correlation Energy        =      -1.7787086870556021 [Eh]
	 Total Energy              =    -387.8356014665528164 [Eh]

	 ================> DF-SCS-MP2 Energies <==================
	-----------------------------------------------------------
	 SCS Same-Spin Scale       =       0.3333333333333333 [-]
	 SCS Opposite-Spin Scale   =       1.2000000000000000 [-]
	 SCS Same-Spin Energy      =      -0.1335224101958407 [Eh]
	 SCS Opposite-Spin Energy  =      -1.6537697477616959 [Eh]
	 SCS Correlation Energy    =      -1.7872921579575367 [Eh]
	 SCS Total Energy          =    -387.8441849374547701 [Eh]
	-----------------------------------------------------------

  Dipole Moment: [D]
     X:     1.1736      Y:     0.7560      Z:     0.3181     Total:     1.4318

*** Psi4 exiting successfully. Buy a developer a beer!
