                               Psi4 1.3.2 release

  ==> Input File <==

--------------------------------------------------------------------------
#psi4
#
memory 32 gb

molecule  {
0 1
  O        2.6932640    -1.3344870    -0.0264310
  C        2.7508540     0.0254460     0.4069810
  C        1.3606810     0.5764810     0.3953890
  C       -3.5492030     0.3621160    -0.4101590
  C        3.6860550     0.8468244    -0.4747552
  C        0.2704120    -0.1024690    -0.0006590
  C       -2.1631840    -0.2004740    -0.4090490
  C       -1.0635270     0.4697970    -0.0176060
  C       -4.4702810    -0.3835230     0.5583970
  H        3.1506277     0.0799342     1.4344286
  H        1.2655190     1.6118880     0.7253080
  H       -3.5113520     1.4248880    -0.1442750
  H       -3.9713450     0.3050270    -1.4220020
  H        3.3060070     0.7827570    -1.5237190
  H        3.6990520     1.8899320    -0.1870900
  H        4.6948240     0.4527130    -0.4608140
  H        0.3841050    -1.1350190    -0.3229170
  H       -2.0573220    -1.2386810    -0.7303930
  H       -1.1648060     1.5075440     0.3065060
  H       -4.5255200    -1.4457790     0.3033390
  H       -5.4853170     0.0231860     0.5310900
  H       -4.0942820    -0.3029910     1.5815520
  H        3.6028580    -1.6773980    -0.0043180
units angstrom
no_reorient  #important for SAPT in psi4, default
symmetry c1  #important for SAPT in psi4, default
}

set PROPERTIES_ORIGIN ["COM"]
properties('MP2/aug-cc-pvtz', properties = ['dipole'])
--------------------------------------------------------------------------

    Molecular point group: c1
  Charge       = 0
  Multiplicity = 1
  Basis Set: AUG-CC-PVTZ
    Blend: AUG-CC-PVTZ
  Basis Set: (AUG-CC-PVTZ AUX)
    Blend: AUG-CC-PVTZ-JKFIT

    Orbital Energies [Eh]
    ---------------------

    Doubly Occupied:

       1A    -20.559436     2A    -11.286601     3A    -11.226055
       4A    -11.223868     5A    -11.223339     6A    -11.223116
       7A    -11.222015     8A    -11.220300     9A    -11.212853
      10A     -1.360837    11A     -1.097926    12A     -1.061359
      13A     -1.016441    14A     -0.962792    15A     -0.876511
      16A     -0.828387    17A     -0.752492    18A     -0.748208
      19A     -0.695320    20A     -0.638052    21A     -0.628205
      22A     -0.617276    23A     -0.591152    24A     -0.582954
      25A     -0.548145    26A     -0.538451    27A     -0.528685
      28A     -0.518447    29A     -0.500883    30A     -0.493123
      31A     -0.479296    32A     -0.468686    33A     -0.451864
      34A     -0.417994    35A     -0.297562

  @DF-RHF Final Energy:  -386.06166239596763

   => Energetics <=

    Nuclear Repulsion Energy =            417.8852374612819176
    One-Electron Energy =               -1351.6965356421799243
    Two-Electron Energy =                 547.7496357849303195
    Total Energy =                       -386.0616623959676872
  Basis Set: (AUG-CC-PVTZ AUX)
    Blend: AUG-CC-PVTZ-RI
    Molecular point group: c1

    Geometry (in Angstrom), charge = 0, multiplicity = 1:

       Center              X                  Y                   Z               Mass
    ------------   -----------------  -----------------  -----------------  -----------------
         O            2.691706336025    -1.335130924914    -0.028390312126    15.994914619570
         C            2.749296336025     0.024802075086     0.405021687874    12.000000000000
         C            1.359123336025     0.575837075086     0.393429687874    12.000000000000
         C           -3.550760663975     0.361472075086    -0.412118312126    12.000000000000
         C            3.684497336025     0.846180475086    -0.476714512126    12.000000000000
         C            0.268854336025    -0.103112924914    -0.002618312126    12.000000000000
         C           -2.164741663975    -0.201117924914    -0.411008312126    12.000000000000
         C           -1.065084663975     0.469153075086    -0.019565312126    12.000000000000
         C           -4.471838663975    -0.384166924914     0.556437687874    12.000000000000
         H            3.149070036025     0.079290275086     1.432469287874     1.007825032230
         H            1.263961336025     1.611244075086     0.723348687874     1.007825032230
         H           -3.512909663975     1.424244075086    -0.146234312126     1.007825032230
         H           -3.972902663975     0.304383075086    -1.423961312126     1.007825032230
         H            3.304449336025     0.782113075086    -1.525678312126     1.007825032230
         H            3.697494336025     1.889288075086    -0.189049312126     1.007825032230
         H            4.693266336025     0.452069075086    -0.462773312126     1.007825032230
         H            0.382547336025    -1.135662924914    -0.324876312126     1.007825032230
         H           -2.058879663975    -1.239324924914    -0.732352312126     1.007825032230
         H           -1.166363663975     1.506900075086     0.304546687874     1.007825032230
         H           -4.527077663975    -1.446422924914     0.301379687874     1.007825032230
         H           -5.486874663975     0.022542075086     0.529130687874     1.007825032230
         H           -4.095839663975    -0.303634924914     1.579592687874     1.007825032230
         H            3.601300336025    -1.678041924914    -0.006277312126     1.007825032230

  Basis Set: AUG-CC-PVTZ
    Blend: AUG-CC-PVTZ
  Basis Set: (AUG-CC-PVTZ AUX)
    Blend: AUG-CC-PVTZ-JKFIT
	 Reference Energy          =    -386.0616623959676303 [Eh]
	 Singles Energy            =      -0.0000000000000000 [Eh]
	 Same-Spin Energy          =      -0.4003808390594942 [Eh]
	 Opposite-Spin Energy      =      -1.3783731702288478 [Eh]
	 Correlation Energy        =      -1.7787540092883420 [Eh]
	 Total Energy              =    -387.8404164052559508 [Eh]

	 ================> DF-SCS-MP2 Energies <==================
	-----------------------------------------------------------
	 SCS Same-Spin Scale       =       0.3333333333333333 [-]
	 SCS Opposite-Spin Scale   =       1.2000000000000000 [-]
	 SCS Same-Spin Energy      =      -0.1334602796864981 [Eh]
	 SCS Opposite-Spin Energy  =      -1.6540478042746172 [Eh]
	 SCS Correlation Energy    =      -1.7875080839611153 [Eh]
	 SCS Total Energy          =    -387.8491704799287731 [Eh]
	-----------------------------------------------------------

  Dipole Moment: [D]
     X:     1.2049      Y:     0.7245      Z:     0.3158     Total:     1.4410

*** Psi4 exiting successfully. Buy a developer a beer!
