                               Psi4 1.3.2 release

  ==> Input File <==

--------------------------------------------------------------------------
#psi4
#
memory 32 gb

molecule  {
0 1
  O        2.6932640    -1.3344870    -0.0264310
  C        2.7508540     0.0254460     0.4069810
  C        1.3606810     0.5764810     0.3953890
  C       -3.5537828     0.3506732    -0.4144587
  C        3.6709050     0.8409920    -0.4958550
  C        0.2704120    -0.1024690    -0.0006590
  C       -2.1631840    -0.2004740    -0.4090490
  C       -1.0635270     0.4697970    -0.0176060
  C       -4.4702810    -0.3835230     0.5583970
  H        3.1361180     0.0688010     1.4404840
  H        1.2655190     1.6118880     0.7253080
  H       -3.5113520     1.4248880    -0.1442750
  H       -3.9713450     0.3050270    -1.4220020
  H        3.3060070     0.7827570    -1.5237190
  H        3.6990520     1.8899320    -0.1870900
  H        4.6948240     0.4527130    -0.4608140
  H        0.3841050    -1.1350190    -0.3229170
  H       -2.0667355    -1.2391645    -0.7317907
  H       -1.1648060     1.5075440     0.3065060
  H       -4.5255200    -1.4457790     0.3033390
  H       -5.4853170     0.0231860     0.5310900
  H       -4.0942820    -0.3029910     1.5815520
  H        3.6028580    -1.6773980    -0.0043180
units angstrom
no_reorient  #important for SAPT in psi4, default
symmetry c1  #important for SAPT in psi4, default
}

set PROPERTIES_ORIGIN ["COM"]
properties('MP2/aug-cc-pvtz', properties = ['dipole'])
--------------------------------------------------------------------------

    Molecular point group: c1
  Charge       = 0
  Multiplicity = 1
  Basis Set: AUG-CC-PVTZ
    Blend: AUG-CC-PVTZ
  Basis Set: (AUG-CC-PVTZ AUX)
    Blend: AUG-CC-PVTZ-JKFIT

    Orbital Energies [Eh]
    ---------------------

    Doubly Occupied:

       1A    -20.558724     2A    -11.286533     3A    -11.226015
       4A    -11.223856     5A    -11.223350     6A    -11.223186
       7A    -11.221865     8A    -11.220591     9A    -11.212611
      10A     -1.360625    11A     -1.097867    12A     -1.061590
      13A     -1.016538    14A     -0.962752    15A     -0.876734
      16A     -0.828449    17A     -0.751941    18A     -0.748125
      19A     -0.695326    20A     -0.637230    21A     -0.628499
      22A     -0.616731    23A     -0.590021    24A     -0.582983
      25A     -0.546593    26A     -0.543997    27A     -0.527473
      28A     -0.520673    29A     -0.500961    30A     -0.492416
      31A     -0.475847    32A     -0.467676    33A     -0.453039
      34A     -0.418643    35A     -0.297756

  @DF-RHF Final Energy:  -386.06228212870781

   => Energetics <=

    Nuclear Repulsion Energy =            417.9987261509780296
    One-Electron Energy =               -1351.9275786339699152
    Two-Electron Energy =                 547.8665703542841356
    Total Energy =                       -386.0622821287078068
  Basis Set: (AUG-CC-PVTZ AUX)
    Blend: AUG-CC-PVTZ-RI
    Molecular point group: c1

    Geometry (in Angstrom), charge = 0, multiplicity = 1:

       Center              X                  Y                   Z               Mass
    ------------   -----------------  -----------------  -----------------  -----------------
         O            2.693775001870    -1.333394190209    -0.026010540298    15.994914619570
         C            2.751365001870     0.026538809791     0.407401459702    12.000000000000
         C            1.361192001870     0.577573809791     0.395809459702    12.000000000000
         C           -3.553271798130     0.351766009791    -0.414038240298    12.000000000000
         C            3.671416001870     0.842084809791    -0.495434540298    12.000000000000
         C            0.270923001870    -0.101376190209    -0.000238540298    12.000000000000
         C           -2.162672998130    -0.199381190209    -0.408628540298    12.000000000000
         C           -1.063015998130     0.470889809791    -0.017185540298    12.000000000000
         C           -4.469769998130    -0.382430190209     0.558817459702    12.000000000000
         H            3.136629001870     0.069893809791     1.440904459702     1.007825032230
         H            1.266030001870     1.612980809791     0.725728459702     1.007825032230
         H           -3.510840998130     1.425980809791    -0.143854540298     1.007825032230
         H           -3.970833998130     0.306119809791    -1.421581540298     1.007825032230
         H            3.306518001870     0.783849809791    -1.523298540298     1.007825032230
         H            3.699563001870     1.891024809791    -0.186669540298     1.007825032230
         H            4.695335001870     0.453805809791    -0.460393540298     1.007825032230
         H            0.384616001870    -1.133926190209    -0.322496540298     1.007825032230
         H           -2.066224498130    -1.238071690209    -0.731370240298     1.007825032230
         H           -1.164294998130     1.508636809791     0.306926459702     1.007825032230
         H           -4.525008998130    -1.444686190209     0.303759459702     1.007825032230
         H           -5.484805998130     0.024278809791     0.531510459702     1.007825032230
         H           -4.093770998130    -0.301898190209     1.581972459702     1.007825032230
         H            3.603369001870    -1.676305190209    -0.003897540298     1.007825032230

  Basis Set: AUG-CC-PVTZ
    Blend: AUG-CC-PVTZ
  Basis Set: (AUG-CC-PVTZ AUX)
    Blend: AUG-CC-PVTZ-JKFIT
	 Reference Energy          =    -386.0622821287078068 [Eh]
	 Singles Energy            =      -0.0000000000000000 [Eh]
	 Same-Spin Energy          =      -0.4003712160192094 [Eh]
	 Opposite-Spin Energy      =      -1.3783797068975070 [Eh]
	 Correlation Energy        =      -1.7787509229167164 [Eh]
	 Total Energy              =    -387.8410330516245494 [Eh]

	 ================> DF-SCS-MP2 Energies <==================
	-----------------------------------------------------------
	 SCS Same-Spin Scale       =       0.3333333333333333 [-]
	 SCS Opposite-Spin Scale   =       1.2000000000000000 [-]
	 SCS Same-Spin Energy      =      -0.1334570720064031 [Eh]
	 SCS Opposite-Spin Energy  =      -1.6540556482770084 [Eh]
	 SCS Correlation Energy    =      -1.7875127202834116 [Eh]
	 SCS Total Energy          =    -387.8497948489912233 [Eh]
	-----------------------------------------------------------

  Dipole Moment: [D]
     X:     1.2102      Y:     0.7231      Z:     0.3080     Total:     1.4430

*** Psi4 exiting successfully. Buy a developer a beer!
