                               Psi4 1.3.2 release

  ==> Input File <==

--------------------------------------------------------------------------
#psi4
#
memory 32 gb

molecule  {
0 1
  O        2.6932640    -1.3344870    -0.0264310
  C        2.7508540     0.0254460     0.4069810
  C        1.3606810     0.5764810     0.3953890
  C       -3.5492030     0.3621160    -0.4101590
  C        3.6709050     0.8409920    -0.4958550
  C        0.2794994    -0.0804687     0.0080167
  C       -2.1761270    -0.1813512    -0.4047281
  C       -1.0635270     0.4697970    -0.0176060
  C       -4.4702810    -0.3835230     0.5583970
  H        3.1361180     0.0688010     1.4404840
  H        1.2655190     1.6118880     0.7253080
  H       -3.5113520     1.4248880    -0.1442750
  H       -3.9713450     0.3050270    -1.4220020
  H        3.3060070     0.7827570    -1.5237190
  H        3.6990520     1.8899320    -0.1870900
  H        4.6948240     0.4527130    -0.4608140
  H        0.3841050    -1.1350190    -0.3229170
  H       -2.0573220    -1.2386810    -0.7303930
  H       -1.1648060     1.5075440     0.3065060
  H       -4.5255200    -1.4457790     0.3033390
  H       -5.4853170     0.0231860     0.5310900
  H       -4.0942820    -0.3029910     1.5815520
  H        3.6028580    -1.6773980    -0.0043180
units angstrom
no_reorient  #important for SAPT in psi4, default
symmetry c1  #important for SAPT in psi4, default
}

set PROPERTIES_ORIGIN ["COM"]
properties('MP2/aug-cc-pvtz', properties = ['dipole'])
--------------------------------------------------------------------------

    Molecular point group: c1
  Charge       = 0
  Multiplicity = 1
  Basis Set: AUG-CC-PVTZ
    Blend: AUG-CC-PVTZ
  Basis Set: (AUG-CC-PVTZ AUX)
    Blend: AUG-CC-PVTZ-JKFIT

    Orbital Energies [Eh]
    ---------------------

    Doubly Occupied:

       1A    -20.558741     2A    -11.286965     3A    -11.227352
       4A    -11.223221     5A    -11.222887     6A    -11.222029
       7A    -11.220811     8A    -11.219806     9A    -11.213427
      10A     -1.360690    11A     -1.099785    12A     -1.064682
      13A     -1.016688    14A     -0.964460    15A     -0.877911
      16A     -0.830908    17A     -0.750906    18A     -0.744563
      19A     -0.694973    20A     -0.637003    21A     -0.630444
      22A     -0.617005    23A     -0.591881    24A     -0.583629
      25A     -0.546245    26A     -0.542400    27A     -0.525864
      28A     -0.520931    29A     -0.499080    30A     -0.492022
      31A     -0.477013    32A     -0.467485    33A     -0.453640
      34A     -0.419588    35A     -0.300588

  @DF-RHF Final Energy:  -386.06139079649682

   => Energetics <=

    Nuclear Repulsion Energy =            418.2859567138211219
    One-Electron Energy =               -1352.4834496049761583
    Two-Electron Energy =                 548.1361020946580993
    Total Energy =                       -386.0613907964968803
  Basis Set: (AUG-CC-PVTZ AUX)
    Blend: AUG-CC-PVTZ-RI
    Molecular point group: c1

    Geometry (in Angstrom), charge = 0, multiplicity = 1:

       Center              X                  Y                   Z               Mass
    ------------   -----------------  -----------------  -----------------  -----------------
         O            2.693630855024    -1.338400183320    -0.027667612765    15.994914619570
         C            2.751220855024     0.021532816680     0.405744387235    12.000000000000
         C            1.361047855024     0.572567816680     0.394152387235    12.000000000000
         C           -3.548836144976     0.358202816680    -0.411395612765    12.000000000000
         C            3.671271855024     0.837078816680    -0.497091612765    12.000000000000
         C            0.279866255024    -0.084381883320     0.006780087235    12.000000000000
         C           -2.175760144976    -0.185264383320    -0.405964712765    12.000000000000
         C           -1.063160144976     0.465883816680    -0.018842612765    12.000000000000
         C           -4.469914144976    -0.387436183320     0.557160387235    12.000000000000
         H            3.136484855024     0.064887816680     1.439247387235     1.007825032230
         H            1.265885855024     1.607974816680     0.724071387235     1.007825032230
         H           -3.510985144976     1.420974816680    -0.145511612765     1.007825032230
         H           -3.970978144976     0.301113816680    -1.423238612765     1.007825032230
         H            3.306373855024     0.778843816680    -1.524955612765     1.007825032230
         H            3.699418855024     1.886018816680    -0.188326612765     1.007825032230
         H            4.695190855024     0.448799816680    -0.462050612765     1.007825032230
         H            0.384471855024    -1.138932183320    -0.324153612765     1.007825032230
         H           -2.056955144976    -1.242594183320    -0.731629612765     1.007825032230
         H           -1.164439144976     1.503630816680     0.305269387235     1.007825032230
         H           -4.525153144976    -1.449692183320     0.302102387235     1.007825032230
         H           -5.484950144976     0.019272816680     0.529853387235     1.007825032230
         H           -4.093915144976    -0.306904183320     1.580315387235     1.007825032230
         H            3.603224855024    -1.681311183320    -0.005554612765     1.007825032230

  Basis Set: AUG-CC-PVTZ
    Blend: AUG-CC-PVTZ
  Basis Set: (AUG-CC-PVTZ AUX)
    Blend: AUG-CC-PVTZ-JKFIT
	 Reference Energy          =    -386.0613907964968234 [Eh]
	 Singles Energy            =      -0.0000000000000000 [Eh]
	 Same-Spin Energy          =      -0.4004121075348219 [Eh]
	 Opposite-Spin Energy      =      -1.3781333717840583 [Eh]
	 Correlation Energy        =      -1.7785454793188802 [Eh]
	 Total Energy              =    -387.8399362758157167 [Eh]

	 ================> DF-SCS-MP2 Energies <==================
	-----------------------------------------------------------
	 SCS Same-Spin Scale       =       0.3333333333333333 [-]
	 SCS Opposite-Spin Scale   =       1.2000000000000000 [-]
	 SCS Same-Spin Energy      =      -0.1334707025116073 [Eh]
	 SCS Opposite-Spin Energy  =      -1.6537600461408699 [Eh]
	 SCS Correlation Energy    =      -1.7872307486524772 [Eh]
	 SCS Total Energy          =    -387.8486215451492853 [Eh]
	-----------------------------------------------------------

  Dipole Moment: [D]
     X:     1.1903      Y:     0.7403      Z:     0.3131     Total:     1.4363

*** Psi4 exiting successfully. Buy a developer a beer!
