                               Psi4 1.4a3.dev225

  ==> Input File <==

--------------------------------------------------------------------------
#psi4
#
memory 32 gb

molecule  {
0 1
  O       -2.7161510     1.3794200    -0.1343610
  C       -2.7832390     0.0721360     0.4401970
  C       -1.3979030    -0.4954620     0.4743180
  C        3.5083460    -0.4405980    -0.4123350
  C       -3.7239960    -0.8239440    -0.3625680
  C       -0.3030690     0.1219220    -0.0067100
  C        2.1282810     0.1394430    -0.4544070
  C        1.0245920    -0.4684390     0.0236420
  C        4.4606410     0.4027870     0.4416180
  H       -3.1581590     0.1412460     1.4762970
  H       -1.3112260    -1.4900120     0.9147240
  H        3.4619600    -1.4629760    -0.0187660
  H        3.9104550    -0.5133060    -1.4317100
  H       -3.3684670    -0.8811940    -1.3941910
  H       -3.7626400    -1.8335820     0.0574350
  H       -4.7426360    -0.4191700    -0.3608330
  H       -0.4078810     1.1149080    -0.4388390
  H        2.0311270     1.1370710    -0.8883280
  H        1.1213278    -1.5105463     0.4809914
  H        4.5263310     1.4251690     0.0574090
  H        5.4690900    -0.0219830     0.4454750
  H        4.1044230     0.4539160     1.4740500
  H       -3.6221830     1.7324190    -0.1413340
units angstrom
no_reorient  #important for SAPT in psi4, default
symmetry c1  #important for SAPT in psi4, default
}

set PROPERTIES_ORIGIN ["COM"]
properties('MP2/aug-cc-pvtz', properties = ['dipole'])
--------------------------------------------------------------------------

    Molecular point group: c1
  Charge       = 0
  Multiplicity = 1
  Basis Set: AUG-CC-PVTZ
    Blend: AUG-CC-PVTZ
  Basis Set: (AUG-CC-PVTZ AUX)
    Blend: AUG-CC-PVTZ-JKFIT

    Orbital Energies [Eh]
    ---------------------

    Doubly Occupied:

       1A    -20.558966     2A    -11.287166     3A    -11.230159
       4A    -11.226527     5A    -11.224544     6A    -11.223659
       7A    -11.222904     8A    -11.221048     9A    -11.213114
      10A     -1.360295    11A     -1.096415    12A     -1.060737
      13A     -1.015313    14A     -0.961840    15A     -0.876309
      16A     -0.828197    17A     -0.750807    18A     -0.744742
      19A     -0.693958    20A     -0.636355    21A     -0.627403
      22A     -0.616317    23A     -0.588363    24A     -0.581988
      25A     -0.546482    26A     -0.543359    27A     -0.525492
      28A     -0.518360    29A     -0.500212    30A     -0.491305
      31A     -0.479115    32A     -0.467193    33A     -0.453000
      34A     -0.418247    35A     -0.297598

  @DF-RHF Final Energy:  -386.05993357390406

   => Energetics <=

    Nuclear Repulsion Energy =            417.2763958266218651
    One-Electron Energy =               -1350.4976766710317406
    Two-Electron Energy =                 547.1613472705058712
    Total Energy =                       -386.0599335739040043
  Basis Set: (AUG-CC-PVTZ AUX)
    Blend: AUG-CC-PVTZ-RI
    Molecular point group: c1

    Geometry (in Angstrom), charge = 0, multiplicity = 1:

       Center              X                  Y                   Z               Mass
    ------------   -----------------  -----------------  -----------------  -----------------
         O           -2.682877180224     1.363455832201    -0.132855629520    15.994914619570
         C           -2.749965180224     0.056171832201     0.441702370480    12.000000000000
         C           -1.364629180224    -0.511426167799     0.475823370480    12.000000000000
         C            3.541619819776    -0.456562167799    -0.410829629520    12.000000000000
         C           -3.690722180224    -0.839908167799    -0.361062629520    12.000000000000
         C           -0.269795180224     0.105957832201    -0.005204629520    12.000000000000
         C            2.161554819776     0.123478832201    -0.452901629520    12.000000000000
         C            1.057865819776    -0.484403167799     0.025147370480    12.000000000000
         C            4.493914819776     0.386822832201     0.443123370480    12.000000000000
         H           -3.124885180224     0.125281832201     1.477802370480     1.007825032230
         H           -1.277952180224    -1.505976167799     0.916229370480     1.007825032230
         H            3.495233819776    -1.478940167799    -0.017260629520     1.007825032230
         H            3.943728819776    -0.529270167799    -1.430204629520     1.007825032230
         H           -3.335193180224    -0.897158167799    -1.392685629520     1.007825032230
         H           -3.729366180224    -1.849546167799     0.058940370480     1.007825032230
         H           -4.709362180224    -0.435134167799    -0.359327629520     1.007825032230
         H           -0.374607180224     1.098943832201    -0.437333629520     1.007825032230
         H            2.064400819776     1.121106832201    -0.886822629520     1.007825032230
         H            1.154601619776    -1.526510467799     0.482496770480     1.007825032230
         H            4.559604819776     1.409204832201     0.058914370480     1.007825032230
         H            5.502363819776    -0.037947167799     0.446980370480     1.007825032230
         H            4.137696819776     0.437951832201     1.475555370480     1.007825032230
         H           -3.588909180224     1.716454832201    -0.139828629520     1.007825032230

  Basis Set: AUG-CC-PVTZ
    Blend: AUG-CC-PVTZ
  Basis Set: (AUG-CC-PVTZ AUX)
    Blend: AUG-CC-PVTZ-JKFIT
	 Reference Energy          =    -386.0599335739040612 [Eh]
	 Singles Energy            =      -0.0000000000000000 [Eh]
	 Same-Spin Energy          =      -0.4004054995246757 [Eh]
	 Opposite-Spin Energy      =      -1.3788385777006771 [Eh]
	 Correlation Energy        =      -1.7792440772253528 [Eh]
	 Total Energy              =    -387.8391776511294324 [Eh]

	 ================> DF-SCS-MP2 Energies <==================
	-----------------------------------------------------------
	 SCS Same-Spin Scale       =       0.3333333333333333 [-]
	 SCS Opposite-Spin Scale   =       1.2000000000000000 [-]
	 SCS Same-Spin Energy      =      -0.1334684998415586 [Eh]
	 SCS Opposite-Spin Energy  =      -1.6546062932408125 [Eh]
	 SCS Correlation Energy    =      -1.7880747930823711 [Eh]
	 SCS Total Energy          =    -387.8480083669864484 [Eh]
	-----------------------------------------------------------

  Dipole Moment: [D]
     X:    -1.2231      Y:    -0.6624      Z:     0.3823     Total:     1.4425

*** Psi4 exiting successfully. Buy a developer a beer!
