                               Psi4 1.3.2 release

  ==> Input File <==

--------------------------------------------------------------------------
#psi4
#
memory 32 gb

molecule  {
0 1
  O        2.6932640    -1.3344870    -0.0264310
  C        2.7508540     0.0254460     0.4069810
  C        1.3606810     0.5764810     0.3953890
  C       -3.5492030     0.3621160    -0.4101590
  C        3.6785153     0.8439394    -0.4853391
  C        0.2704120    -0.1024690    -0.0006590
  C       -2.1631840    -0.2004740    -0.4090490
  C       -1.0635270     0.4697970    -0.0176060
  C       -4.4702810    -0.3835230     0.5583970
  H        3.1433878     0.0743695     1.4374955
  H        1.2655190     1.6118880     0.7253080
  H       -3.5113520     1.4248880    -0.1442750
  H       -3.9713450     0.3050270    -1.4220020
  H        3.3060070     0.7827570    -1.5237190
  H        3.6990520     1.8899320    -0.1870900
  H        4.6948240     0.4527130    -0.4608140
  H        0.3841050    -1.1350190    -0.3229170
  H       -2.0573220    -1.2386810    -0.7303930
  H       -1.1648060     1.5075440     0.3065060
  H       -4.5255200    -1.4457790     0.3033390
  H       -5.4853170     0.0231860     0.5310900
  H       -4.0942820    -0.3029910     1.5815520
  H        3.6028580    -1.6773980    -0.0043180
units angstrom
no_reorient  #important for SAPT in psi4, default
symmetry c1  #important for SAPT in psi4, default
}

set PROPERTIES_ORIGIN ["COM"]
properties('MP2/aug-cc-pvtz', properties = ['dipole'])
--------------------------------------------------------------------------

    Molecular point group: c1
  Charge       = 0
  Multiplicity = 1
  Basis Set: AUG-CC-PVTZ
    Blend: AUG-CC-PVTZ
  Basis Set: (AUG-CC-PVTZ AUX)
    Blend: AUG-CC-PVTZ-JKFIT

    Orbital Energies [Eh]
    ---------------------

    Doubly Occupied:

       1A    -20.559056     2A    -11.286520     3A    -11.225979
       4A    -11.223743     5A    -11.223284     6A    -11.223042
       7A    -11.221873     8A    -11.220387     9A    -11.212822
      10A     -1.360704    11A     -1.097875    12A     -1.061328
      13A     -1.016273    14A     -0.962616    15A     -0.876540
      16A     -0.828454    17A     -0.752445    18A     -0.748124
      19A     -0.695267    20A     -0.637667    21A     -0.628099
      22A     -0.617004    23A     -0.590548    24A     -0.582865
      25A     -0.546745    26A     -0.541359    27A     -0.528244
      28A     -0.518626    29A     -0.500773    30A     -0.492793
      31A     -0.479207    32A     -0.468323    33A     -0.452457
      34A     -0.418145    35A     -0.297512

  @DF-RHF Final Energy:  -386.06234108152950

   => Energetics <=

    Nuclear Repulsion Energy =            417.9416969207873080
    One-Electron Energy =               -1351.8146797496310683
    Two-Electron Energy =                 547.8106417473142074
    Total Energy =                       -386.0623410815295529
  Basis Set: (AUG-CC-PVTZ AUX)
    Blend: AUG-CC-PVTZ-RI
    Molecular point group: c1

    Geometry (in Angstrom), charge = 0, multiplicity = 1:

       Center              X                  Y                   Z               Mass
    ------------   -----------------  -----------------  -----------------  -----------------
         O            2.692481669019    -1.334811917622    -0.027407667290    15.994914619570
         C            2.750071669019     0.025121082378     0.406004332710    12.000000000000
         C            1.359898669019     0.576156082378     0.394412332710    12.000000000000
         C           -3.549985330981     0.361791082378    -0.411135667290    12.000000000000
         C            3.677732969019     0.843614482378    -0.486315767290    12.000000000000
         C            0.269629669019    -0.102793917622    -0.001635667290    12.000000000000
         C           -2.163966330981    -0.200798917622    -0.410025667290    12.000000000000
         C           -1.064309330981     0.469472082378    -0.018582667290    12.000000000000
         C           -4.471063330981    -0.383847917622     0.557420332710    12.000000000000
         H            3.142605469019     0.074044582378     1.436518832710     1.007825032230
         H            1.264736669019     1.611563082378     0.724331332710     1.007825032230
         H           -3.512134330981     1.424563082378    -0.145251667290     1.007825032230
         H           -3.972127330981     0.304702082378    -1.422978667290     1.007825032230
         H            3.305224669019     0.782432082378    -1.524695667290     1.007825032230
         H            3.698269669019     1.889607082378    -0.188066667290     1.007825032230
         H            4.694041669019     0.452388082378    -0.461790667290     1.007825032230
         H            0.383322669019    -1.135343917622    -0.323893667290     1.007825032230
         H           -2.058104330981    -1.239005917622    -0.731369667290     1.007825032230
         H           -1.165588330981     1.507219082378     0.305529332710     1.007825032230
         H           -4.526302330981    -1.446103917622     0.302362332710     1.007825032230
         H           -5.486099330981     0.022861082378     0.530113332710     1.007825032230
         H           -4.095064330981    -0.303315917622     1.580575332710     1.007825032230
         H            3.602075669019    -1.677722917622    -0.005294667290     1.007825032230

  Basis Set: AUG-CC-PVTZ
    Blend: AUG-CC-PVTZ
  Basis Set: (AUG-CC-PVTZ AUX)
    Blend: AUG-CC-PVTZ-JKFIT
	 Reference Energy          =    -386.0623410815294960 [Eh]
	 Singles Energy            =      -0.0000000000000000 [Eh]
	 Same-Spin Energy          =      -0.4003604104353295 [Eh]
	 Opposite-Spin Energy      =      -1.3783361338173881 [Eh]
	 Correlation Energy        =      -1.7786965442527176 [Eh]
	 Total Energy              =    -387.8410376257822350 [Eh]

	 ================> DF-SCS-MP2 Energies <==================
	-----------------------------------------------------------
	 SCS Same-Spin Scale       =       0.3333333333333333 [-]
	 SCS Opposite-Spin Scale   =       1.2000000000000000 [-]
	 SCS Same-Spin Energy      =      -0.1334534701451098 [Eh]
	 SCS Opposite-Spin Energy  =      -1.6540033605808657 [Eh]
	 SCS Correlation Energy    =      -1.7874568307259755 [Eh]
	 SCS Total Energy          =    -387.8497979122554966 [Eh]
	-----------------------------------------------------------

  Dipole Moment: [D]
     X:     1.2053      Y:     0.7268      Z:     0.3123     Total:     1.4417

*** Psi4 exiting successfully. Buy a developer a beer!
