                               Psi4 1.3.2 release

  ==> Input File <==

--------------------------------------------------------------------------
#psi4
#
memory 32 gb

molecule  {
0 1
  O        2.6932640    -1.3344870    -0.0264310
  C        2.7508540     0.0254460     0.4069810
  C        1.3606810     0.5764810     0.3953890
  C       -3.5492030     0.3621160    -0.4101590
  C        3.6709050     0.8409920    -0.4958550
  C        0.2704120    -0.1024690    -0.0006590
  C       -2.1366461    -0.1296038    -0.3888959
  C       -1.0635270     0.4697970    -0.0176060
  C       -4.4702810    -0.3835230     0.5583970
  H        3.1361180     0.0688010     1.4404840
  H        1.2655190     1.6118880     0.7253080
  H       -3.4543419     1.4201607    -0.1396889
  H       -3.9713450     0.3050270    -1.4220020
  H        3.3060070     0.7827570    -1.5237190
  H        3.6990520     1.8899320    -0.1870900
  H        4.6948240     0.4527130    -0.4608140
  H        0.3841050    -1.1350190    -0.3229170
  H       -2.0573220    -1.2386810    -0.7303930
  H       -1.1648060     1.5075440     0.3065060
  H       -4.5255200    -1.4457790     0.3033390
  H       -5.4853170     0.0231860     0.5310900
  H       -4.0942820    -0.3029910     1.5815520
  H        3.6028580    -1.6773980    -0.0043180
units angstrom
no_reorient  #important for SAPT in psi4, default
symmetry c1  #important for SAPT in psi4, default
}

set PROPERTIES_ORIGIN ["COM"]
properties('MP2/aug-cc-pvtz', properties = ['dipole'])
--------------------------------------------------------------------------

    Molecular point group: c1
  Charge       = 0
  Multiplicity = 1
  Basis Set: AUG-CC-PVTZ
    Blend: AUG-CC-PVTZ
  Basis Set: (AUG-CC-PVTZ AUX)
    Blend: AUG-CC-PVTZ-JKFIT

    Orbital Energies [Eh]
    ---------------------

    Doubly Occupied:

       1A    -20.558968     2A    -11.286980     3A    -11.224353
       4A    -11.224120     5A    -11.222699     6A    -11.222136
       7A    -11.220965     8A    -11.214447     9A    -11.214325
      10A     -1.360896    11A     -1.104763    12A     -1.062552
      13A     -1.018128    14A     -0.968755    15A     -0.877168
      16A     -0.833376    17A     -0.750197    18A     -0.739579
      19A     -0.695755    20A     -0.636252    21A     -0.631063
      22A     -0.617021    23A     -0.592736    24A     -0.583983
      25A     -0.546578    26A     -0.541407    27A     -0.525622
      28A     -0.523163    29A     -0.502678    30A     -0.492887
      31A     -0.478871    32A     -0.453903    33A     -0.451890
      34A     -0.425060    35A     -0.306510

  @DF-RHF Final Energy:  -386.05526854991137

   => Energetics <=

    Nuclear Repulsion Energy =            418.8012738287975480
    One-Electron Energy =               -1353.4935239403375817
    Two-Electron Energy =                 548.6369815616286587
    Total Energy =                       -386.0552685499113750
  Basis Set: (AUG-CC-PVTZ AUX)
    Blend: AUG-CC-PVTZ-RI
    Molecular point group: c1

    Geometry (in Angstrom), charge = 0, multiplicity = 1:

       Center              X                  Y                   Z               Mass
    ------------   -----------------  -----------------  -----------------  -----------------
         O            2.690283010000    -1.341193113043    -0.028385271623    15.994914619570
         C            2.747873010000     0.018739886957     0.405026728377    12.000000000000
         C            1.357700010000     0.569774886957     0.393434728377    12.000000000000
         C           -3.552183990000     0.355409886957    -0.412113271623    12.000000000000
         C            3.667924010000     0.834285886957    -0.497809271623    12.000000000000
         C            0.267431010000    -0.109175113043    -0.002613271623    12.000000000000
         C           -2.139627090000    -0.136309913043    -0.390850171623    12.000000000000
         C           -1.066507990000     0.463090886957    -0.019560271623    12.000000000000
         C           -4.473261990000    -0.390229113043     0.556442728377    12.000000000000
         H            3.133137010000     0.062094886957     1.438529728377     1.007825032230
         H            1.262538010000     1.605181886957     0.723353728377     1.007825032230
         H           -3.457322890000     1.413454586957    -0.141643171623     1.007825032230
         H           -3.974325990000     0.298320886957    -1.423956271623     1.007825032230
         H            3.303026010000     0.776050886957    -1.525673271623     1.007825032230
         H            3.696071010000     1.883225886957    -0.189044271623     1.007825032230
         H            4.691843010000     0.446006886957    -0.462768271623     1.007825032230
         H            0.381124010000    -1.141725113043    -0.324871271623     1.007825032230
         H           -2.060302990000    -1.245387113043    -0.732347271623     1.007825032230
         H           -1.167786990000     1.500837886957     0.304551728377     1.007825032230
         H           -4.528500990000    -1.452485113043     0.301384728377     1.007825032230
         H           -5.488297990000     0.016479886957     0.529135728377     1.007825032230
         H           -4.097262990000    -0.309697113043     1.579597728377     1.007825032230
         H            3.599877010000    -1.684104113043    -0.006272271623     1.007825032230

  Basis Set: AUG-CC-PVTZ
    Blend: AUG-CC-PVTZ
  Basis Set: (AUG-CC-PVTZ AUX)
    Blend: AUG-CC-PVTZ-JKFIT
	 Reference Energy          =    -386.0552685499113750 [Eh]
	 Singles Energy            =      -0.0000000000000000 [Eh]
	 Same-Spin Energy          =      -0.4000098807353679 [Eh]
	 Opposite-Spin Energy      =      -1.3774555391541576 [Eh]
	 Correlation Energy        =      -1.7774654198895257 [Eh]
	 Total Energy              =    -387.8327339698009268 [Eh]

	 ================> DF-SCS-MP2 Energies <==================
	-----------------------------------------------------------
	 SCS Same-Spin Scale       =       0.3333333333333333 [-]
	 SCS Opposite-Spin Scale   =       1.2000000000000000 [-]
	 SCS Same-Spin Energy      =      -0.1333366269117893 [Eh]
	 SCS Opposite-Spin Energy  =      -1.6529466469849892 [Eh]
	 SCS Correlation Energy    =      -1.7862832738967784 [Eh]
	 SCS Total Energy          =    -387.8415518238081745 [Eh]
	-----------------------------------------------------------

  Dipole Moment: [D]
     X:     1.2144      Y:     0.7569      Z:     0.3437     Total:     1.4717

*** Psi4 exiting successfully. Buy a developer a beer!
