                               Psi4 1.4a3.dev225

  ==> Input File <==

--------------------------------------------------------------------------
#psi4
#
memory 32 gb

molecule  {
0 1
  O       -2.7161510     1.3794200    -0.1343610
  C       -2.7832390     0.0721360     0.4401970
  C       -1.3979030    -0.4954620     0.4743180
  C        3.5083460    -0.4405980    -0.4123350
  C       -3.7239960    -0.8239440    -0.3625680
  C       -0.3030690     0.1219220    -0.0067100
  C        2.0822050     0.1588087    -0.4558117
  C        1.0245920    -0.4684390     0.0236420
  C        4.4606410     0.4027870     0.4416180
  H       -3.1581590     0.1412460     1.4762970
  H       -1.3112260    -1.4900120     0.9147240
  H        3.4619600    -1.4629760    -0.0187660
  H        3.9104550    -0.5133060    -1.4317100
  H       -3.3684670    -0.8811940    -1.3941910
  H       -3.7626400    -1.8335820     0.0574350
  H       -4.7426360    -0.4191700    -0.3608330
  H       -0.4078810     1.1149080    -0.4388390
  H        2.0311270     1.1370710    -0.8883280
  H        1.1170930    -1.4649260     0.4609700
  H        4.5263310     1.4251690     0.0574090
  H        5.4690900    -0.0219830     0.4454750
  H        4.1044230     0.4539160     1.4740500
  H       -3.6221830     1.7324190    -0.1413340
units angstrom
no_reorient  #important for SAPT in psi4, default
symmetry c1  #important for SAPT in psi4, default
}

set PROPERTIES_ORIGIN ["COM"]
properties('MP2/aug-cc-pvtz', properties = ['dipole'])
--------------------------------------------------------------------------

    Molecular point group: c1
  Charge       = 0
  Multiplicity = 1
  Basis Set: AUG-CC-PVTZ
    Blend: AUG-CC-PVTZ
  Basis Set: (AUG-CC-PVTZ AUX)
    Blend: AUG-CC-PVTZ-JKFIT

    Orbital Energies [Eh]
    ---------------------

    Doubly Occupied:

       1A    -20.558629     2A    -11.286665     3A    -11.225214
       4A    -11.223294     5A    -11.223024     6A    -11.221660
       7A    -11.220729     8A    -11.220294     9A    -11.212355
      10A     -1.359928    11A     -1.098197    12A     -1.057210
      13A     -1.014948    14A     -0.964525    15A     -0.873096
      16A     -0.826798    17A     -0.755149    18A     -0.747904
      19A     -0.695228    20A     -0.637561    21A     -0.625285
      22A     -0.616130    23A     -0.588170    24A     -0.582736
      25A     -0.547775    26A     -0.544996    27A     -0.530073
      28A     -0.515229    29A     -0.500273    30A     -0.490882
      31A     -0.480819    32A     -0.458864    33A     -0.452761
      34A     -0.421523    35A     -0.301330

  @DF-RHF Final Energy:  -386.06135890819843

   => Energetics <=

    Nuclear Repulsion Energy =            417.5839869861678721
    One-Electron Energy =               -1351.1321786962992064
    Two-Electron Energy =                 547.4868328019329056
    Total Energy =                       -386.0613589081983719
  Basis Set: (AUG-CC-PVTZ AUX)
    Blend: AUG-CC-PVTZ-RI
    Molecular point group: c1

    Geometry (in Angstrom), charge = 0, multiplicity = 1:

       Center              X                  Y                   Z               Mass
    ------------   -----------------  -----------------  -----------------  -----------------
         O           -2.678458780470     1.361248410916    -0.132561948658    15.994914619570
         C           -2.745546780470     0.053964410916     0.441996051342    12.000000000000
         C           -1.360210780470    -0.513633589084     0.476117051342    12.000000000000
         C            3.546038219530    -0.458769589084    -0.410535948658    12.000000000000
         C           -3.686303780470    -0.842115589084    -0.360768948658    12.000000000000
         C           -0.265376780470     0.103750410916    -0.004910948658    12.000000000000
         C            2.119897219530     0.140637110916    -0.454012648658    12.000000000000
         C            1.062284219530    -0.486610589084     0.025441051342    12.000000000000
         C            4.498333219530     0.384615410916     0.443417051342    12.000000000000
         H           -3.120466780470     0.123074410916     1.478096051342     1.007825032230
         H           -1.273533780470    -1.508183589084     0.916523051342     1.007825032230
         H            3.499652219530    -1.481147589084    -0.016966948658     1.007825032230
         H            3.948147219530    -0.531477589084    -1.429910948658     1.007825032230
         H           -3.330774780470    -0.899365589084    -1.392391948658     1.007825032230
         H           -3.724947780470    -1.851753589084     0.059234051342     1.007825032230
         H           -4.704943780470    -0.437341589084    -0.359033948658     1.007825032230
         H           -0.370188780470     1.096736410916    -0.437039948658     1.007825032230
         H            2.068819219530     1.118899410916    -0.886528948658     1.007825032230
         H            1.154785219530    -1.483097589084     0.462769051342     1.007825032230
         H            4.564023219530     1.406997410916     0.059208051342     1.007825032230
         H            5.506782219530    -0.040154589084     0.447274051342     1.007825032230
         H            4.142115219530     0.435744410916     1.475849051342     1.007825032230
         H           -3.584490780470     1.714247410916    -0.139534948658     1.007825032230

  Basis Set: AUG-CC-PVTZ
    Blend: AUG-CC-PVTZ
  Basis Set: (AUG-CC-PVTZ AUX)
    Blend: AUG-CC-PVTZ-JKFIT
	 Reference Energy          =    -386.0613589081984287 [Eh]
	 Singles Energy            =      -0.0000000000000000 [Eh]
	 Same-Spin Energy          =      -0.3995668123297067 [Eh]
	 Opposite-Spin Energy      =      -1.3774622900601079 [Eh]
	 Correlation Energy        =      -1.7770291023898146 [Eh]
	 Total Energy              =    -387.8383880105882326 [Eh]

	 ================> DF-SCS-MP2 Energies <==================
	-----------------------------------------------------------
	 SCS Same-Spin Scale       =       0.3333333333333333 [-]
	 SCS Opposite-Spin Scale   =       1.2000000000000000 [-]
	 SCS Same-Spin Energy      =      -0.1331889374432356 [Eh]
	 SCS Opposite-Spin Energy  =      -1.6529547480721294 [Eh]
	 SCS Correlation Energy    =      -1.7861436855153650 [Eh]
	 SCS Total Energy          =    -387.8475025937137843 [Eh]
	-----------------------------------------------------------

  Dipole Moment: [D]
     X:    -1.2345      Y:    -0.6749      Z:     0.3908     Total:     1.4603

*** Psi4 exiting successfully. Buy a developer a beer!
