                               Psi4 1.3.2 release

  ==> Input File <==

--------------------------------------------------------------------------
#psi4
#
memory 32 gb

molecule  {
0 1
  O        2.6932640    -1.3344870    -0.0264310
  C        2.7508540     0.0254460     0.4069810
  C        1.3606810     0.5764810     0.3953890
  C       -3.5398133     0.3846613    -0.4009327
  C        3.6709050     0.8409920    -0.4958550
  C        0.2704120    -0.1024690    -0.0006590
  C       -2.1631840    -0.2004740    -0.4090490
  C       -1.0768728     0.4885606    -0.0129485
  C       -4.4702810    -0.3835230     0.5583970
  H        3.1361180     0.0688010     1.4404840
  H        1.2655190     1.6118880     0.7253080
  H       -3.5113520     1.4248880    -0.1442750
  H       -3.9713450     0.3050270    -1.4220020
  H        3.3060070     0.7827570    -1.5237190
  H        3.6990520     1.8899320    -0.1870900
  H        4.6948240     0.4527130    -0.4608140
  H        0.3841050    -1.1350190    -0.3229170
  H       -2.0573220    -1.2386810    -0.7303930
  H       -1.1648060     1.5075440     0.3065060
  H       -4.5255200    -1.4457790     0.3033390
  H       -5.4853170     0.0231860     0.5310900
  H       -4.0942820    -0.3029910     1.5815520
  H        3.6028580    -1.6773980    -0.0043180
units angstrom
no_reorient  #important for SAPT in psi4, default
symmetry c1  #important for SAPT in psi4, default
}

set PROPERTIES_ORIGIN ["COM"]
properties('MP2/aug-cc-pvtz', properties = ['dipole'])
--------------------------------------------------------------------------

    Molecular point group: c1
  Charge       = 0
  Multiplicity = 1
  Basis Set: AUG-CC-PVTZ
    Blend: AUG-CC-PVTZ
  Basis Set: (AUG-CC-PVTZ AUX)
    Blend: AUG-CC-PVTZ-JKFIT

    Orbital Energies [Eh]
    ---------------------

    Doubly Occupied:

       1A    -20.558435     2A    -11.286008     3A    -11.226001
       4A    -11.223823     5A    -11.222388     6A    -11.222220
       7A    -11.221286     8A    -11.220225     9A    -11.212953
      10A     -1.360304    11A     -1.096442    12A     -1.060598
      13A     -1.013951    14A     -0.961699    15A     -0.875061
      16A     -0.828416    17A     -0.755545    18A     -0.747288
      19A     -0.694983    20A     -0.637965    21A     -0.625471
      22A     -0.616717    23A     -0.591418    24A     -0.580245
      25A     -0.546411    26A     -0.543596    27A     -0.529739
      28A     -0.514763    29A     -0.501116    30A     -0.492470
      31A     -0.486254    32A     -0.464852    33A     -0.452351
      34A     -0.415257    35A     -0.298013

  @DF-RHF Final Energy:  -386.06177629693661

   => Energetics <=

    Nuclear Repulsion Energy =            417.8098845452646515
    One-Electron Energy =               -1351.5747966143651411
    Two-Electron Energy =                 547.7031357721639324
    Total Energy =                       -386.0617762969366140
  Basis Set: (AUG-CC-PVTZ AUX)
    Blend: AUG-CC-PVTZ-RI
    Molecular point group: c1

    Geometry (in Angstrom), charge = 0, multiplicity = 1:

       Center              X                  Y                   Z               Mass
    ------------   -----------------  -----------------  -----------------  -----------------
         O            2.693640418523    -1.338417863899    -0.027752038007    15.994914619570
         C            2.751230418523     0.021515136101     0.405659961993    12.000000000000
         C            1.361057418523     0.572550136101     0.394067961993    12.000000000000
         C           -3.539436881477     0.380730436101    -0.402253738007    12.000000000000
         C            3.671281418523     0.837061136101    -0.497176038007    12.000000000000
         C            0.270788418523    -0.106399863899    -0.001980038007    12.000000000000
         C           -2.162807581477    -0.204404863899    -0.410370038007    12.000000000000
         C           -1.076496381477     0.484629736101    -0.014269538007    12.000000000000
         C           -4.469904581477    -0.387453863899     0.557075961993    12.000000000000
         H            3.136494418523     0.064870136101     1.439162961993     1.007825032230
         H            1.265895418523     1.607957136101     0.723986961993     1.007825032230
         H           -3.510975581477     1.420957136101    -0.145596038007     1.007825032230
         H           -3.970968581477     0.301096136101    -1.423323038007     1.007825032230
         H            3.306383418523     0.778826136101    -1.525040038007     1.007825032230
         H            3.699428418523     1.886001136101    -0.188411038007     1.007825032230
         H            4.695200418523     0.448782136101    -0.462135038007     1.007825032230
         H            0.384481418523    -1.138949863899    -0.324238038007     1.007825032230
         H           -2.056945581477    -1.242611863899    -0.731714038007     1.007825032230
         H           -1.164429581477     1.503613136101     0.305184961993     1.007825032230
         H           -4.525143581477    -1.449709863899     0.302017961993     1.007825032230
         H           -5.484940581477     0.019255136101     0.529768961993     1.007825032230
         H           -4.093905581477    -0.306921863899     1.580230961993     1.007825032230
         H            3.603234418523    -1.681328863899    -0.005639038007     1.007825032230

  Basis Set: AUG-CC-PVTZ
    Blend: AUG-CC-PVTZ
  Basis Set: (AUG-CC-PVTZ AUX)
    Blend: AUG-CC-PVTZ-JKFIT
	 Reference Energy          =    -386.0617762969366140 [Eh]
	 Singles Energy            =      -0.0000000000000000 [Eh]
	 Same-Spin Energy          =      -0.4000419614901478 [Eh]
	 Opposite-Spin Energy      =      -1.3780145234568069 [Eh]
	 Correlation Energy        =      -1.7780564849469547 [Eh]
	 Total Energy              =    -387.8398327818835583 [Eh]

	 ================> DF-SCS-MP2 Energies <==================
	-----------------------------------------------------------
	 SCS Same-Spin Scale       =       0.3333333333333333 [-]
	 SCS Opposite-Spin Scale   =       1.2000000000000000 [-]
	 SCS Same-Spin Energy      =      -0.1333473204967159 [Eh]
	 SCS Opposite-Spin Energy  =      -1.6536174281481681 [Eh]
	 SCS Correlation Energy    =      -1.7869647486448841 [Eh]
	 SCS Total Energy          =    -387.8487410455815052 [Eh]
	-----------------------------------------------------------

  Dipole Moment: [D]
     X:     1.1854      Y:     0.7426      Z:     0.3111     Total:     1.4329

*** Psi4 exiting successfully. Buy a developer a beer!
