                               Psi4 1.4a3.dev225

  ==> Input File <==

--------------------------------------------------------------------------
#psi4
#
memory 32 gb

molecule  {
0 1
  O       -2.7161510     1.3794200    -0.1343610
  C       -2.7832390     0.0721360     0.4401970
  C       -1.3516478    -0.5144136     0.4754573
  C        3.5083460    -0.4405980    -0.4123350
  C       -3.7239960    -0.8239440    -0.3625680
  C       -0.3030690     0.1219220    -0.0067100
  C        2.1282810     0.1394430    -0.4544070
  C        1.0245920    -0.4684390     0.0236420
  C        4.4606410     0.4027870     0.4416180
  H       -3.1581590     0.1412460     1.4762970
  H       -1.3112260    -1.4900120     0.9147240
  H        3.4619600    -1.4629760    -0.0187660
  H        3.9104550    -0.5133060    -1.4317100
  H       -3.3684670    -0.8811940    -1.3941910
  H       -3.7626400    -1.8335820     0.0574350
  H       -4.7426360    -0.4191700    -0.3608330
  H       -0.4078810     1.1149080    -0.4388390
  H        2.0311270     1.1370710    -0.8883280
  H        1.1170930    -1.4649260     0.4609700
  H        4.5263310     1.4251690     0.0574090
  H        5.4690900    -0.0219830     0.4454750
  H        4.1044230     0.4539160     1.4740500
  H       -3.6221830     1.7324190    -0.1413340
units angstrom
no_reorient  #important for SAPT in psi4, default
symmetry c1  #important for SAPT in psi4, default
}

set PROPERTIES_ORIGIN ["COM"]
properties('MP2/aug-cc-pvtz', properties = ['dipole'])
--------------------------------------------------------------------------

    Molecular point group: c1
  Charge       = 0
  Multiplicity = 1
  Basis Set: AUG-CC-PVTZ
    Blend: AUG-CC-PVTZ
  Basis Set: (AUG-CC-PVTZ AUX)
    Blend: AUG-CC-PVTZ-JKFIT

    Orbital Energies [Eh]
    ---------------------

    Doubly Occupied:

       1A    -20.558548     2A    -11.288537     3A    -11.225427
       4A    -11.223198     5A    -11.222682     6A    -11.221116
       7A    -11.220416     8A    -11.219022     9A    -11.212796
      10A     -1.358911    11A     -1.098658    12A     -1.058970
      13A     -1.014026    14A     -0.963549    15A     -0.872268
      16A     -0.827231    17A     -0.752184    18A     -0.750831
      19A     -0.692594    20A     -0.636604    21A     -0.628472
      22A     -0.615190    23A     -0.588918    24A     -0.584402
      25A     -0.549208    26A     -0.543847    27A     -0.525666
      28A     -0.518519    29A     -0.503266    30A     -0.490358
      31A     -0.478356    32A     -0.459941    33A     -0.451481
      34A     -0.421408    35A     -0.301099

  @DF-RHF Final Energy:  -386.06133558522129

   => Energetics <=

    Nuclear Repulsion Energy =            417.3690173763581015
    One-Electron Energy =               -1350.7053014361795249
    Two-Electron Energy =                 547.2749484746001372
    Total Energy =                       -386.0613355852212862
  Basis Set: (AUG-CC-PVTZ AUX)
    Blend: AUG-CC-PVTZ-RI
    Molecular point group: c1

    Geometry (in Angstrom), charge = 0, multiplicity = 1:

       Center              X                  Y                   Z               Mass
    ------------   -----------------  -----------------  -----------------  -----------------
         O           -2.687244943588     1.364894654526    -0.132804033662    15.994914619570
         C           -2.754332943588     0.057610654526     0.441753966338    12.000000000000
         C           -1.322741743588    -0.528938945474     0.477014266338    12.000000000000
         C            3.537252056412    -0.455123345474    -0.410778033662    12.000000000000
         C           -3.695089943588    -0.838469345474    -0.361011033662    12.000000000000
         C           -0.274162943588     0.107396654526    -0.005153033662    12.000000000000
         C            2.157187056412     0.124917654526    -0.452850033662    12.000000000000
         C            1.053498056412    -0.482964345474     0.025198966338    12.000000000000
         C            4.489547056412     0.388261654526     0.443174966338    12.000000000000
         H           -3.129252943588     0.126720654526     1.477853966338     1.007825032230
         H           -1.282319943588    -1.504537345474     0.916280966338     1.007825032230
         H            3.490866056412    -1.477501345474    -0.017209033662     1.007825032230
         H            3.939361056412    -0.527831345474    -1.430153033662     1.007825032230
         H           -3.339560943588    -0.895719345474    -1.392634033662     1.007825032230
         H           -3.733733943588    -1.848107345474     0.058991966338     1.007825032230
         H           -4.713729943588    -0.433695345474    -0.359276033662     1.007825032230
         H           -0.378974943588     1.100382654526    -0.437282033662     1.007825032230
         H            2.060033056412     1.122545654526    -0.886771033662     1.007825032230
         H            1.145999056412    -1.479451345474     0.462526966338     1.007825032230
         H            4.555237056412     1.410643654526     0.058965966338     1.007825032230
         H            5.497996056412    -0.036508345474     0.447031966338     1.007825032230
         H            4.133329056412     0.439390654526     1.475606966338     1.007825032230
         H           -3.593276943588     1.717893654526    -0.139777033662     1.007825032230

  Basis Set: AUG-CC-PVTZ
    Blend: AUG-CC-PVTZ
  Basis Set: (AUG-CC-PVTZ AUX)
    Blend: AUG-CC-PVTZ-JKFIT
	 Reference Energy          =    -386.0613355852212862 [Eh]
	 Singles Energy            =      -0.0000000000000000 [Eh]
	 Same-Spin Energy          =      -0.3995972685704008 [Eh]
	 Opposite-Spin Energy      =      -1.3774588742878813 [Eh]
	 Correlation Energy        =      -1.7770561428582821 [Eh]
	 Total Energy              =    -387.8383917280795572 [Eh]

	 ================> DF-SCS-MP2 Energies <==================
	-----------------------------------------------------------
	 SCS Same-Spin Scale       =       0.3333333333333333 [-]
	 SCS Opposite-Spin Scale   =       1.2000000000000000 [-]
	 SCS Same-Spin Energy      =      -0.1331990895234669 [Eh]
	 SCS Opposite-Spin Energy  =      -1.6529506491454575 [Eh]
	 SCS Correlation Energy    =      -1.7861497386689245 [Eh]
	 SCS Total Energy          =    -387.8474853238902256 [Eh]
	-----------------------------------------------------------

  Dipole Moment: [D]
     X:    -1.2063      Y:    -0.6903      Z:     0.3931     Total:     1.4444

*** Psi4 exiting successfully. Buy a developer a beer!
