                               Psi4 1.3.2 release

  ==> Input File <==

--------------------------------------------------------------------------
#psi4
#
memory 32 gb

molecule  {
0 1
  O        2.6932640    -1.3344870    -0.0264310
  C        2.7508540     0.0254460     0.4069810
  C        1.3623821     0.5806950     0.4210904
  C       -3.5492030     0.3621160    -0.4101590
  C        3.6709050     0.8409920    -0.4958550
  C        0.2704120    -0.1024690    -0.0006590
  C       -2.1631840    -0.2004740    -0.4090490
  C       -1.0635270     0.4697970    -0.0176060
  C       -4.4702810    -0.3835230     0.5583970
  H        3.1194248     0.0765326     1.4462029
  H        1.2655190     1.6118880     0.7253080
  H       -3.5113520     1.4248880    -0.1442750
  H       -3.9713450     0.3050270    -1.4220020
  H        3.3060070     0.7827570    -1.5237190
  H        3.6990520     1.8899320    -0.1870900
  H        4.6948240     0.4527130    -0.4608140
  H        0.3841050    -1.1350190    -0.3229170
  H       -2.0573220    -1.2386810    -0.7303930
  H       -1.1648060     1.5075440     0.3065060
  H       -4.5255200    -1.4457790     0.3033390
  H       -5.4853170     0.0231860     0.5310900
  H       -4.0942820    -0.3029910     1.5815520
  H        3.6028580    -1.6773980    -0.0043180
units angstrom
no_reorient  #important for SAPT in psi4, default
symmetry c1  #important for SAPT in psi4, default
}

set PROPERTIES_ORIGIN ["COM"]
properties('MP2/aug-cc-pvtz', properties = ['dipole'])
--------------------------------------------------------------------------

    Molecular point group: c1
  Charge       = 0
  Multiplicity = 1
  Basis Set: AUG-CC-PVTZ
    Blend: AUG-CC-PVTZ
  Basis Set: (AUG-CC-PVTZ AUX)
    Blend: AUG-CC-PVTZ-JKFIT

    Orbital Energies [Eh]
    ---------------------

    Doubly Occupied:

       1A    -20.559243     2A    -11.286424     3A    -11.225746
       4A    -11.224630     5A    -11.223185     6A    -11.222961
       7A    -11.222569     8A    -11.220991     9A    -11.212711
      10A     -1.360712    11A     -1.097082    12A     -1.060850
      13A     -1.015822    14A     -0.961620    15A     -0.877160
      16A     -0.828082    17A     -0.752240    18A     -0.749746
      19A     -0.694549    20A     -0.637510    21A     -0.626742
      22A     -0.616826    23A     -0.590304    24A     -0.582646
      25A     -0.547427    26A     -0.543941    27A     -0.528032
      28A     -0.518877    29A     -0.501926    30A     -0.491480
      31A     -0.478925    32A     -0.467888    33A     -0.453292
      34A     -0.417121    35A     -0.295759

  @DF-RHF Final Energy:  -386.06166140943975

   => Energetics <=

    Nuclear Repulsion Energy =            417.8137122879824688
    One-Electron Energy =               -1351.5607094780864372
    Two-Electron Energy =                 547.6853357806642180
    Total Energy =                       -386.0616614094396937
  Basis Set: (AUG-CC-PVTZ AUX)
    Blend: AUG-CC-PVTZ-RI
    Molecular point group: c1

    Geometry (in Angstrom), charge = 0, multiplicity = 1:

       Center              X                  Y                   Z               Mass
    ------------   -----------------  -----------------  -----------------  -----------------
         O            2.693235495707    -1.334949733728    -0.028922296733    15.994914619570
         C            2.750825495707     0.024983266272     0.404489703267    12.000000000000
         C            1.362353595707     0.580232266272     0.418599103267    12.000000000000
         C           -3.549231504293     0.361653266272    -0.412650296733    12.000000000000
         C            3.670876495707     0.840529266272    -0.498346296733    12.000000000000
         C            0.270383495707    -0.102931733728    -0.003150296733    12.000000000000
         C           -2.163212504293    -0.200936733728    -0.411540296733    12.000000000000
         C           -1.063555504293     0.469334266272    -0.020097296733    12.000000000000
         C           -4.470309504293    -0.383985733728     0.555905703267    12.000000000000
         H            3.119396295707     0.076069866272     1.443711603267     1.007825032230
         H            1.265490495707     1.611425266272     0.722816703267     1.007825032230
         H           -3.511380504293     1.424425266272    -0.146766296733     1.007825032230
         H           -3.971373504293     0.304564266272    -1.424493296733     1.007825032230
         H            3.305978495707     0.782294266272    -1.526210296733     1.007825032230
         H            3.699023495707     1.889469266272    -0.189581296733     1.007825032230
         H            4.694795495707     0.452250266272    -0.463305296733     1.007825032230
         H            0.384076495707    -1.135481733728    -0.325408296733     1.007825032230
         H           -2.057350504293    -1.239143733728    -0.732884296733     1.007825032230
         H           -1.164834504293     1.507081266272     0.304014703267     1.007825032230
         H           -4.525548504293    -1.446241733728     0.300847703267     1.007825032230
         H           -5.485345504293     0.022723266272     0.528598703267     1.007825032230
         H           -4.094310504293    -0.303453733728     1.579060703267     1.007825032230
         H            3.602829495707    -1.677860733728    -0.006809296733     1.007825032230

  Basis Set: AUG-CC-PVTZ
    Blend: AUG-CC-PVTZ
  Basis Set: (AUG-CC-PVTZ AUX)
    Blend: AUG-CC-PVTZ-JKFIT
	 Reference Energy          =    -386.0616614094397505 [Eh]
	 Singles Energy            =      -0.0000000000000000 [Eh]
	 Same-Spin Energy          =      -0.4004755571630955 [Eh]
	 Opposite-Spin Energy      =      -1.3785729857495483 [Eh]
	 Correlation Energy        =      -1.7790485429126437 [Eh]
	 Total Energy              =    -387.8407099523523698 [Eh]

	 ================> DF-SCS-MP2 Energies <==================
	-----------------------------------------------------------
	 SCS Same-Spin Scale       =       0.3333333333333333 [-]
	 SCS Opposite-Spin Scale   =       1.2000000000000000 [-]
	 SCS Same-Spin Energy      =      -0.1334918523876985 [Eh]
	 SCS Opposite-Spin Energy  =      -1.6542875828994579 [Eh]
	 SCS Correlation Energy    =      -1.7877794352871563 [Eh]
	 SCS Total Energy          =    -387.8494408447269279 [Eh]
	-----------------------------------------------------------

  Dipole Moment: [D]
     X:     1.2182      Y:     0.7411      Z:     0.2886     Total:     1.4548

*** Psi4 exiting successfully. Buy a developer a beer!
