                               Psi4 1.3.2 release

  ==> Input File <==

--------------------------------------------------------------------------
#psi4
#
memory 32 gb

molecule  {
0 1
  O        2.6932640    -1.3344870    -0.0264310
  C        2.7508540     0.0254460     0.4069810
  C        1.3606810     0.5764810     0.3953890
  C       -3.5492030     0.3621160    -0.4101590
  C        3.6709050     0.8409920    -0.4958550
  C        0.2704120    -0.1024690    -0.0006590
  C       -2.1631840    -0.2004740    -0.4090490
  C       -1.0635270     0.4697970    -0.0176060
  C       -4.4793660    -0.3374063     0.5837868
  H        3.1361180     0.0688010     1.4404840
  H        1.2655190     1.6118880     0.7253080
  H       -3.5353759     1.4178176    -0.1153468
  H       -3.9713450     0.3050270    -1.4220020
  H        3.3060070     0.7827570    -1.5237190
  H        3.6990520     1.8899320    -0.1870900
  H        4.6948240     0.4527130    -0.4608140
  H        0.3841050    -1.1350190    -0.3229170
  H       -2.0573220    -1.2386810    -0.7303930
  H       -1.1648060     1.5075440     0.3065060
  H       -4.5255200    -1.4457790     0.3033390
  H       -5.4853170     0.0231860     0.5310900
  H       -4.0942820    -0.3029910     1.5815520
  H        3.6028580    -1.6773980    -0.0043180
units angstrom
no_reorient  #important for SAPT in psi4, default
symmetry c1  #important for SAPT in psi4, default
}

set PROPERTIES_ORIGIN ["COM"]
properties('MP2/aug-cc-pvtz', properties = ['dipole'])
--------------------------------------------------------------------------

    Molecular point group: c1
  Charge       = 0
  Multiplicity = 1
  Basis Set: AUG-CC-PVTZ
    Blend: AUG-CC-PVTZ
  Basis Set: (AUG-CC-PVTZ AUX)
    Blend: AUG-CC-PVTZ-JKFIT

    Orbital Energies [Eh]
    ---------------------

    Doubly Occupied:

       1A    -20.558860     2A    -11.286699     3A    -11.226386
       4A    -11.224041     5A    -11.223523     6A    -11.223195
       7A    -11.222068     8A    -11.220730     9A    -11.212778
      10A     -1.360767    11A     -1.097935    12A     -1.061350
      13A     -1.016433    14A     -0.962990    15A     -0.876798
      16A     -0.828387    17A     -0.752270    18A     -0.748325
      19A     -0.695441    20A     -0.637191    21A     -0.629400
      22A     -0.616784    23A     -0.592683    24A     -0.583119
      25A     -0.546404    26A     -0.542802    27A     -0.525373
      28A     -0.521498    29A     -0.505283    30A     -0.492516
      31A     -0.469983    32A     -0.468197    33A     -0.453177
      34A     -0.418777    35A     -0.298034

  @DF-RHF Final Energy:  -386.05931108360005

   => Energetics <=

    Nuclear Repulsion Energy =            417.9139769761106322
    One-Electron Energy =               -1351.7461827586362233
    Two-Electron Energy =                 547.7728946989254837
    Total Energy =                       -386.0593110836000506
  Basis Set: (AUG-CC-PVTZ AUX)
    Blend: AUG-CC-PVTZ-RI
    Molecular point group: c1

    Geometry (in Angstrom), charge = 0, multiplicity = 1:

       Center              X                  Y                   Z               Mass
    ------------   -----------------  -----------------  -----------------  -----------------
         O            2.694320479200    -1.338818863767    -0.029078133511    15.994914619570
         C            2.751910479200     0.021114136233     0.404333866489    12.000000000000
         C            1.361737479200     0.572149136233     0.392741866489    12.000000000000
         C           -3.548146520800     0.357784136233    -0.412806133511    12.000000000000
         C            3.671961479200     0.836660136233    -0.498502133511    12.000000000000
         C            0.271468479200    -0.106800863767    -0.003306133511    12.000000000000
         C           -2.162127520800    -0.204805863767    -0.411696133511    12.000000000000
         C           -1.062470520800     0.465465136233    -0.020253133511    12.000000000000
         C           -4.478309520800    -0.341738163767     0.581139666489    12.000000000000
         H            3.137174479200     0.064469136233     1.437836866489     1.007825032230
         H            1.266575479200     1.607556136233     0.722660866489     1.007825032230
         H           -3.534319420800     1.413485736233    -0.117993933511     1.007825032230
         H           -3.970288520800     0.300695136233    -1.424649133511     1.007825032230
         H            3.307063479200     0.778425136233    -1.526366133511     1.007825032230
         H            3.700108479200     1.885600136233    -0.189737133511     1.007825032230
         H            4.695880479200     0.448381136233    -0.463461133511     1.007825032230
         H            0.385161479200    -1.139350863767    -0.325564133511     1.007825032230
         H           -2.056265520800    -1.243012863767    -0.733040133511     1.007825032230
         H           -1.163749520800     1.503212136233     0.303858866489     1.007825032230
         H           -4.524463520800    -1.450110863767     0.300691866489     1.007825032230
         H           -5.484260520800     0.018854136233     0.528442866489     1.007825032230
         H           -4.093225520800    -0.307322863767     1.578904866489     1.007825032230
         H            3.603914479200    -1.681729863767    -0.006965133511     1.007825032230

  Basis Set: AUG-CC-PVTZ
    Blend: AUG-CC-PVTZ
  Basis Set: (AUG-CC-PVTZ AUX)
    Blend: AUG-CC-PVTZ-JKFIT
	 Reference Energy          =    -386.0593110836000506 [Eh]
	 Singles Energy            =      -0.0000000000000000 [Eh]
	 Same-Spin Energy          =      -0.4003633801905503 [Eh]
	 Opposite-Spin Energy      =      -1.3784609868551159 [Eh]
	 Correlation Energy        =      -1.7788243670456663 [Eh]
	 Total Energy              =    -387.8381354506457228 [Eh]

	 ================> DF-SCS-MP2 Energies <==================
	-----------------------------------------------------------
	 SCS Same-Spin Scale       =       0.3333333333333333 [-]
	 SCS Opposite-Spin Scale   =       1.2000000000000000 [-]
	 SCS Same-Spin Energy      =      -0.1334544600635168 [Eh]
	 SCS Opposite-Spin Energy  =      -1.6541531842261390 [Eh]
	 SCS Correlation Energy    =      -1.7876076442896558 [Eh]
	 SCS Total Energy          =    -387.8469187278897152 [Eh]
	-----------------------------------------------------------

  Dipole Moment: [D]
     X:     1.2327      Y:     0.7621      Z:     0.3252     Total:     1.4853

*** Psi4 exiting successfully. Buy a developer a beer!
