                               Psi4 1.3.2 release

  ==> Input File <==

--------------------------------------------------------------------------
#psi4
#
memory 32 gb

molecule  {
0 1
  O        2.6932640    -1.3344870    -0.0264310
  C        2.7508540     0.0254460     0.4069810
  C        1.3606810     0.5764810     0.3953890
  C       -3.5492030     0.3621160    -0.4101590
  C        3.6709050     0.8409920    -0.4958550
  C        0.2704120    -0.1024690    -0.0006590
  C       -2.1631840    -0.2004740    -0.4090490
  C       -1.0635270     0.4697970    -0.0176060
  C       -4.4702810    -0.3835230     0.5583970
  H        3.1361180     0.0688010     1.4404840
  H        1.2655190     1.6118880     0.7253080
  H       -3.5113520     1.4248880    -0.1442750
  H       -3.9713450     0.3050270    -1.4220020
  H        3.3060070     0.7827570    -1.5237190
  H        3.6990520     1.8899320    -0.1870900
  H        4.6948240     0.4527130    -0.4608140
  H        0.3736517    -1.0400831    -0.2932876
  H       -2.0573220    -1.2386810    -0.7303930
  H       -1.1648060     1.5075440     0.3065060
  H       -4.5255200    -1.4457790     0.3033390
  H       -5.4853170     0.0231860     0.5310900
  H       -4.0942820    -0.3029910     1.5815520
  H        3.6028580    -1.6773980    -0.0043180
units angstrom
no_reorient  #important for SAPT in psi4, default
symmetry c1  #important for SAPT in psi4, default
}

set PROPERTIES_ORIGIN ["COM"]
properties('MP2/aug-cc-pvtz', properties = ['dipole'])
--------------------------------------------------------------------------

    Molecular point group: c1
  Charge       = 0
  Multiplicity = 1
  Basis Set: AUG-CC-PVTZ
    Blend: AUG-CC-PVTZ
  Basis Set: (AUG-CC-PVTZ AUX)
    Blend: AUG-CC-PVTZ-JKFIT

    Orbital Energies [Eh]
    ---------------------

    Doubly Occupied:

       1A    -20.558924     2A    -11.286477     3A    -11.225699
       4A    -11.223158     5A    -11.222610     6A    -11.222451
       7A    -11.220626     8A    -11.212720     9A    -11.211276
      10A     -1.360757    11A     -1.099710    12A     -1.061928
      13A     -1.017240    14A     -0.963066    15A     -0.877731
      16A     -0.829482    17A     -0.760883    18A     -0.752088
      19A     -0.695891    20A     -0.642737    21A     -0.627995
      22A     -0.617281    23A     -0.591150    24A     -0.583015
      25A     -0.547755    26A     -0.544744    27A     -0.527297
      28A     -0.519929    29A     -0.507127    30A     -0.493166
      31A     -0.479041    32A     -0.468389    33A     -0.453049
      34A     -0.418153    35A     -0.297350

  @DF-RHF Final Energy:  -386.05680071671435

   => Energetics <=

    Nuclear Repulsion Energy =            418.4696140137891121
    One-Electron Energy =               -1352.8110403408813909
    Two-Electron Energy =                 548.2846256103779297
    Total Energy =                       -386.0568007167142923
  Basis Set: (AUG-CC-PVTZ AUX)
    Blend: AUG-CC-PVTZ-RI
    Molecular point group: c1

    Geometry (in Angstrom), charge = 0, multiplicity = 1:

       Center              X                  Y                   Z               Mass
    ------------   -----------------  -----------------  -----------------  -----------------
         O            2.693347501833    -1.335245668344    -0.026667664437    15.994914619570
         C            2.750937501833     0.024687331656     0.406744335563    12.000000000000
         C            1.360764501833     0.575722331656     0.395152335563    12.000000000000
         C           -3.549119498167     0.361357331656    -0.410395664437    12.000000000000
         C            3.670988501833     0.840233331656    -0.496091664437    12.000000000000
         C            0.270495501833    -0.103227668344    -0.000895664437    12.000000000000
         C           -2.163100498167    -0.201232668344    -0.409285664437    12.000000000000
         C           -1.063443498167     0.469038331656    -0.017842664437    12.000000000000
         C           -4.470197498167    -0.384281668344     0.558160335563    12.000000000000
         H            3.136201501833     0.068042331656     1.440247335563     1.007825032230
         H            1.265602501833     1.611129331656     0.725071335563     1.007825032230
         H           -3.511268498167     1.424129331656    -0.144511664437     1.007825032230
         H           -3.971261498167     0.304268331656    -1.422238664437     1.007825032230
         H            3.306090501833     0.781998331656    -1.523955664437     1.007825032230
         H            3.699135501833     1.889173331656    -0.187326664437     1.007825032230
         H            4.694907501833     0.451954331656    -0.461050664437     1.007825032230
         H            0.373735201833    -1.040841768344    -0.293524264437     1.007825032230
         H           -2.057238498167    -1.239439668344    -0.730629664437     1.007825032230
         H           -1.164722498167     1.506785331656     0.306269335563     1.007825032230
         H           -4.525436498167    -1.446537668344     0.303102335563     1.007825032230
         H           -5.485233498167     0.022427331656     0.530853335563     1.007825032230
         H           -4.094198498167    -0.303749668344     1.581315335563     1.007825032230
         H            3.602941501833    -1.678156668344    -0.004554664437     1.007825032230

  Basis Set: AUG-CC-PVTZ
    Blend: AUG-CC-PVTZ
  Basis Set: (AUG-CC-PVTZ AUX)
    Blend: AUG-CC-PVTZ-JKFIT
	 Reference Energy          =    -386.0568007167143492 [Eh]
	 Singles Energy            =      -0.0000000000000000 [Eh]
	 Same-Spin Energy          =      -0.4000418788739600 [Eh]
	 Opposite-Spin Energy      =      -1.3776945235166569 [Eh]
	 Correlation Energy        =      -1.7777364023906168 [Eh]
	 Total Energy              =    -387.8345371191049935 [Eh]

	 ================> DF-SCS-MP2 Energies <==================
	-----------------------------------------------------------
	 SCS Same-Spin Scale       =       0.3333333333333333 [-]
	 SCS Opposite-Spin Scale   =       1.2000000000000000 [-]
	 SCS Same-Spin Energy      =      -0.1333472929579867 [Eh]
	 SCS Opposite-Spin Energy  =      -1.6532334282199883 [Eh]
	 SCS Correlation Energy    =      -1.7865807211779750 [Eh]
	 SCS Total Energy          =    -387.8433814378923330 [Eh]
	-----------------------------------------------------------

  Dipole Moment: [D]
     X:     1.2108      Y:     0.7253      Z:     0.3085     Total:     1.4447

*** Psi4 exiting successfully. Buy a developer a beer!
