                               Psi4 1.3.2 release

  ==> Input File <==

--------------------------------------------------------------------------
#psi4
#
memory 32 gb

molecule  {
0 1
  O        2.6932640    -1.3344870    -0.0264310
  C        2.7508540     0.0254460     0.4069810
  C        1.3606810     0.5764810     0.3953890
  C       -3.5492030     0.3621160    -0.4101590
  C        3.6709050     0.8409920    -0.4958550
  C        0.2704120    -0.1024690    -0.0006590
  C       -2.1539121    -0.1770124    -0.4023282
  C       -1.0635270     0.4697970    -0.0176060
  C       -4.4702810    -0.3835230     0.5583970
  H        3.1361180     0.0688010     1.4404840
  H        1.2655190     1.6118880     0.7253080
  H       -3.4923294     1.4236354    -0.1426647
  H       -3.9713450     0.3050270    -1.4220020
  H        3.3060070     0.7827570    -1.5237190
  H        3.6990520     1.8899320    -0.1870900
  H        4.6948240     0.4527130    -0.4608140
  H        0.3841050    -1.1350190    -0.3229170
  H       -2.0573220    -1.2386810    -0.7303930
  H       -1.1648060     1.5075440     0.3065060
  H       -4.5255200    -1.4457790     0.3033390
  H       -5.4853170     0.0231860     0.5310900
  H       -4.0942820    -0.3029910     1.5815520
  H        3.6028580    -1.6773980    -0.0043180
units angstrom
no_reorient  #important for SAPT in psi4, default
symmetry c1  #important for SAPT in psi4, default
}

set PROPERTIES_ORIGIN ["COM"]
properties('MP2/aug-cc-pvtz', properties = ['dipole'])
--------------------------------------------------------------------------

    Molecular point group: c1
  Charge       = 0
  Multiplicity = 1
  Basis Set: AUG-CC-PVTZ
    Blend: AUG-CC-PVTZ
  Basis Set: (AUG-CC-PVTZ AUX)
    Blend: AUG-CC-PVTZ-JKFIT

    Orbital Energies [Eh]
    ---------------------

    Doubly Occupied:

       1A    -20.558761     2A    -11.286609     3A    -11.224590
       4A    -11.223705     5A    -11.223299     6A    -11.222097
       7A    -11.220661     8A    -11.220105     9A    -11.213281
      10A     -1.360667    11A     -1.099898    12A     -1.061649
      13A     -1.016739    14A     -0.964527    15A     -0.876700
      16A     -0.830065    17A     -0.749278    18A     -0.747266
      19A     -0.695482    20A     -0.637068    21A     -0.628898
      22A     -0.616821    23A     -0.590280    24A     -0.583571
      25A     -0.546429    26A     -0.542712    27A     -0.526350
      28A     -0.520521    29A     -0.501245    30A     -0.492451
      31A     -0.477720    32A     -0.465079    33A     -0.453171
      34A     -0.420401    35A     -0.300490

  @DF-RHF Final Energy:  -386.06231635691108

   => Energetics <=

    Nuclear Repulsion Energy =            418.2641100792446309
    One-Electron Energy =               -1352.4556831146514924
    Two-Electron Energy =                 548.1292566784958353
    Total Energy =                       -386.0623163569110829
  Basis Set: (AUG-CC-PVTZ AUX)
    Blend: AUG-CC-PVTZ-RI
    Molecular point group: c1

    Geometry (in Angstrom), charge = 0, multiplicity = 1:

       Center              X                  Y                   Z               Mass
    ------------   -----------------  -----------------  -----------------  -----------------
         O            2.692229624287    -1.336709518350    -0.027083282152    15.994914619570
         C            2.749819624287     0.023223481650     0.406328717848    12.000000000000
         C            1.359646624287     0.574258481650     0.394736717848    12.000000000000
         C           -3.550237375713     0.359893481650    -0.410811282152    12.000000000000
         C            3.669870624287     0.838769481650    -0.496507282152    12.000000000000
         C            0.269377624287    -0.104691518350    -0.001311282152    12.000000000000
         C           -2.154946475713    -0.179234918350    -0.402980482152    12.000000000000
         C           -1.064561375713     0.467574481650    -0.018258282152    12.000000000000
         C           -4.471315375713    -0.385745518350     0.557744717848    12.000000000000
         H            3.135083624287     0.066578481650     1.439831717848     1.007825032230
         H            1.264484624287     1.609665481650     0.724655717848     1.007825032230
         H           -3.493363775713     1.421412881650    -0.143316982152     1.007825032230
         H           -3.972379375713     0.302804481650    -1.422654282152     1.007825032230
         H            3.304972624287     0.780534481650    -1.524371282152     1.007825032230
         H            3.698017624287     1.887709481650    -0.187742282152     1.007825032230
         H            4.693789624287     0.450490481650    -0.461466282152     1.007825032230
         H            0.383070624287    -1.137241518350    -0.323569282152     1.007825032230
         H           -2.058356375713    -1.240903518350    -0.731045282152     1.007825032230
         H           -1.165840375713     1.505321481650     0.305853717848     1.007825032230
         H           -4.526554375713    -1.448001518350     0.302686717848     1.007825032230
         H           -5.486351375713     0.020963481650     0.530437717848     1.007825032230
         H           -4.095316375713    -0.305213518350     1.580899717848     1.007825032230
         H            3.601823624287    -1.679620518350    -0.004970282152     1.007825032230

  Basis Set: AUG-CC-PVTZ
    Blend: AUG-CC-PVTZ
  Basis Set: (AUG-CC-PVTZ AUX)
    Blend: AUG-CC-PVTZ-JKFIT
	 Reference Energy          =    -386.0623163569110829 [Eh]
	 Singles Energy            =      -0.0000000000000000 [Eh]
	 Same-Spin Energy          =      -0.4001790367967289 [Eh]
	 Opposite-Spin Energy      =      -1.3779143803545806 [Eh]
	 Correlation Energy        =      -1.7780934171513096 [Eh]
	 Total Energy              =    -387.8404097740623797 [Eh]

	 ================> DF-SCS-MP2 Energies <==================
	-----------------------------------------------------------
	 SCS Same-Spin Scale       =       0.3333333333333333 [-]
	 SCS Opposite-Spin Scale   =       1.2000000000000000 [-]
	 SCS Same-Spin Energy      =      -0.1333930122655763 [Eh]
	 SCS Opposite-Spin Energy  =      -1.6534972564254966 [Eh]
	 SCS Correlation Energy    =      -1.7868902686910730 [Eh]
	 SCS Total Energy          =    -387.8492066256021644 [Eh]
	-----------------------------------------------------------

  Dipole Moment: [D]
     X:     1.2065      Y:     0.7345      Z:     0.3193     Total:     1.4481

*** Psi4 exiting successfully. Buy a developer a beer!
