                               Psi4 1.3.2 release

  ==> Input File <==

--------------------------------------------------------------------------
#psi4
#
memory 32 gb

molecule  {
0 1
  O        2.6932640    -1.3344870    -0.0264310
  C        2.7508540     0.0254460     0.4069810
  C        1.3606810     0.5764810     0.3953890
  C       -3.5492030     0.3621160    -0.4101590
  C        3.6709050     0.8409920    -0.4958550
  C        0.2704120    -0.1024690    -0.0006590
  C       -2.1631840    -0.2004740    -0.4090490
  C       -1.0441256     0.5132905    -0.0003097
  C       -4.4702810    -0.3835230     0.5583970
  H        3.1361180     0.0688010     1.4404840
  H        1.2655190     1.6118880     0.7253080
  H       -3.5113520     1.4248880    -0.1442750
  H       -3.9713450     0.3050270    -1.4220020
  H        3.3060070     0.7827570    -1.5237190
  H        3.6990520     1.8899320    -0.1870900
  H        4.6948240     0.4527130    -0.4608140
  H        0.4213842    -1.1322871    -0.3162821
  H       -2.0573220    -1.2386810    -0.7303930
  H       -1.1648060     1.5075440     0.3065060
  H       -4.5255200    -1.4457790     0.3033390
  H       -5.4853170     0.0231860     0.5310900
  H       -4.0942820    -0.3029910     1.5815520
  H        3.6028580    -1.6773980    -0.0043180
units angstrom
no_reorient  #important for SAPT in psi4, default
symmetry c1  #important for SAPT in psi4, default
}

set PROPERTIES_ORIGIN ["COM"]
properties('MP2/aug-cc-pvtz', properties = ['dipole'])
--------------------------------------------------------------------------

    Molecular point group: c1
  Charge       = 0
  Multiplicity = 1
  Basis Set: AUG-CC-PVTZ
    Blend: AUG-CC-PVTZ
  Basis Set: (AUG-CC-PVTZ AUX)
    Blend: AUG-CC-PVTZ-JKFIT

    Orbital Energies [Eh]
    ---------------------

    Doubly Occupied:

       1A    -20.558856     2A    -11.285717     3A    -11.231892
       4A    -11.225992     5A    -11.223021     6A    -11.222431
       7A    -11.220159     8A    -11.220092     9A    -11.212699
      10A     -1.360761    11A     -1.094978    12A     -1.060138
      13A     -1.015579    14A     -0.958346    15A     -0.876335
      16A     -0.827015    17A     -0.758415    18A     -0.746853
      19A     -0.695647    20A     -0.636978    21A     -0.626634
      22A     -0.616859    23A     -0.590988    24A     -0.580973
      25A     -0.546435    26A     -0.544022    27A     -0.530367
      28A     -0.516619    29A     -0.502462    30A     -0.494105
      31A     -0.479905    32A     -0.468343    33A     -0.452754
      34A     -0.415203    35A     -0.290758

  @DF-RHF Final Energy:  -386.05681407603345

   => Energetics <=

    Nuclear Repulsion Energy =            417.6659472145939844
    One-Electron Energy =               -1351.2688585072787646
    Two-Electron Energy =                 547.5460972166513329
    Total Energy =                       -386.0568140760334472
  Basis Set: (AUG-CC-PVTZ AUX)
    Blend: AUG-CC-PVTZ-RI
    Molecular point group: c1

    Geometry (in Angstrom), charge = 0, multiplicity = 1:

       Center              X                  Y                   Z               Mass
    ------------   -----------------  -----------------  -----------------  -----------------
         O            2.691119802693    -1.338647581992    -0.028129794800    15.994914619570
         C            2.748709802693     0.021285418008     0.405282205200    12.000000000000
         C            1.358536802693     0.572320418008     0.393690205200    12.000000000000
         C           -3.551347197307     0.357955418008    -0.411857794800    12.000000000000
         C            3.668760802693     0.836831418008    -0.497553794800    12.000000000000
         C            0.268267802693    -0.106629581992    -0.002357794800    12.000000000000
         C           -2.165328197307    -0.204634581992    -0.410747794800    12.000000000000
         C           -1.046269797307     0.509129918008    -0.002008494800    12.000000000000
         C           -4.472425197307    -0.387683581992     0.556698205200    12.000000000000
         H            3.133973802693     0.064640418008     1.438785205200     1.007825032230
         H            1.263374802693     1.607727418008     0.723609205200     1.007825032230
         H           -3.513496197307     1.420727418008    -0.145973794800     1.007825032230
         H           -3.973489197307     0.300866418008    -1.423700794800     1.007825032230
         H            3.303862802693     0.778596418008    -1.525417794800     1.007825032230
         H            3.696907802693     1.885771418008    -0.188788794800     1.007825032230
         H            4.692679802693     0.448552418008    -0.462512794800     1.007825032230
         H            0.419240002693    -1.136447681992    -0.317980894800     1.007825032230
         H           -2.059466197307    -1.242841581992    -0.732091794800     1.007825032230
         H           -1.166950197307     1.503383418008     0.304807205200     1.007825032230
         H           -4.527664197307    -1.449939581992     0.301640205200     1.007825032230
         H           -5.487461197307     0.019025418008     0.529391205200     1.007825032230
         H           -4.096426197307    -0.307151581992     1.579853205200     1.007825032230
         H            3.600713802693    -1.681558581992    -0.006016794800     1.007825032230

  Basis Set: AUG-CC-PVTZ
    Blend: AUG-CC-PVTZ
  Basis Set: (AUG-CC-PVTZ AUX)
    Blend: AUG-CC-PVTZ-JKFIT
	 Reference Energy          =    -386.0568140760334472 [Eh]
	 Singles Energy            =      -0.0000000000000000 [Eh]
	 Same-Spin Energy          =      -0.4009067117715310 [Eh]
	 Opposite-Spin Energy      =      -1.3795412729149144 [Eh]
	 Correlation Energy        =      -1.7804479846864454 [Eh]
	 Total Energy              =    -387.8372620607198655 [Eh]

	 ================> DF-SCS-MP2 Energies <==================
	-----------------------------------------------------------
	 SCS Same-Spin Scale       =       0.3333333333333333 [-]
	 SCS Opposite-Spin Scale   =       1.2000000000000000 [-]
	 SCS Same-Spin Energy      =      -0.1336355705905103 [Eh]
	 SCS Opposite-Spin Energy  =      -1.6554495274978971 [Eh]
	 SCS Correlation Energy    =      -1.7890850980884074 [Eh]
	 SCS Total Energy          =    -387.8458991741218824 [Eh]
	-----------------------------------------------------------

  Dipole Moment: [D]
     X:     1.2075      Y:     0.7404      Z:     0.3136     Total:     1.4507

*** Psi4 exiting successfully. Buy a developer a beer!
