                               Psi4 1.3.2 release

  ==> Input File <==

--------------------------------------------------------------------------
#psi4
#
memory 32 gb

molecule  {
0 1
  O        2.6619105    -1.3442065     0.0111006
  C        2.7508540     0.0254460     0.4069810
  C        1.3606810     0.5764810     0.3953890
  C       -3.5492030     0.3621160    -0.4101590
  C        3.6604957     0.8839138    -0.4661209
  C        0.2704120    -0.1024690    -0.0006590
  C       -2.1631840    -0.2004740    -0.4090490
  C       -1.0635270     0.4697970    -0.0176060
  C       -4.4702810    -0.3835230     0.5583970
  H        3.1361180     0.0688010     1.4404840
  H        1.2655190     1.6118880     0.7253080
  H       -3.5113520     1.4248880    -0.1442750
  H       -3.9713450     0.3050270    -1.4220020
  H        3.3060070     0.7827570    -1.5237190
  H        3.6990520     1.8899320    -0.1870900
  H        4.6948240     0.4527130    -0.4608140
  H        0.3841050    -1.1350190    -0.3229170
  H       -2.0573220    -1.2386810    -0.7303930
  H       -1.1648060     1.5075440     0.3065060
  H       -4.5255200    -1.4457790     0.3033390
  H       -5.4853170     0.0231860     0.5310900
  H       -4.0942820    -0.3029910     1.5815520
  H        3.6028580    -1.6773980    -0.0043180
units angstrom
no_reorient  #important for SAPT in psi4, default
symmetry c1  #important for SAPT in psi4, default
}

set PROPERTIES_ORIGIN ["COM"]
properties('MP2/aug-cc-pvtz', properties = ['dipole'])
--------------------------------------------------------------------------

    Molecular point group: c1
  Charge       = 0
  Multiplicity = 1
  Basis Set: AUG-CC-PVTZ
    Blend: AUG-CC-PVTZ
  Basis Set: (AUG-CC-PVTZ AUX)
    Blend: AUG-CC-PVTZ-JKFIT

    Orbital Energies [Eh]
    ---------------------

    Doubly Occupied:

       1A    -20.564131     2A    -11.286538     3A    -11.225205
       4A    -11.223163     5A    -11.222880     6A    -11.222663
       7A    -11.222161     8A    -11.220656     9A    -11.212417
      10A     -1.357421    11A     -1.097109    12A     -1.061022
      13A     -1.016749    14A     -0.962400    15A     -0.875844
      16A     -0.827844    17A     -0.751991    18A     -0.745912
      19A     -0.691551    20A     -0.638210    21A     -0.626674
      22A     -0.622483    23A     -0.589243    24A     -0.581569
      25A     -0.547280    26A     -0.537981    27A     -0.531596
      28A     -0.518131    29A     -0.500195    30A     -0.492379
      31A     -0.478637    32A     -0.466712    33A     -0.452286
      34A     -0.417551    35A     -0.296567

  @DF-RHF Final Energy:  -386.05587700201306

   => Energetics <=

    Nuclear Repulsion Energy =            417.9732270890496579
    One-Electron Energy =               -1351.8879061038740019
    Two-Electron Energy =                 547.8588020128112248
    Total Energy =                       -386.0558770020130623
  Basis Set: (AUG-CC-PVTZ AUX)
    Blend: AUG-CC-PVTZ-RI
    Molecular point group: c1

    Geometry (in Angstrom), charge = 0, multiplicity = 1:

       Center              X                  Y                   Z               Mass
    ------------   -----------------  -----------------  -----------------  -----------------
         O            2.666877834120    -1.347058038337     0.003510804284    15.994914619570
         C            2.755821334120     0.022594461663     0.399391204284    12.000000000000
         C            1.365648334120     0.573629461663     0.387799204284    12.000000000000
         C           -3.544235665880     0.359264461663    -0.417748795716    12.000000000000
         C            3.665463034120     0.881062261663    -0.473710695716    12.000000000000
         C            0.275379334120    -0.105320538337    -0.008248795716    12.000000000000
         C           -2.158216665880    -0.203325538337    -0.416638795716    12.000000000000
         C           -1.058559665880     0.466945461663    -0.025195795716    12.000000000000
         C           -4.465313665880    -0.386374538337     0.550807204284    12.000000000000
         H            3.141085334120     0.065949461663     1.432894204284     1.007825032230
         H            1.270486334120     1.609036461663     0.717718204284     1.007825032230
         H           -3.506384665880     1.422036461663    -0.151864795716     1.007825032230
         H           -3.966377665880     0.302175461663    -1.429591795716     1.007825032230
         H            3.310974334120     0.779905461663    -1.531308795716     1.007825032230
         H            3.704019334120     1.887080461663    -0.194679795716     1.007825032230
         H            4.699791334120     0.449861461663    -0.468403795716     1.007825032230
         H            0.389072334120    -1.137870538337    -0.330506795716     1.007825032230
         H           -2.052354665880    -1.241532538337    -0.737982795716     1.007825032230
         H           -1.159838665880     1.504692461663     0.298916204284     1.007825032230
         H           -4.520552665880    -1.448630538337     0.295749204284     1.007825032230
         H           -5.480349665880     0.020334461663     0.523500204284     1.007825032230
         H           -4.089314665880    -0.305842538337     1.573962204284     1.007825032230
         H            3.607825334120    -1.680249538337    -0.011907795716     1.007825032230

  Basis Set: AUG-CC-PVTZ
    Blend: AUG-CC-PVTZ
  Basis Set: (AUG-CC-PVTZ AUX)
    Blend: AUG-CC-PVTZ-JKFIT
	 Reference Energy          =    -386.0558770020130623 [Eh]
	 Singles Energy            =      -0.0000000000000000 [Eh]
	 Same-Spin Energy          =      -0.4009158457403424 [Eh]
	 Opposite-Spin Energy      =      -1.3796364583281377 [Eh]
	 Correlation Energy        =      -1.7805523040684803 [Eh]
	 Total Energy              =    -387.8364293060815271 [Eh]

	 ================> DF-SCS-MP2 Energies <==================
	-----------------------------------------------------------
	 SCS Same-Spin Scale       =       0.3333333333333333 [-]
	 SCS Opposite-Spin Scale   =       1.2000000000000000 [-]
	 SCS Same-Spin Energy      =      -0.1336386152467808 [Eh]
	 SCS Opposite-Spin Energy  =      -1.6555637499937652 [Eh]
	 SCS Correlation Energy    =      -1.7892023652405460 [Eh]
	 SCS Total Energy          =    -387.8450793672536179 [Eh]
	-----------------------------------------------------------

  Dipole Moment: [D]
     X:     1.2944      Y:     0.7584      Z:     0.2300     Total:     1.5177

*** Psi4 exiting successfully. Buy a developer a beer!
