                               Psi4 1.3.2 release

  ==> Input File <==

--------------------------------------------------------------------------
#psi4
#
memory 32 gb

molecule  {
0 1
  O        2.6932640    -1.3344870    -0.0264310
  C        2.7508540     0.0254460     0.4069810
  C        1.1747600     0.6501761     0.3938387
  C       -3.5492030     0.3621160    -0.4101590
  C        3.6709050     0.8409920    -0.4958550
  C        0.2704120    -0.1024690    -0.0006590
  C       -2.1631840    -0.2004740    -0.4090490
  C       -1.0635270     0.4697970    -0.0176060
  C       -4.4702810    -0.3835230     0.5583970
  H        3.1361180     0.0688010     1.4404840
  H        1.2655190     1.6118880     0.7253080
  H       -3.5113520     1.4248880    -0.1442750
  H       -3.9713450     0.3050270    -1.4220020
  H        3.3060070     0.7827570    -1.5237190
  H        3.6990520     1.8899320    -0.1870900
  H        4.6948240     0.4527130    -0.4608140
  H        0.3841050    -1.1350190    -0.3229170
  H       -2.0573220    -1.2386810    -0.7303930
  H       -1.1648060     1.5075440     0.3065060
  H       -4.5255200    -1.4457790     0.3033390
  H       -5.4853170     0.0231860     0.5310900
  H       -4.0942820    -0.3029910     1.5815520
  H        3.6028580    -1.6773980    -0.0043180
units angstrom
no_reorient  #important for SAPT in psi4, default
symmetry c1  #important for SAPT in psi4, default
}

set PROPERTIES_ORIGIN ["COM"]
properties('MP2/aug-cc-pvtz', properties = ['dipole'])
--------------------------------------------------------------------------

    Molecular point group: c1
  Charge       = 0
  Multiplicity = 1
  Basis Set: AUG-CC-PVTZ
    Blend: AUG-CC-PVTZ
  Basis Set: (AUG-CC-PVTZ AUX)
    Blend: AUG-CC-PVTZ-JKFIT

    Orbital Energies [Eh]
    ---------------------

    Doubly Occupied:

       1A    -20.557392     2A    -11.288958     3A    -11.221993
       4A    -11.221245     5A    -11.219439     6A    -11.218401
       7A    -11.215425     8A    -11.211575     9A    -11.209675
      10A     -1.355962    11A     -1.109139    12A     -1.060096
      13A     -1.008340    14A     -0.967085    15A     -0.863007
      16A     -0.822661    17A     -0.762056    18A     -0.750279
      19A     -0.687109    20A     -0.644297    21A     -0.634186
      22A     -0.611419    23A     -0.588556    24A     -0.585854
      25A     -0.559318    26A     -0.541815    27A     -0.523385
      28A     -0.518640    29A     -0.507308    30A     -0.486005
      31A     -0.476510    32A     -0.452018    33A     -0.432894
      34A     -0.419817    35A     -0.310322

  @DF-RHF Final Energy:  -386.02651272164189

   => Energetics <=

    Nuclear Repulsion Energy =            417.6648802645956380
    One-Electron Energy =               -1351.2984198981664576
    Two-Electron Energy =                 547.6070269119288696
    Total Energy =                       -386.0265127216418932
  Basis Set: (AUG-CC-PVTZ AUX)
    Blend: AUG-CC-PVTZ-RI
    Molecular point group: c1

    Geometry (in Angstrom), charge = 0, multiplicity = 1:

       Center              X                  Y                   Z               Mass
    ------------   -----------------  -----------------  -----------------  -----------------
         O            2.710956052817    -1.341499708779    -0.026283341400    15.994914619570
         C            2.768546052817     0.018433291221     0.407128658600    12.000000000000
         C            1.192452052817     0.643163391221     0.393986358600    12.000000000000
         C           -3.531510947183     0.355103291221    -0.410011341400    12.000000000000
         C            3.688597052817     0.833979291221    -0.495707341400    12.000000000000
         C            0.288104052817    -0.109481708779    -0.000511341400    12.000000000000
         C           -2.145491947183    -0.207486708779    -0.408901341400    12.000000000000
         C           -1.045834947183     0.462784291221    -0.017458341400    12.000000000000
         C           -4.452588947183    -0.390535708779     0.558544658600    12.000000000000
         H            3.153810052817     0.061788291221     1.440631658600     1.007825032230
         H            1.283211052817     1.604875291221     0.725455658600     1.007825032230
         H           -3.493659947183     1.417875291221    -0.144127341400     1.007825032230
         H           -3.953652947183     0.298014291221    -1.421854341400     1.007825032230
         H            3.323699052817     0.775744291221    -1.523571341400     1.007825032230
         H            3.716744052817     1.882919291221    -0.186942341400     1.007825032230
         H            4.712516052817     0.445700291221    -0.460666341400     1.007825032230
         H            0.401797052817    -1.142031708779    -0.322769341400     1.007825032230
         H           -2.039629947183    -1.245693708779    -0.730245341400     1.007825032230
         H           -1.147113947183     1.500531291221     0.306653658600     1.007825032230
         H           -4.507827947183    -1.452791708779     0.303486658600     1.007825032230
         H           -5.467624947183     0.016173291221     0.531237658600     1.007825032230
         H           -4.076589947183    -0.310003708779     1.581699658600     1.007825032230
         H            3.620550052817    -1.684410708779    -0.004170341400     1.007825032230

  Basis Set: AUG-CC-PVTZ
    Blend: AUG-CC-PVTZ
  Basis Set: (AUG-CC-PVTZ AUX)
    Blend: AUG-CC-PVTZ-JKFIT
	 Reference Energy          =    -386.0265127216418932 [Eh]
	 Singles Energy            =      -0.0000000000000000 [Eh]
	 Same-Spin Energy          =      -0.3992234292187904 [Eh]
	 Opposite-Spin Energy      =      -1.3770248974713910 [Eh]
	 Correlation Energy        =      -1.7762483266901814 [Eh]
	 Total Energy              =    -387.8027610483320586 [Eh]

	 ================> DF-SCS-MP2 Energies <==================
	-----------------------------------------------------------
	 SCS Same-Spin Scale       =       0.3333333333333333 [-]
	 SCS Opposite-Spin Scale   =       1.2000000000000000 [-]
	 SCS Same-Spin Energy      =      -0.1330744764062635 [Eh]
	 SCS Opposite-Spin Energy  =      -1.6524298769656691 [Eh]
	 SCS Correlation Energy    =      -1.7855043533719326 [Eh]
	 SCS Total Energy          =    -387.8120170750138413 [Eh]
	-----------------------------------------------------------

  Dipole Moment: [D]
     X:     1.1752      Y:     0.7610      Z:     0.3188     Total:     1.4359

*** Psi4 exiting successfully. Buy a developer a beer!
