                               Psi4 1.3.2 release

  ==> Input File <==

--------------------------------------------------------------------------
#psi4
#
memory 32 gb

molecule  {
0 1
  O        2.6775761    -1.3395547    -0.0077284
  C        2.7508540     0.0254460     0.4069810
  C        1.3606810     0.5764810     0.3953890
  C       -3.5492030     0.3621160    -0.4101590
  C        3.6658397     0.8625804    -0.4811232
  C        0.2704120    -0.1024690    -0.0006590
  C       -2.1631840    -0.2004740    -0.4090490
  C       -1.0635270     0.4697970    -0.0176060
  C       -4.4702810    -0.3835230     0.5583970
  H        3.1361180     0.0688010     1.4404840
  H        1.2655190     1.6118880     0.7253080
  H       -3.5113520     1.4248880    -0.1442750
  H       -3.9713450     0.3050270    -1.4220020
  H        3.3060070     0.7827570    -1.5237190
  H        3.6990520     1.8899320    -0.1870900
  H        4.6948240     0.4527130    -0.4608140
  H        0.3841050    -1.1350190    -0.3229170
  H       -2.0573220    -1.2386810    -0.7303930
  H       -1.1648060     1.5075440     0.3065060
  H       -4.5255200    -1.4457790     0.3033390
  H       -5.4853170     0.0231860     0.5310900
  H       -4.0942820    -0.3029910     1.5815520
  H        3.6028580    -1.6773980    -0.0043180
units angstrom
no_reorient  #important for SAPT in psi4, default
symmetry c1  #important for SAPT in psi4, default
}

set PROPERTIES_ORIGIN ["COM"]
properties('MP2/aug-cc-pvtz', properties = ['dipole'])
--------------------------------------------------------------------------

    Molecular point group: c1
  Charge       = 0
  Multiplicity = 1
  Basis Set: AUG-CC-PVTZ
    Blend: AUG-CC-PVTZ
  Basis Set: (AUG-CC-PVTZ AUX)
    Blend: AUG-CC-PVTZ-JKFIT

    Orbital Energies [Eh]
    ---------------------

    Doubly Occupied:

       1A    -20.561358     2A    -11.286435     3A    -11.225546
       4A    -11.223195     5A    -11.222957     6A    -11.222584
       7A    -11.221724     8A    -11.221184     9A    -11.212599
      10A     -1.358935    11A     -1.097456    12A     -1.061137
      13A     -1.016395    14A     -0.962400    15A     -0.876172
      16A     -0.828140    17A     -0.752161    18A     -0.746951
      19A     -0.693356    20A     -0.637435    21A     -0.627194
      22A     -0.619660    23A     -0.589611    24A     -0.582194
      25A     -0.545662    26A     -0.541779    27A     -0.529814
      28A     -0.518482    29A     -0.500342    30A     -0.492594
      31A     -0.478877    32A     -0.467338    33A     -0.452927
      34A     -0.417925    35A     -0.297006

  @DF-RHF Final Energy:  -386.06041930537430

   => Energetics <=

    Nuclear Repulsion Energy =            417.9814628686618789
    One-Electron Energy =               -1351.9047152637754152
    Two-Electron Energy =                 547.8628330897392971
    Total Energy =                       -386.0604193053742392
  Basis Set: (AUG-CC-PVTZ AUX)
    Blend: AUG-CC-PVTZ-RI
    Molecular point group: c1

    Geometry (in Angstrom), charge = 0, multiplicity = 1:

       Center              X                  Y                   Z               Mass
    ------------   -----------------  -----------------  -----------------  -----------------
         O            2.680047900482    -1.340966196891    -0.011502344730    15.994914619570
         C            2.753325800482     0.024034503109     0.403207055270    12.000000000000
         C            1.363152800482     0.575069503109     0.391615055270    12.000000000000
         C           -3.546731199518     0.360704503109    -0.413932944730    12.000000000000
         C            3.668311500482     0.861168903109    -0.484897144730    12.000000000000
         C            0.272883800482    -0.103880496891    -0.004432944730    12.000000000000
         C           -2.160712199518    -0.201885496891    -0.412822944730    12.000000000000
         C           -1.061055199518     0.468385503109    -0.021379944730    12.000000000000
         C           -4.467809199518    -0.384934496891     0.554623055270    12.000000000000
         H            3.138589800482     0.067389503109     1.436710055270     1.007825032230
         H            1.267990800482     1.610476503109     0.721534055270     1.007825032230
         H           -3.508880199518     1.423476503109    -0.148048944730     1.007825032230
         H           -3.968873199518     0.303615503109    -1.425775944730     1.007825032230
         H            3.308478800482     0.781345503109    -1.527492944730     1.007825032230
         H            3.701523800482     1.888520503109    -0.190863944730     1.007825032230
         H            4.697295800482     0.451301503109    -0.464587944730     1.007825032230
         H            0.386576800482    -1.136430496891    -0.326690944730     1.007825032230
         H           -2.054850199518    -1.240092496891    -0.734166944730     1.007825032230
         H           -1.162334199518     1.506132503109     0.302732055270     1.007825032230
         H           -4.523048199518    -1.447190496891     0.299565055270     1.007825032230
         H           -5.482845199518     0.021774503109     0.527316055270     1.007825032230
         H           -4.091810199518    -0.304402496891     1.577778055270     1.007825032230
         H            3.605329800482    -1.678809496891    -0.008091944730     1.007825032230

  Basis Set: AUG-CC-PVTZ
    Blend: AUG-CC-PVTZ
  Basis Set: (AUG-CC-PVTZ AUX)
    Blend: AUG-CC-PVTZ-JKFIT
	 Reference Energy          =    -386.0604193053742961 [Eh]
	 Singles Energy            =      -0.0000000000000000 [Eh]
	 Same-Spin Energy          =      -0.4006079698910254 [Eh]
	 Opposite-Spin Energy      =      -1.3789135362943501 [Eh]
	 Correlation Energy        =      -1.7795215061853755 [Eh]
	 Total Energy              =    -387.8399408115596998 [Eh]

	 ================> DF-SCS-MP2 Energies <==================
	-----------------------------------------------------------
	 SCS Same-Spin Scale       =       0.3333333333333333 [-]
	 SCS Opposite-Spin Scale   =       1.2000000000000000 [-]
	 SCS Same-Spin Energy      =      -0.1335359899636751 [Eh]
	 SCS Opposite-Spin Energy  =      -1.6546962435532200 [Eh]
	 SCS Correlation Energy    =      -1.7882322335168952 [Eh]
	 SCS Total Energy          =    -387.8486515388912039 [Eh]
	-----------------------------------------------------------

  Dipole Moment: [D]
     X:     1.2518      Y:     0.7463      Z:     0.2690     Total:     1.4820

*** Psi4 exiting successfully. Buy a developer a beer!
