                               Psi4 1.3.2 release

  ==> Input File <==

--------------------------------------------------------------------------
#psi4
#
memory 32 gb

molecule  {
0 1
  O        2.6932640    -1.3344870    -0.0264310
  C        2.7508540     0.0254460     0.4069810
  C        1.3606810     0.5764810     0.3953890
  C       -3.5492030     0.3621160    -0.4101590
  C        3.6709050     0.8409920    -0.4958550
  C        0.2704120    -0.1024690    -0.0006590
  C       -2.1631840    -0.2004740    -0.4090490
  C       -0.8797394     0.3909513    -0.0152711
  C       -4.4702810    -0.3835230     0.5583970
  H        3.1361180     0.0688010     1.4404840
  H        1.2655190     1.6118880     0.7253080
  H       -3.5113520     1.4248880    -0.1442750
  H       -3.9713450     0.3050270    -1.4220020
  H        3.3060070     0.7827570    -1.5237190
  H        3.6990520     1.8899320    -0.1870900
  H        4.6948240     0.4527130    -0.4608140
  H        0.3841050    -1.1350190    -0.3229170
  H       -2.0573220    -1.2386810    -0.7303930
  H       -1.1648060     1.5075440     0.3065060
  H       -4.5255200    -1.4457790     0.3033390
  H       -5.4853170     0.0231860     0.5310900
  H       -4.0942820    -0.3029910     1.5815520
  H        3.6028580    -1.6773980    -0.0043180
units angstrom
no_reorient  #important for SAPT in psi4, default
symmetry c1  #important for SAPT in psi4, default
}

set PROPERTIES_ORIGIN ["COM"]
properties('MP2/aug-cc-pvtz', properties = ['dipole'])
--------------------------------------------------------------------------

    Molecular point group: c1
  Charge       = 0
  Multiplicity = 1
  Basis Set: AUG-CC-PVTZ
    Blend: AUG-CC-PVTZ
  Basis Set: (AUG-CC-PVTZ AUX)
    Blend: AUG-CC-PVTZ-JKFIT

    Orbital Energies [Eh]
    ---------------------

    Doubly Occupied:

       1A    -20.560185     2A    -11.287927     3A    -11.242593
       4A    -11.231051     5A    -11.229347     6A    -11.227448
       7A    -11.221930     8A    -11.214927     9A    -11.206602
      10A     -1.362189    11A     -1.120625    12A     -1.059665
      13A     -1.029880    14A     -0.950669    15A     -0.891538
      16A     -0.825428    17A     -0.764975    18A     -0.742426
      19A     -0.693205    20A     -0.642469    21A     -0.636501
      22A     -0.617824    23A     -0.595886    24A     -0.580575
      25A     -0.548385    26A     -0.545971    27A     -0.523692
      28A     -0.518571    29A     -0.498738    30A     -0.488399
      31A     -0.484610    32A     -0.460414    33A     -0.449389
      34A     -0.438289    35A     -0.265408

  @DF-RHF Final Energy:  -385.99136874876706

   => Energetics <=

    Nuclear Repulsion Energy =            419.3131906984711463
    One-Electron Energy =               -1354.2936590904914738
    Two-Electron Energy =                 548.9890996432533257
    Total Energy =                       -385.9913687487670586
  Basis Set: (AUG-CC-PVTZ AUX)
    Blend: AUG-CC-PVTZ-RI
    Molecular point group: c1

    Geometry (in Angstrom), charge = 0, multiplicity = 1:

       Center              X                  Y                   Z               Mass
    ------------   -----------------  -----------------  -----------------  -----------------
         O            2.675774878245    -1.326984048299    -0.026653053924    15.994914619570
         C            2.733364878245     0.032948951701     0.406758946076    12.000000000000
         C            1.343191878245     0.583983951701     0.395166946076    12.000000000000
         C           -3.566692121755     0.369618951701    -0.410381053924    12.000000000000
         C            3.653415878245     0.848494951701    -0.496077053924    12.000000000000
         C            0.252922878245    -0.094966048299    -0.000881053924    12.000000000000
         C           -2.180673121755    -0.192971048299    -0.409271053924    12.000000000000
         C           -0.897228521755     0.398454251701    -0.015493153924    12.000000000000
         C           -4.487770121755    -0.376020048299     0.558174946076    12.000000000000
         H            3.118628878245     0.076303951701     1.440261946076     1.007825032230
         H            1.248029878245     1.619390951701     0.725085946076     1.007825032230
         H           -3.528841121755     1.432390951701    -0.144497053924     1.007825032230
         H           -3.988834121755     0.312529951701    -1.422224053924     1.007825032230
         H            3.288517878245     0.790259951701    -1.523941053924     1.007825032230
         H            3.681562878245     1.897434951701    -0.187312053924     1.007825032230
         H            4.677334878245     0.460215951701    -0.461036053924     1.007825032230
         H            0.366615878245    -1.127516048299    -0.323139053924     1.007825032230
         H           -2.074811121755    -1.231178048299    -0.730615053924     1.007825032230
         H           -1.182295121755     1.515046951701     0.306283946076     1.007825032230
         H           -4.543009121755    -1.438276048299     0.303116946076     1.007825032230
         H           -5.502806121755     0.030688951701     0.530867946076     1.007825032230
         H           -4.111771121755    -0.295488048299     1.581329946076     1.007825032230
         H            3.585368878245    -1.669895048299    -0.004540053924     1.007825032230

  Basis Set: AUG-CC-PVTZ
    Blend: AUG-CC-PVTZ
  Basis Set: (AUG-CC-PVTZ AUX)
    Blend: AUG-CC-PVTZ-JKFIT
	 Reference Energy          =    -385.9913687487670586 [Eh]
	 Singles Energy            =      -0.0000000000000000 [Eh]
	 Same-Spin Energy          =      -0.4070310831696426 [Eh]
	 Opposite-Spin Energy      =      -1.3885657379664171 [Eh]
	 Correlation Energy        =      -1.7955968211360598 [Eh]
	 Total Energy              =    -387.7869655699031455 [Eh]

	 ================> DF-SCS-MP2 Energies <==================
	-----------------------------------------------------------
	 SCS Same-Spin Scale       =       0.3333333333333333 [-]
	 SCS Opposite-Spin Scale   =       1.2000000000000000 [-]
	 SCS Same-Spin Energy      =      -0.1356770277232142 [Eh]
	 SCS Opposite-Spin Energy  =      -1.6662788855597006 [Eh]
	 SCS Correlation Energy    =      -1.8019559132829148 [Eh]
	 SCS Total Energy          =    -387.7933246620499972 [Eh]
	-----------------------------------------------------------

  Dipole Moment: [D]
     X:     1.3058      Y:     0.6827      Z:     0.3227     Total:     1.5084

*** Psi4 exiting successfully. Buy a developer a beer!
