                               Psi4 1.3.2 release

  ==> Input File <==

--------------------------------------------------------------------------
#psi4
#
memory 32 gb

molecule  {
0 1
  O        2.6932640    -1.3344870    -0.0264310
  C        2.7508540     0.0254460     0.4069810
  C        1.3606810     0.5764810     0.3953890
  C       -3.5492030     0.3621160    -0.4101590
  C        3.6709050     0.8409920    -0.4958550
  C        0.2704120    -0.1024690    -0.0006590
  C       -2.1631840    -0.2004740    -0.4090490
  C       -1.0635270     0.4697970    -0.0176060
  C       -4.4702810    -0.3835230     0.5583970
  H        3.1361180     0.0688010     1.4404840
  H        1.2655190     1.6118880     0.7253080
  H       -3.5113520     1.4248880    -0.1442750
  H       -3.9713450     0.3050270    -1.4220020
  H        3.3060070     0.7827570    -1.5237190
  H        3.6990520     1.8899320    -0.1870900
  H        4.6948240     0.4527130    -0.4608140
  H        0.3841050    -1.1350190    -0.3229170
  H       -2.0573220    -1.2386810    -0.7303930
  H       -1.1462549     1.3174614     0.2471389
  H       -4.5255200    -1.4457790     0.3033390
  H       -5.4853170     0.0231860     0.5310900
  H       -4.0942820    -0.3029910     1.5815520
  H        3.6028580    -1.6773980    -0.0043180
units angstrom
no_reorient  #important for SAPT in psi4, default
symmetry c1  #important for SAPT in psi4, default
}

set PROPERTIES_ORIGIN ["COM"]
properties('MP2/aug-cc-pvtz', properties = ['dipole'])
--------------------------------------------------------------------------

    Molecular point group: c1
  Charge       = 0
  Multiplicity = 1
  Basis Set: AUG-CC-PVTZ
    Blend: AUG-CC-PVTZ
  Basis Set: (AUG-CC-PVTZ AUX)
    Blend: AUG-CC-PVTZ-JKFIT

    Orbital Energies [Eh]
    ---------------------

    Doubly Occupied:

       1A    -20.558181     2A    -11.286013     3A    -11.224817
       4A    -11.223476     5A    -11.222262     6A    -11.220422
       7A    -11.220170     8A    -11.213066     9A    -11.198773
      10A     -1.360060    11A     -1.103346    12A     -1.061105
      13A     -1.018744    14A     -0.964679    15A     -0.878052
      16A     -0.831511    17A     -0.779082    18A     -0.748588
      19A     -0.698441    20A     -0.640571    21A     -0.627951
      22A     -0.617986    23A     -0.597712    24A     -0.583770
      25A     -0.546966    26A     -0.544996    27A     -0.533374
      28A     -0.518590    29A     -0.502403    30A     -0.494615
      31A     -0.479586    32A     -0.468858    33A     -0.452446
      34A     -0.417406    35A     -0.296834

  @DF-RHF Final Energy:  -386.02897351609585

   => Energetics <=

    Nuclear Repulsion Energy =            419.0521549320963004
    One-Electron Energy =               -1353.8925606712832632
    Two-Electron Energy =                 548.8114322230910602
    Total Energy =                       -386.0289735160959026
  Basis Set: (AUG-CC-PVTZ AUX)
    Blend: AUG-CC-PVTZ-RI
    Molecular point group: c1

    Geometry (in Angstrom), charge = 0, multiplicity = 1:

       Center              X                  Y                   Z               Mass
    ------------   -----------------  -----------------  -----------------  -----------------
         O            2.693115699094    -1.332967804679    -0.025956405717    15.994914619570
         C            2.750705699094     0.026965195321     0.407455594283    12.000000000000
         C            1.360532699094     0.578000195321     0.395863594283    12.000000000000
         C           -3.549351300906     0.363635195321    -0.409684405717    12.000000000000
         C            3.670756699094     0.842511195321    -0.495380405717    12.000000000000
         C            0.270263699094    -0.100949804679    -0.000184405717    12.000000000000
         C           -2.163332300906    -0.198954804679    -0.408574405717    12.000000000000
         C           -1.063675300906     0.471316195321    -0.017131405717    12.000000000000
         C           -4.470429300906    -0.382003804679     0.558871594283    12.000000000000
         H            3.135969699094     0.070320195321     1.440958594283     1.007825032230
         H            1.265370699094     1.613407195321     0.725782594283     1.007825032230
         H           -3.511500300906     1.426407195321    -0.143800405717     1.007825032230
         H           -3.971493300906     0.306546195321    -1.421527405717     1.007825032230
         H            3.305858699094     0.784276195321    -1.523244405717     1.007825032230
         H            3.698903699094     1.891451195321    -0.186615405717     1.007825032230
         H            4.694675699094     0.454232195321    -0.460339405717     1.007825032230
         H            0.383956699094    -1.133499804679    -0.322442405717     1.007825032230
         H           -2.057470300906    -1.237161804679    -0.729918405717     1.007825032230
         H           -1.146403200906     1.318980595321     0.247613494283     1.007825032230
         H           -4.525668300906    -1.444259804679     0.303813594283     1.007825032230
         H           -5.485465300906     0.024705195321     0.531564594283     1.007825032230
         H           -4.094430300906    -0.301471804679     1.582026594283     1.007825032230
         H            3.602709699094    -1.675878804679    -0.003843405717     1.007825032230

  Basis Set: AUG-CC-PVTZ
    Blend: AUG-CC-PVTZ
  Basis Set: (AUG-CC-PVTZ AUX)
    Blend: AUG-CC-PVTZ-JKFIT
	 Reference Energy          =    -386.0289735160958458 [Eh]
	 Singles Energy            =      -0.0000000000000000 [Eh]
	 Same-Spin Energy          =      -0.4000209737437035 [Eh]
	 Opposite-Spin Energy      =      -1.3776010313703502 [Eh]
	 Correlation Energy        =      -1.7776220051140537 [Eh]
	 Total Energy              =    -387.8065955212098856 [Eh]

	 ================> DF-SCS-MP2 Energies <==================
	-----------------------------------------------------------
	 SCS Same-Spin Scale       =       0.3333333333333333 [-]
	 SCS Opposite-Spin Scale   =       1.2000000000000000 [-]
	 SCS Same-Spin Energy      =      -0.1333403245812345 [Eh]
	 SCS Opposite-Spin Energy  =      -1.6531212376444202 [Eh]
	 SCS Correlation Energy    =      -1.7864615622256548 [Eh]
	 SCS Total Energy          =    -387.8154350783215136 [Eh]
	-----------------------------------------------------------

  Dipole Moment: [D]
     X:     1.1492      Y:     0.7916      Z:     0.3240     Total:     1.4326

*** Psi4 exiting successfully. Buy a developer a beer!
