                               Psi4 1.3.2 release

  ==> Input File <==

--------------------------------------------------------------------------
#psi4
#
memory 32 gb

molecule  {
0 1
  O        2.6932640    -1.3344870    -0.0264310
  C        2.7508540     0.0254460     0.4069810
  C        1.3606810     0.5764810     0.3953890
  C       -3.5492030     0.3621160    -0.4101590
  C        3.6709050     0.8409920    -0.4958550
  C        0.2609182    -0.1242950    -0.0093399
  C       -2.1499060    -0.2193926    -0.4132506
  C       -1.0635270     0.4697970    -0.0176060
  C       -4.4702810    -0.3835230     0.5583970
  H        3.1361180     0.0688010     1.4404840
  H        1.2655190     1.6118880     0.7253080
  H       -3.5113520     1.4248880    -0.1442750
  H       -3.9713450     0.3050270    -1.4220020
  H        3.3060070     0.7827570    -1.5237190
  H        3.6990520     1.8899320    -0.1870900
  H        4.6948240     0.4527130    -0.4608140
  H        0.3841050    -1.1350190    -0.3229170
  H       -2.0573220    -1.2386810    -0.7303930
  H       -1.1648060     1.5075440     0.3065060
  H       -4.5255200    -1.4457790     0.3033390
  H       -5.4853170     0.0231860     0.5310900
  H       -4.0942820    -0.3029910     1.5815520
  H        3.6028580    -1.6773980    -0.0043180
units angstrom
no_reorient  #important for SAPT in psi4, default
symmetry c1  #important for SAPT in psi4, default
}

set PROPERTIES_ORIGIN ["COM"]
properties('MP2/aug-cc-pvtz', properties = ['dipole'])
--------------------------------------------------------------------------

    Molecular point group: c1
  Charge       = 0
  Multiplicity = 1
  Basis Set: AUG-CC-PVTZ
    Blend: AUG-CC-PVTZ
  Basis Set: (AUG-CC-PVTZ AUX)
    Blend: AUG-CC-PVTZ-JKFIT

    Orbital Energies [Eh]
    ---------------------

    Doubly Occupied:

       1A    -20.558618     2A    -11.285994     3A    -11.225342
       4A    -11.224899     5A    -11.223710     6A    -11.223391
       7A    -11.222872     8A    -11.220282     9A    -11.212192
      10A     -1.360463    11A     -1.096183    12A     -1.058212
      13A     -1.015573    14A     -0.960461    15A     -0.875437
      16A     -0.826297    17A     -0.755406    18A     -0.750627
      19A     -0.695444    20A     -0.638233    21A     -0.625253
      22A     -0.616331    23A     -0.589395    24A     -0.580971
      25A     -0.547613    26A     -0.544659    27A     -0.528804
      28A     -0.517094    29A     -0.504479    30A     -0.491558
      31A     -0.481041    32A     -0.465355    33A     -0.452330
      34A     -0.417192    35A     -0.294292

  @DF-RHF Final Energy:  -386.06045577223779

   => Energetics <=

    Nuclear Repulsion Energy =            417.7204545575804104
    One-Electron Energy =               -1351.3898149999035923
    Two-Electron Energy =                 547.6089046700853942
    Total Energy =                       -386.0604557722377876
  Basis Set: (AUG-CC-PVTZ AUX)
    Blend: AUG-CC-PVTZ-RI
    Molecular point group: c1

    Geometry (in Angstrom), charge = 0, multiplicity = 1:

       Center              X                  Y                   Z               Mass
    ------------   -----------------  -----------------  -----------------  -----------------
         O            2.692903857768    -1.330609718490    -0.025204978315    15.994914619570
         C            2.750493857768     0.029323281510     0.408207021685    12.000000000000
         C            1.360320857768     0.580358281510     0.396615021685    12.000000000000
         C           -3.549563142232     0.365993281510    -0.408932978315    12.000000000000
         C            3.670544857768     0.844869281510    -0.494628978315    12.000000000000
         C            0.260558057768    -0.120417718490    -0.008113878315    12.000000000000
         C           -2.150266142232    -0.215515318490    -0.412024578315    12.000000000000
         C           -1.063887142232     0.473674281510    -0.016379978315    12.000000000000
         C           -4.470641142232    -0.379645718490     0.559623021685    12.000000000000
         H            3.135757857768     0.072678281510     1.441710021685     1.007825032230
         H            1.265158857768     1.615765281510     0.726534021685     1.007825032230
         H           -3.511712142232     1.428765281510    -0.143048978315     1.007825032230
         H           -3.971705142232     0.308904281510    -1.420775978315     1.007825032230
         H            3.305646857768     0.786634281510    -1.522492978315     1.007825032230
         H            3.698691857768     1.893809281510    -0.185863978315     1.007825032230
         H            4.694463857768     0.456590281510    -0.459587978315     1.007825032230
         H            0.383744857768    -1.131141718490    -0.321690978315     1.007825032230
         H           -2.057682142232    -1.234803718490    -0.729166978315     1.007825032230
         H           -1.165166142232     1.511421281510     0.307732021685     1.007825032230
         H           -4.525880142232    -1.441901718490     0.304565021685     1.007825032230
         H           -5.485677142232     0.027063281510     0.532316021685     1.007825032230
         H           -4.094642142232    -0.299113718490     1.582778021685     1.007825032230
         H            3.602497857768    -1.673520718490    -0.003091978315     1.007825032230

  Basis Set: AUG-CC-PVTZ
    Blend: AUG-CC-PVTZ
  Basis Set: (AUG-CC-PVTZ AUX)
    Blend: AUG-CC-PVTZ-JKFIT
	 Reference Energy          =    -386.0604557722377876 [Eh]
	 Singles Energy            =      -0.0000000000000000 [Eh]
	 Same-Spin Energy          =      -0.4003786813067609 [Eh]
	 Opposite-Spin Energy      =      -1.3787097177393834 [Eh]
	 Correlation Energy        =      -1.7790883990461444 [Eh]
	 Total Energy              =    -387.8395441712839329 [Eh]

	 ================> DF-SCS-MP2 Energies <==================
	-----------------------------------------------------------
	 SCS Same-Spin Scale       =       0.3333333333333333 [-]
	 SCS Opposite-Spin Scale   =       1.2000000000000000 [-]
	 SCS Same-Spin Energy      =      -0.1334595604355869 [Eh]
	 SCS Opposite-Spin Energy  =      -1.6544516612872602 [Eh]
	 SCS Correlation Energy    =      -1.7879112217228470 [Eh]
	 SCS Total Energy          =    -387.8483669939606102 [Eh]
	-----------------------------------------------------------

  Dipole Moment: [D]
     X:     1.2191      Y:     0.7211      Z:     0.3068     Total:     1.4492

*** Psi4 exiting successfully. Buy a developer a beer!
