                               Psi4 1.4a3.dev225

  ==> Input File <==

--------------------------------------------------------------------------
#psi4
#
memory 32 gb

molecule  {
0 1
  O       -2.7161510     1.3794200    -0.1343610
  C       -2.7832390     0.0721360     0.4401970
  C       -1.3979030    -0.4954620     0.4743180
  C        3.5083460    -0.4405980    -0.4123350
  C       -3.7239960    -0.8239440    -0.3625680
  C       -0.3030690     0.1219220    -0.0067100
  C        2.1743570     0.1200773    -0.4530023
  C        1.0245920    -0.4684390     0.0236420
  C        4.4606410     0.4027870     0.4416180
  H       -3.1581590     0.1412460     1.4762970
  H       -1.3112260    -1.4900120     0.9147240
  H        3.4619600    -1.4629760    -0.0187660
  H        3.9104550    -0.5133060    -1.4317100
  H       -3.3684670    -0.8811940    -1.3941910
  H       -3.7626400    -1.8335820     0.0574350
  H       -4.7426360    -0.4191700    -0.3608330
  H       -0.4078810     1.1149080    -0.4388390
  H        2.0311270     1.1370710    -0.8883280
  H        1.1170930    -1.4649260     0.4609700
  H        4.5263310     1.4251690     0.0574090
  H        5.4690900    -0.0219830     0.4454750
  H        4.1044230     0.4539160     1.4740500
  H       -3.6221830     1.7324190    -0.1413340
units angstrom
no_reorient  #important for SAPT in psi4, default
symmetry c1  #important for SAPT in psi4, default
}

set PROPERTIES_ORIGIN ["COM"]
properties('MP2/aug-cc-pvtz', properties = ['dipole'])
--------------------------------------------------------------------------

    Molecular point group: c1
  Charge       = 0
  Multiplicity = 1
  Basis Set: AUG-CC-PVTZ
    Blend: AUG-CC-PVTZ
  Basis Set: (AUG-CC-PVTZ AUX)
    Blend: AUG-CC-PVTZ-JKFIT

    Orbital Energies [Eh]
    ---------------------

    Doubly Occupied:

       1A    -20.558968     2A    -11.287350     3A    -11.230305
       4A    -11.227367     5A    -11.224995     6A    -11.223368
       7A    -11.221963     8A    -11.221112     9A    -11.214104
      10A     -1.360311    11A     -1.097489    12A     -1.064921
      13A     -1.015854    14A     -0.959315    15A     -0.880177
      16A     -0.829712    17A     -0.750456    18A     -0.747087
      19A     -0.694460    20A     -0.636959    21A     -0.629815
      22A     -0.616911    23A     -0.592054    24A     -0.582874
      25A     -0.546325    26A     -0.541983    27A     -0.526318
      28A     -0.520561    29A     -0.502922    30A     -0.493457
      31A     -0.475570    32A     -0.473610    33A     -0.452872
      34A     -0.414583    35A     -0.292878

  @DF-RHF Final Energy:  -386.05711860283481

   => Energetics <=

    Nuclear Repulsion Energy =            417.4572984267536526
    One-Electron Energy =               -1350.8108240488165848
    Two-Electron Energy =                 547.2964070192281270
    Total Energy =                       -386.0571186028348620
  Basis Set: (AUG-CC-PVTZ AUX)
    Blend: AUG-CC-PVTZ-RI
    Molecular point group: c1

    Geometry (in Angstrom), charge = 0, multiplicity = 1:

       Center              X                  Y                   Z               Mass
    ------------   -----------------  -----------------  -----------------  -----------------
         O           -2.687227891059     1.364934059951    -0.132829288914    15.994914619570
         C           -2.754315891059     0.057650059951     0.441728711086    12.000000000000
         C           -1.368979891059    -0.509947940049     0.475849711086    12.000000000000
         C            3.537269108941    -0.455083940049    -0.410803288914    12.000000000000
         C           -3.695072891059    -0.838429940049    -0.361036288914    12.000000000000
         C           -0.274145891059     0.107436059951    -0.005178288914    12.000000000000
         C            2.203280108941     0.105591359951    -0.451470588914    12.000000000000
         C            1.053515108941    -0.482924940049     0.025173711086    12.000000000000
         C            4.489564108941     0.388301059951     0.443149711086    12.000000000000
         H           -3.129235891059     0.126760059951     1.477828711086     1.007825032230
         H           -1.282302891059    -1.504497940049     0.916255711086     1.007825032230
         H            3.490883108941    -1.477461940049    -0.017234288914     1.007825032230
         H            3.939378108941    -0.527791940049    -1.430178288914     1.007825032230
         H           -3.339543891059    -0.895679940049    -1.392659288914     1.007825032230
         H           -3.733716891059    -1.848067940049     0.058966711086     1.007825032230
         H           -4.713712891059    -0.433655940049    -0.359301288914     1.007825032230
         H           -0.378957891059     1.100422059951    -0.437307288914     1.007825032230
         H            2.060050108941     1.122585059951    -0.886796288914     1.007825032230
         H            1.146016108941    -1.479411940049     0.462501711086     1.007825032230
         H            4.555254108941     1.410683059951     0.058940711086     1.007825032230
         H            5.498013108941    -0.036468940049     0.447006711086     1.007825032230
         H            4.133346108941     0.439430059951     1.475581711086     1.007825032230
         H           -3.593259891059     1.717933059951    -0.139802288914     1.007825032230

  Basis Set: AUG-CC-PVTZ
    Blend: AUG-CC-PVTZ
  Basis Set: (AUG-CC-PVTZ AUX)
    Blend: AUG-CC-PVTZ-JKFIT
	 Reference Energy          =    -386.0571186028348052 [Eh]
	 Singles Energy            =      -0.0000000000000000 [Eh]
	 Same-Spin Energy          =      -0.4012437971350306 [Eh]
	 Opposite-Spin Energy      =      -1.3797963712425165 [Eh]
	 Correlation Energy        =      -1.7810401683775472 [Eh]
	 Total Energy              =    -387.8381587712123633 [Eh]

	 ================> DF-SCS-MP2 Energies <==================
	-----------------------------------------------------------
	 SCS Same-Spin Scale       =       0.3333333333333333 [-]
	 SCS Opposite-Spin Scale   =       1.2000000000000000 [-]
	 SCS Same-Spin Energy      =      -0.1337479323783435 [Eh]
	 SCS Opposite-Spin Energy  =      -1.6557556454910198 [Eh]
	 SCS Correlation Energy    =      -1.7895035778693633 [Eh]
	 SCS Total Energy          =    -387.8466221807041734 [Eh]
	-----------------------------------------------------------

  Dipole Moment: [D]
     X:    -1.1748      Y:    -0.6972      Z:     0.3910     Total:     1.4209

*** Psi4 exiting successfully. Buy a developer a beer!
