                               Psi4 1.4a3.dev225

  ==> Input File <==

--------------------------------------------------------------------------
#psi4
#
memory 32 gb

molecule  {
0 1
  O       -2.7161510     1.3794200    -0.1343610
  C       -2.7808925     0.1178597     0.4201012
  C       -1.3979030    -0.4954620     0.4743180
  C        3.5083460    -0.4405980    -0.4123350
  C       -3.7239960    -0.8239440    -0.3625680
  C       -0.3030690     0.1219220    -0.0067100
  C        2.1282810     0.1394430    -0.4544070
  C        1.0245920    -0.4684390     0.0236420
  C        4.4606410     0.4027870     0.4416180
  H       -3.1581590     0.1412460     1.4762970
  H       -1.3112260    -1.4900120     0.9147240
  H        3.4619600    -1.4629760    -0.0187660
  H        3.9104550    -0.5133060    -1.4317100
  H       -3.3684670    -0.8811940    -1.3941910
  H       -3.7626400    -1.8335820     0.0574350
  H       -4.7426360    -0.4191700    -0.3608330
  H       -0.4078810     1.1149080    -0.4388390
  H        2.0311270     1.1370710    -0.8883280
  H        1.1170930    -1.4649260     0.4609700
  H        4.5263310     1.4251690     0.0574090
  H        5.4690900    -0.0219830     0.4454750
  H        4.1044230     0.4539160     1.4740500
  H       -3.6221830     1.7324190    -0.1413340
units angstrom
no_reorient  #important for SAPT in psi4, default
symmetry c1  #important for SAPT in psi4, default
}

set PROPERTIES_ORIGIN ["COM"]
properties('MP2/aug-cc-pvtz', properties = ['dipole'])
--------------------------------------------------------------------------

    Molecular point group: c1
  Charge       = 0
  Multiplicity = 1
  Basis Set: AUG-CC-PVTZ
    Blend: AUG-CC-PVTZ
  Basis Set: (AUG-CC-PVTZ AUX)
    Blend: AUG-CC-PVTZ-JKFIT

    Orbital Energies [Eh]
    ---------------------

    Doubly Occupied:

       1A    -20.565226     2A    -11.288078     3A    -11.225585
       4A    -11.223653     5A    -11.223259     6A    -11.223013
       7A    -11.221140     8A    -11.219862     9A    -11.212733
      10A     -1.382047    11A     -1.095913    12A     -1.057788
      13A     -1.011859    14A     -0.960330    15A     -0.874876
      16A     -0.828119    17A     -0.753013    18A     -0.750220
      19A     -0.699923    20A     -0.641567    21A     -0.626179
      22A     -0.621624    23A     -0.591393    24A     -0.583108
      25A     -0.548168    26A     -0.541700    27A     -0.531599
      28A     -0.517819    29A     -0.502670    30A     -0.490361
      31A     -0.478364    32A     -0.463364    33A     -0.449686
      34A     -0.415291    35A     -0.295950

  @DF-RHF Final Energy:  -386.06084095354305

   => Energetics <=

    Nuclear Repulsion Energy =            417.8301961838748184
    One-Electron Energy =               -1351.5511145488676448
    Two-Electron Energy =                 547.6600774114497199
    Total Energy =                       -386.0608409535431065
  Basis Set: (AUG-CC-PVTZ AUX)
    Blend: AUG-CC-PVTZ-RI
    Molecular point group: c1

    Geometry (in Angstrom), charge = 0, multiplicity = 1:

       Center              X                  Y                   Z               Mass
    ------------   -----------------  -----------------  -----------------  -----------------
         O           -2.683066626827     1.358740204725    -0.130783318536    15.994914619570
         C           -2.747808126827     0.097179904725     0.423678881464    12.000000000000
         C           -1.364818626827    -0.516141795275     0.477895681464    12.000000000000
         C            3.541430373173    -0.461277795275    -0.408757318536    12.000000000000
         C           -3.690911626827    -0.844623795275    -0.358990318536    12.000000000000
         C           -0.269984626827     0.101242204725    -0.003132318536    12.000000000000
         C            2.161365373173     0.118763204725    -0.450829318536    12.000000000000
         C            1.057676373173    -0.489118795275     0.027219681464    12.000000000000
         C            4.493725373173     0.382107204725     0.445195681464    12.000000000000
         H           -3.125074626827     0.120566204725     1.479874681464     1.007825032230
         H           -1.278141626827    -1.510691795275     0.918301681464     1.007825032230
         H            3.495044373173    -1.483655795275    -0.015188318536     1.007825032230
         H            3.943539373173    -0.533985795275    -1.428132318536     1.007825032230
         H           -3.335382626827    -0.901873795275    -1.390613318536     1.007825032230
         H           -3.729555626827    -1.854261795275     0.061012681464     1.007825032230
         H           -4.709551626827    -0.439849795275    -0.357255318536     1.007825032230
         H           -0.374796626827     1.094228204725    -0.435261318536     1.007825032230
         H            2.064211373173     1.116391204725    -0.884750318536     1.007825032230
         H            1.150177373173    -1.485605795275     0.464547681464     1.007825032230
         H            4.559415373173     1.404489204725     0.060986681464     1.007825032230
         H            5.502174373173    -0.042662795275     0.449052681464     1.007825032230
         H            4.137507373173     0.433236204725     1.477627681464     1.007825032230
         H           -3.589098626827     1.711739204725    -0.137756318536     1.007825032230

  Basis Set: AUG-CC-PVTZ
    Blend: AUG-CC-PVTZ
  Basis Set: (AUG-CC-PVTZ AUX)
    Blend: AUG-CC-PVTZ-JKFIT
	 Reference Energy          =    -386.0608409535430496 [Eh]
	 Singles Energy            =      -0.0000000000000000 [Eh]
	 Same-Spin Energy          =      -0.4002000702604718 [Eh]
	 Opposite-Spin Energy      =      -1.3776782929443496 [Eh]
	 Correlation Energy        =      -1.7778783632048214 [Eh]
	 Total Energy              =    -387.8387193167478699 [Eh]

	 ================> DF-SCS-MP2 Energies <==================
	-----------------------------------------------------------
	 SCS Same-Spin Scale       =       0.3333333333333333 [-]
	 SCS Opposite-Spin Scale   =       1.2000000000000000 [-]
	 SCS Same-Spin Energy      =      -0.1334000234201573 [Eh]
	 SCS Opposite-Spin Energy  =      -1.6532139515332196 [Eh]
	 SCS Correlation Energy    =      -1.7866139749533769 [Eh]
	 SCS Total Energy          =    -387.8474549284964041 [Eh]
	-----------------------------------------------------------

  Dipole Moment: [D]
     X:    -1.2531      Y:    -0.5220      Z:     0.3448     Total:     1.4005

*** Psi4 exiting successfully. Buy a developer a beer!
