                               Psi4 1.3.2 release

  ==> Input File <==

--------------------------------------------------------------------------
#psi4
#
memory 32 gb

molecule  {
0 1
  O        2.7110542    -1.3484850     0.0179953
  C        2.7508540     0.0254460     0.4069810
  C        1.3606810     0.5764810     0.3953890
  C       -3.5492030     0.3621160    -0.4101590
  C        3.6709050     0.8409920    -0.4958550
  C        0.2704120    -0.1024690    -0.0006590
  C       -2.1631840    -0.2004740    -0.4090490
  C       -1.0635270     0.4697970    -0.0176060
  C       -4.4702810    -0.3835230     0.5583970
  H        3.1390238     0.0303823     1.4402943
  H        1.2655190     1.6118880     0.7253080
  H       -3.5113520     1.4248880    -0.1442750
  H       -3.9713450     0.3050270    -1.4220020
  H        3.3060070     0.7827570    -1.5237190
  H        3.6990520     1.8899320    -0.1870900
  H        4.6948240     0.4527130    -0.4608140
  H        0.3841050    -1.1350190    -0.3229170
  H       -2.0573220    -1.2386810    -0.7303930
  H       -1.1648060     1.5075440     0.3065060
  H       -4.5255200    -1.4457790     0.3033390
  H       -5.4853170     0.0231860     0.5310900
  H       -4.0942820    -0.3029910     1.5815520
  H        3.6028580    -1.6773980    -0.0043180
units angstrom
no_reorient  #important for SAPT in psi4, default
symmetry c1  #important for SAPT in psi4, default
}

set PROPERTIES_ORIGIN ["COM"]
properties('MP2/aug-cc-pvtz', properties = ['dipole'])
--------------------------------------------------------------------------

    Molecular point group: c1
  Charge       = 0
  Multiplicity = 1
  Basis Set: AUG-CC-PVTZ
    Blend: AUG-CC-PVTZ
  Basis Set: (AUG-CC-PVTZ AUX)
    Blend: AUG-CC-PVTZ-JKFIT

    Orbital Energies [Eh]
    ---------------------

    Doubly Occupied:

       1A    -20.554474     2A    -11.286412     3A    -11.226327
       4A    -11.224283     5A    -11.223574     6A    -11.223373
       7A    -11.222449     8A    -11.221629     9A    -11.212983
      10A     -1.363432    11A     -1.098407    12A     -1.062064
      13A     -1.016572    14A     -0.962782    15A     -0.877389
      16A     -0.829651    17A     -0.753628    18A     -0.749873
      19A     -0.694105    20A     -0.637946    21A     -0.628353
      22A     -0.619385    23A     -0.590837    24A     -0.583619
      25A     -0.546679    26A     -0.544152    27A     -0.527481
      28A     -0.519114    29A     -0.501312    30A     -0.491683
      31A     -0.479388    32A     -0.468520    33A     -0.451888
      34A     -0.418435    35A     -0.297940

  @DF-RHF Final Energy:  -386.06338579498305

   => Energetics <=

    Nuclear Repulsion Energy =            417.7862450524705764
    One-Electron Energy =               -1351.4789868783282145
    Two-Electron Energy =                 547.6293560308745327
    Total Energy =                       -386.0633857949831054
  Basis Set: (AUG-CC-PVTZ AUX)
    Blend: AUG-CC-PVTZ-RI
    Molecular point group: c1

    Geometry (in Angstrom), charge = 0, multiplicity = 1:

       Center              X                  Y                   Z               Mass
    ------------   -----------------  -----------------  -----------------  -----------------
         O            2.708774451925    -1.346402413527     0.012361979389    15.994914619570
         C            2.748574251925     0.027528586473     0.401347679389    12.000000000000
         C            1.358401251925     0.578563586473     0.389755679389    12.000000000000
         C           -3.551482748075     0.364198586473    -0.415792320611    12.000000000000
         C            3.668625251925     0.843074586473    -0.501488320611    12.000000000000
         C            0.268132251925    -0.100386413527    -0.006292320611    12.000000000000
         C           -2.165463748075    -0.198391413527    -0.414682320611    12.000000000000
         C           -1.065806748075     0.471879586473    -0.023239320611    12.000000000000
         C           -4.472560748075    -0.381440413527     0.552763679389    12.000000000000
         H            3.136744051925     0.032464886473     1.434660979389     1.007825032230
         H            1.263239251925     1.613970586473     0.719674679389     1.007825032230
         H           -3.513631748075     1.426970586473    -0.149908320611     1.007825032230
         H           -3.973624748075     0.307109586473    -1.427635320611     1.007825032230
         H            3.303727251925     0.784839586473    -1.529352320611     1.007825032230
         H            3.696772251925     1.892014586473    -0.192723320611     1.007825032230
         H            4.692544251925     0.454795586473    -0.466447320611     1.007825032230
         H            0.381825251925    -1.132936413527    -0.328550320611     1.007825032230
         H           -2.059601748075    -1.236598413527    -0.736026320611     1.007825032230
         H           -1.167085748075     1.509626586473     0.300872679389     1.007825032230
         H           -4.527799748075    -1.443696413527     0.297705679389     1.007825032230
         H           -5.487596748075     0.025268586473     0.525456679389     1.007825032230
         H           -4.096561748075    -0.300908413527     1.575918679389     1.007825032230
         H            3.600578251925    -1.675315413527    -0.009951320611     1.007825032230

  Basis Set: AUG-CC-PVTZ
    Blend: AUG-CC-PVTZ
  Basis Set: (AUG-CC-PVTZ AUX)
    Blend: AUG-CC-PVTZ-JKFIT
	 Reference Energy          =    -386.0633857949830485 [Eh]
	 Singles Energy            =      -0.0000000000000000 [Eh]
	 Same-Spin Energy          =      -0.3999292025697649 [Eh]
	 Opposite-Spin Energy      =      -1.3774205761573326 [Eh]
	 Correlation Energy        =      -1.7773497787270975 [Eh]
	 Total Energy              =    -387.8407355737101625 [Eh]

	 ================> DF-SCS-MP2 Energies <==================
	-----------------------------------------------------------
	 SCS Same-Spin Scale       =       0.3333333333333333 [-]
	 SCS Opposite-Spin Scale   =       1.2000000000000000 [-]
	 SCS Same-Spin Energy      =      -0.1333097341899216 [Eh]
	 SCS Opposite-Spin Energy  =      -1.6529046913887990 [Eh]
	 SCS Correlation Energy    =      -1.7862144255787207 [Eh]
	 SCS Total Energy          =    -387.8496002205617970 [Eh]
	-----------------------------------------------------------

  Dipole Moment: [D]
     X:     1.1677      Y:     0.7850      Z:     0.2115     Total:     1.4228

*** Psi4 exiting successfully. Buy a developer a beer!
