                               Psi4 1.3.2 release

  ==> Input File <==

--------------------------------------------------------------------------
#psi4
#
memory 32 gb

molecule  {
0 1
  O        2.6888266    -1.3307279    -0.0374572
  C        2.7508540     0.0254460     0.4069810
  C        1.3606810     0.5764810     0.3953890
  C       -3.5492030     0.3621160    -0.4101590
  C        3.6709050     0.8409920    -0.4958550
  C        0.2704120    -0.1024690    -0.0006590
  C       -2.1631840    -0.2004740    -0.4090490
  C       -1.0635270     0.4697970    -0.0176060
  C       -4.4702810    -0.3835230     0.5583970
  H        3.1353181     0.0783993     1.4403347
  H        1.2655190     1.6118880     0.7253080
  H       -3.5113520     1.4248880    -0.1442750
  H       -3.9713450     0.3050270    -1.4220020
  H        3.3060070     0.7827570    -1.5237190
  H        3.6990520     1.8899320    -0.1870900
  H        4.6948240     0.4527130    -0.4608140
  H        0.3841050    -1.1350190    -0.3229170
  H       -2.0573220    -1.2386810    -0.7303930
  H       -1.1648060     1.5075440     0.3065060
  H       -4.5255200    -1.4457790     0.3033390
  H       -5.4853170     0.0231860     0.5310900
  H       -4.0942820    -0.3029910     1.5815520
  H        3.6028580    -1.6773980    -0.0043180
units angstrom
no_reorient  #important for SAPT in psi4, default
symmetry c1  #important for SAPT in psi4, default
}

set PROPERTIES_ORIGIN ["COM"]
properties('MP2/aug-cc-pvtz', properties = ['dipole'])
--------------------------------------------------------------------------

    Molecular point group: c1
  Charge       = 0
  Multiplicity = 1
  Basis Set: AUG-CC-PVTZ
    Blend: AUG-CC-PVTZ
  Basis Set: (AUG-CC-PVTZ AUX)
    Blend: AUG-CC-PVTZ-JKFIT

    Orbital Energies [Eh]
    ---------------------

    Doubly Occupied:

       1A    -20.559773     2A    -11.286476     3A    -11.225799
       4A    -11.223479     5A    -11.223149     6A    -11.222847
       7A    -11.221554     8A    -11.220274     9A    -11.212743
      10A     -1.359879    11A     -1.097680    12A     -1.061112
      13A     -1.016017    14A     -0.962378    15A     -0.876408
      16A     -0.828291    17A     -0.752242    18A     -0.747446
      19A     -0.695444    20A     -0.637286    21A     -0.627873
      22A     -0.616017    23A     -0.589758    24A     -0.582510
      25A     -0.546517    26A     -0.543575    27A     -0.527401
      28A     -0.518627    29A     -0.500503    30A     -0.492528
      31A     -0.479043    32A     -0.467777    33A     -0.453121
      34A     -0.418207    35A     -0.297335

  @DF-RHF Final Energy:  -386.06199040820786

   => Energetics <=

    Nuclear Repulsion Energy =            418.0537054098689396
    One-Electron Energy =               -1352.0492555197265574
    Two-Electron Energy =                 547.9335597016497559
    Total Energy =                       -386.0619904082078619
  Basis Set: (AUG-CC-PVTZ AUX)
    Blend: AUG-CC-PVTZ-RI
    Molecular point group: c1

    Geometry (in Angstrom), charge = 0, multiplicity = 1:

       Center              X                  Y                   Z               Mass
    ------------   -----------------  -----------------  -----------------  -----------------
         O            2.689395785634    -1.331281350504    -0.036057325662    15.994914619570
         C            2.751423185634     0.024892549496     0.408380874338    12.000000000000
         C            1.361250185634     0.575927549496     0.396788874338    12.000000000000
         C           -3.548633814366     0.361562549496    -0.408759125662    12.000000000000
         C            3.671474185634     0.840438549496    -0.494455125662    12.000000000000
         C            0.270981185634    -0.103022450504     0.000740874338    12.000000000000
         C           -2.162614814366    -0.201027450504    -0.407649125662    12.000000000000
         C           -1.062957814366     0.469243549496    -0.016206125662    12.000000000000
         C           -4.469711814366    -0.384076450504     0.559796874338    12.000000000000
         H            3.135887285634     0.077845849496     1.441734574338     1.007825032230
         H            1.266088185634     1.611334549496     0.726707874338     1.007825032230
         H           -3.510782814366     1.424334549496    -0.142875125662     1.007825032230
         H           -3.970775814366     0.304473549496    -1.420602125662     1.007825032230
         H            3.306576185634     0.782203549496    -1.522319125662     1.007825032230
         H            3.699621185634     1.889378549496    -0.185690125662     1.007825032230
         H            4.695393185634     0.452159549496    -0.459414125662     1.007825032230
         H            0.384674185634    -1.135572450504    -0.321517125662     1.007825032230
         H           -2.056752814366    -1.239234450504    -0.728993125662     1.007825032230
         H           -1.164236814366     1.506990549496     0.307905874338     1.007825032230
         H           -4.524950814366    -1.446332450504     0.304738874338     1.007825032230
         H           -5.484747814366     0.022632549496     0.532489874338     1.007825032230
         H           -4.093712814366    -0.303544450504     1.582951874338     1.007825032230
         H            3.603427185634    -1.677951450504    -0.002918125662     1.007825032230

  Basis Set: AUG-CC-PVTZ
    Blend: AUG-CC-PVTZ
  Basis Set: (AUG-CC-PVTZ AUX)
    Blend: AUG-CC-PVTZ-JKFIT
	 Reference Energy          =    -386.0619904082078619 [Eh]
	 Singles Energy            =      -0.0000000000000000 [Eh]
	 Same-Spin Energy          =      -0.4004700171064999 [Eh]
	 Opposite-Spin Energy      =      -1.3785799905043079 [Eh]
	 Correlation Energy        =      -1.7790500076108078 [Eh]
	 Total Energy              =    -387.8410404158186680 [Eh]

	 ================> DF-SCS-MP2 Energies <==================
	-----------------------------------------------------------
	 SCS Same-Spin Scale       =       0.3333333333333333 [-]
	 SCS Opposite-Spin Scale   =       1.2000000000000000 [-]
	 SCS Same-Spin Energy      =      -0.1334900057021666 [Eh]
	 SCS Opposite-Spin Energy  =      -1.6542959886051694 [Eh]
	 SCS Correlation Energy    =      -1.7877859943073360 [Eh]
	 SCS Total Energy          =    -387.8497764025152037 [Eh]
	-----------------------------------------------------------

  Dipole Moment: [D]
     X:     1.2146      Y:     0.7142      Z:     0.3329     Total:     1.4478

*** Psi4 exiting successfully. Buy a developer a beer!
