                               Psi4 1.3.2 release

  ==> Input File <==

--------------------------------------------------------------------------
#psi4
#
memory 32 gb

molecule  {
0 1
  O        2.6932640    -1.3344870    -0.0264310
  C        2.7631941     0.0244103     0.4084118
  C        1.3606810     0.5764810     0.3953890
  C       -3.5492030     0.3621160    -0.4101590
  C        3.6709050     0.8409920    -0.4958550
  C        0.2704120    -0.1024690    -0.0006590
  C       -2.1631840    -0.2004740    -0.4090490
  C       -1.0635270     0.4697970    -0.0176060
  C       -4.4702810    -0.3835230     0.5583970
  H        3.1361180     0.0688010     1.4404840
  H        1.2655190     1.6118880     0.7253080
  H       -3.5113520     1.4248880    -0.1442750
  H       -3.9713450     0.3050270    -1.4220020
  H        3.3060070     0.7827570    -1.5237190
  H        3.6990520     1.8899320    -0.1870900
  H        4.6948240     0.4527130    -0.4608140
  H        0.3841050    -1.1350190    -0.3229170
  H       -2.0573220    -1.2386810    -0.7303930
  H       -1.1648060     1.5075440     0.3065060
  H       -4.5255200    -1.4457790     0.3033390
  H       -5.4853170     0.0231860     0.5310900
  H       -4.0942820    -0.3029910     1.5815520
  H        3.6055964    -1.6698519    -0.0015691
units angstrom
no_reorient  #important for SAPT in psi4, default
symmetry c1  #important for SAPT in psi4, default
}

set PROPERTIES_ORIGIN ["COM"]
properties('MP2/aug-cc-pvtz', properties = ['dipole'])
--------------------------------------------------------------------------

    Molecular point group: c1
  Charge       = 0
  Multiplicity = 1
  Basis Set: AUG-CC-PVTZ
    Blend: AUG-CC-PVTZ
  Basis Set: (AUG-CC-PVTZ AUX)
    Blend: AUG-CC-PVTZ-JKFIT

    Orbital Energies [Eh]
    ---------------------

    Doubly Occupied:

       1A    -20.559321     2A    -11.286314     3A    -11.225713
       4A    -11.223569     5A    -11.223137     6A    -11.222900
       7A    -11.221660     8A    -11.220603     9A    -11.212689
      10A     -1.361360    11A     -1.097300    12A     -1.060508
      13A     -1.016679    14A     -0.962497    15A     -0.875753
      16A     -0.828458    17A     -0.752436    18A     -0.747237
      19A     -0.695942    20A     -0.636801    21A     -0.627966
      22A     -0.617604    23A     -0.589870    24A     -0.582434
      25A     -0.547523    26A     -0.543922    27A     -0.527093
      28A     -0.518505    29A     -0.500282    30A     -0.492297
      31A     -0.478871    32A     -0.466614    33A     -0.453949
      34A     -0.418761    35A     -0.297494

  @DF-RHF Final Energy:  -386.06234231494489

   => Energetics <=

    Nuclear Repulsion Energy =            417.8998845988825792
    One-Electron Energy =               -1351.7363343702775182
    Two-Electron Energy =                 547.7741074564499968
    Total Energy =                       -386.0623423149448854
  Basis Set: (AUG-CC-PVTZ AUX)
    Blend: AUG-CC-PVTZ-RI
    Molecular point group: c1

    Geometry (in Angstrom), charge = 0, multiplicity = 1:

       Center              X                  Y                   Z               Mass
    ------------   -----------------  -----------------  -----------------  -----------------
         O            2.692067799917    -1.334448693963    -0.026588989659    15.994914619570
         C            2.761997899917     0.024448606037     0.408253810341    12.000000000000
         C            1.359484799917     0.576519306037     0.395231010341    12.000000000000
         C           -3.550399200083     0.362154306037    -0.410316989659    12.000000000000
         C            3.669708799917     0.841030306037    -0.496012989659    12.000000000000
         C            0.269215799917    -0.102430693963    -0.000816989659    12.000000000000
         C           -2.164380200083    -0.200435693963    -0.409206989659    12.000000000000
         C           -1.064723200083     0.469835306037    -0.017763989659    12.000000000000
         C           -4.471477200083    -0.383484693963     0.558239010341    12.000000000000
         H            3.134921799917     0.068839306037     1.440326010341     1.007825032230
         H            1.264322799917     1.611926306037     0.725150010341     1.007825032230
         H           -3.512548200083     1.424926306037    -0.144432989659     1.007825032230
         H           -3.972541200083     0.305065306037    -1.422159989659     1.007825032230
         H            3.304810799917     0.782795306037    -1.523876989659     1.007825032230
         H            3.697855799917     1.889970306037    -0.187247989659     1.007825032230
         H            4.693627799917     0.452751306037    -0.460971989659     1.007825032230
         H            0.382908799917    -1.134980693963    -0.323074989659     1.007825032230
         H           -2.058518200083    -1.238642693963    -0.730550989659     1.007825032230
         H           -1.166002200083     1.507582306037     0.306348010341     1.007825032230
         H           -4.526716200083    -1.445740693963     0.303181010341     1.007825032230
         H           -5.486513200083     0.023224306037     0.530932010341     1.007825032230
         H           -4.095478200083    -0.302952693963     1.581394010341     1.007825032230
         H            3.604400199917    -1.669813593963    -0.001727089659     1.007825032230

  Basis Set: AUG-CC-PVTZ
    Blend: AUG-CC-PVTZ
  Basis Set: (AUG-CC-PVTZ AUX)
    Blend: AUG-CC-PVTZ-JKFIT
	 Reference Energy          =    -386.0623423149448854 [Eh]
	 Singles Energy            =      -0.0000000000000000 [Eh]
	 Same-Spin Energy          =      -0.4003311633140258 [Eh]
	 Opposite-Spin Energy      =      -1.3783875010224766 [Eh]
	 Correlation Energy        =      -1.7787186643365025 [Eh]
	 Total Energy              =    -387.8410609792813943 [Eh]

	 ================> DF-SCS-MP2 Energies <==================
	-----------------------------------------------------------
	 SCS Same-Spin Scale       =       0.3333333333333333 [-]
	 SCS Opposite-Spin Scale   =       1.2000000000000000 [-]
	 SCS Same-Spin Energy      =      -0.1334437211046753 [Eh]
	 SCS Opposite-Spin Energy  =      -1.6540650012269720 [Eh]
	 SCS Correlation Energy    =      -1.7875087223316473 [Eh]
	 SCS Total Energy          =    -387.8498510372765509 [Eh]
	-----------------------------------------------------------

  Dipole Moment: [D]
     X:     1.2278      Y:     0.7381      Z:     0.3115     Total:     1.4661

*** Psi4 exiting successfully. Buy a developer a beer!
