                               Psi4 1.3.2 release

  ==> Input File <==

--------------------------------------------------------------------------
#psi4
#
memory 32 gb

molecule  {
0 1
  O        2.6932640    -1.3344870    -0.0264310
  C        2.7508540     0.0254460     0.4069810
  C        1.3606810     0.5764810     0.3953890
  C       -3.5492030     0.3621160    -0.4101590
  C        3.6709050     0.8409920    -0.4958550
  C        0.2704120    -0.1024690    -0.0006590
  C       -2.0705262    -0.2380841    -0.4089748
  C       -1.0635270     0.4697970    -0.0176060
  C       -4.4702810    -0.3835230     0.5583970
  H        3.1361180     0.0688010     1.4404840
  H        1.2655190     1.6118880     0.7253080
  H       -3.5113520     1.4248880    -0.1442750
  H       -3.9713450     0.3050270    -1.4220020
  H        3.3060070     0.7827570    -1.5237190
  H        3.6990520     1.8899320    -0.1870900
  H        4.6948240     0.4527130    -0.4608140
  H        0.3841050    -1.1350190    -0.3229170
  H       -2.0573220    -1.2386810    -0.7303930
  H       -1.1648060     1.5075440     0.3065060
  H       -4.5255200    -1.4457790     0.3033390
  H       -5.4853170     0.0231860     0.5310900
  H       -4.0942820    -0.3029910     1.5815520
  H        3.6028580    -1.6773980    -0.0043180
units angstrom
no_reorient  #important for SAPT in psi4, default
symmetry c1  #important for SAPT in psi4, default
}

set PROPERTIES_ORIGIN ["COM"]
properties('MP2/aug-cc-pvtz', properties = ['dipole'])
--------------------------------------------------------------------------

    Molecular point group: c1
  Charge       = 0
  Multiplicity = 1
  Basis Set: AUG-CC-PVTZ
    Blend: AUG-CC-PVTZ
  Basis Set: (AUG-CC-PVTZ AUX)
    Blend: AUG-CC-PVTZ-JKFIT

    Orbital Energies [Eh]
    ---------------------

    Doubly Occupied:

       1A    -20.558309     2A    -11.285720     3A    -11.225761
       4A    -11.221634     5A    -11.220108     6A    -11.220017
       7A    -11.219546     8A    -11.216541     9A    -11.211308
      10A     -1.360160    11A     -1.101192    12A     -1.055483
      13A     -1.014357    14A     -0.967049    15A     -0.870507
      16A     -0.825053    17A     -0.758281    18A     -0.747858
      19A     -0.696068    20A     -0.639547    21A     -0.624220
      22A     -0.616014    23A     -0.587435    24A     -0.583137
      25A     -0.551005    26A     -0.545397    27A     -0.532027
      28A     -0.512996    29A     -0.500281    30A     -0.489372
      31A     -0.480900    32A     -0.453314    33A     -0.446847
      34A     -0.425850    35A     -0.305056

  @DF-RHF Final Energy:  -386.05485343847306

   => Energetics <=

    Nuclear Repulsion Energy =            418.1980292263913270
    One-Electron Energy =               -1352.3690667283760831
    Two-Electron Energy =                 548.1161840635116960
    Total Energy =                       -386.0548534384730601
  Basis Set: (AUG-CC-PVTZ AUX)
    Blend: AUG-CC-PVTZ-RI
    Molecular point group: c1

    Geometry (in Angstrom), charge = 0, multiplicity = 1:

       Center              X                  Y                   Z               Mass
    ------------   -----------------  -----------------  -----------------  -----------------
         O            2.684446717100    -1.330907995002    -0.026437927520    15.994914619570
         C            2.742036717100     0.029025004998     0.406974072480    12.000000000000
         C            1.351863717100     0.580060004998     0.395382072480    12.000000000000
         C           -3.558020282900     0.365695004998    -0.410165927520    12.000000000000
         C            3.662087717100     0.844571004998    -0.495861927520    12.000000000000
         C            0.261594717100    -0.098889995002    -0.000665927520    12.000000000000
         C           -2.079343482900    -0.234505095002    -0.408981727520    12.000000000000
         C           -1.072344282900     0.473376004998    -0.017612927520    12.000000000000
         C           -4.479098282900    -0.379943995002     0.558390072480    12.000000000000
         H            3.127300717100     0.072380004998     1.440477072480     1.007825032230
         H            1.256701717100     1.615467004998     0.725301072480     1.007825032230
         H           -3.520169282900     1.428467004998    -0.144281927520     1.007825032230
         H           -3.980162282900     0.308606004998    -1.422008927520     1.007825032230
         H            3.297189717100     0.786336004998    -1.523725927520     1.007825032230
         H            3.690234717100     1.893511004998    -0.187096927520     1.007825032230
         H            4.686006717100     0.456292004998    -0.460820927520     1.007825032230
         H            0.375287717100    -1.131439995002    -0.322923927520     1.007825032230
         H           -2.066139282900    -1.235101995002    -0.730399927520     1.007825032230
         H           -1.173623282900     1.511123004998     0.306499072480     1.007825032230
         H           -4.534337282900    -1.442199995002     0.303332072480     1.007825032230
         H           -5.494134282900     0.026765004998     0.531083072480     1.007825032230
         H           -4.103099282900    -0.299411995002     1.581545072480     1.007825032230
         H            3.594040717100    -1.673818995002    -0.004324927520     1.007825032230

  Basis Set: AUG-CC-PVTZ
    Blend: AUG-CC-PVTZ
  Basis Set: (AUG-CC-PVTZ AUX)
    Blend: AUG-CC-PVTZ-JKFIT
	 Reference Energy          =    -386.0548534384730601 [Eh]
	 Singles Energy            =      -0.0000000000000000 [Eh]
	 Same-Spin Energy          =      -0.3991962362799933 [Eh]
	 Opposite-Spin Energy      =      -1.3768293652170898 [Eh]
	 Correlation Energy        =      -1.7760256014970830 [Eh]
	 Total Energy              =    -387.8308790399701707 [Eh]

	 ================> DF-SCS-MP2 Energies <==================
	-----------------------------------------------------------
	 SCS Same-Spin Scale       =       0.3333333333333333 [-]
	 SCS Opposite-Spin Scale   =       1.2000000000000000 [-]
	 SCS Same-Spin Energy      =      -0.1330654120933311 [Eh]
	 SCS Opposite-Spin Energy  =      -1.6521952382605076 [Eh]
	 SCS Correlation Energy    =      -1.7852606503538386 [Eh]
	 SCS Total Energy          =    -387.8401140888269083 [Eh]
	-----------------------------------------------------------

  Dipole Moment: [D]
     X:     1.2537      Y:     0.7074      Z:     0.3100     Total:     1.4725

*** Psi4 exiting successfully. Buy a developer a beer!
