                               Psi4 1.3.2 release

  ==> Input File <==

--------------------------------------------------------------------------
#psi4
#
memory 32 gb

molecule  {
0 1
  O        2.6932640    -1.3344870    -0.0264310
  C        2.7385095     0.0263781     0.4055172
  C        1.3606810     0.5764810     0.3953890
  C       -3.5492030     0.3621160    -0.4101590
  C        3.6709050     0.8409920    -0.4958550
  C        0.2704120    -0.1024690    -0.0006590
  C       -2.1631840    -0.2004740    -0.4090490
  C       -1.0635270     0.4697970    -0.0176060
  C       -4.4702810    -0.3835230     0.5583970
  H        3.1361180     0.0688010     1.4404840
  H        1.2655190     1.6118880     0.7253080
  H       -3.5113520     1.4248880    -0.1442750
  H       -3.9713450     0.3050270    -1.4220020
  H        3.3060070     0.7827570    -1.5237190
  H        3.6990520     1.8899320    -0.1870900
  H        4.6948240     0.4527130    -0.4608140
  H        0.3841050    -1.1350190    -0.3229170
  H       -2.0573220    -1.2386810    -0.7303930
  H       -1.1648060     1.5075440     0.3065060
  H       -4.5255200    -1.4457790     0.3033390
  H       -5.4853170     0.0231860     0.5310900
  H       -4.0942820    -0.3029910     1.5815520
  H        3.6000503    -1.6849180    -0.0070686
units angstrom
no_reorient  #important for SAPT in psi4, default
symmetry c1  #important for SAPT in psi4, default
}

set PROPERTIES_ORIGIN ["COM"]
properties('MP2/aug-cc-pvtz', properties = ['dipole'])
--------------------------------------------------------------------------

    Molecular point group: c1
  Charge       = 0
  Multiplicity = 1
  Basis Set: AUG-CC-PVTZ
    Blend: AUG-CC-PVTZ
  Basis Set: (AUG-CC-PVTZ AUX)
    Blend: AUG-CC-PVTZ-JKFIT

    Orbital Energies [Eh]
    ---------------------

    Doubly Occupied:

       1A    -20.558057     2A    -11.286674     3A    -11.226096
       4A    -11.223740     5A    -11.223340     6A    -11.223027
       7A    -11.221725     8A    -11.220505     9A    -11.212893
      10A     -1.359828    11A     -1.098390    12A     -1.062156
      13A     -1.015618    14A     -0.962379    15A     -0.877449
      16A     -0.828643    17A     -0.752393    18A     -0.748882
      19A     -0.694522    20A     -0.637977    21A     -0.627975
      22A     -0.615777    23A     -0.590136    24A     -0.583121
      25A     -0.545856    26A     -0.543218    27A     -0.527847
      28A     -0.518947    29A     -0.501276    30A     -0.492104
      31A     -0.479345    32A     -0.469066    33A     -0.452017
      34A     -0.417702    35A     -0.297398

  @DF-RHF Final Energy:  -386.06244489903611

   => Energetics <=

    Nuclear Repulsion Energy =            418.0998188276079190
    One-Electron Energy =               -1352.1323650194947277
    Two-Electron Energy =                 547.9701012928506998
    Total Energy =                       -386.0624448990361088
  Basis Set: (AUG-CC-PVTZ AUX)
    Blend: AUG-CC-PVTZ-RI
    Molecular point group: c1

    Geometry (in Angstrom), charge = 0, multiplicity = 1:

       Center              X                  Y                   Z               Mass
    ------------   -----------------  -----------------  -----------------  -----------------
         O            2.694461091053    -1.334515540187    -0.026269589916    15.994914619570
         C            2.739706591053     0.026349559813     0.405678610084    12.000000000000
         C            1.361878091053     0.576452459813     0.395550410084    12.000000000000
         C           -3.548005908947     0.362087459813    -0.409997589916    12.000000000000
         C            3.672102091053     0.840963459813    -0.495693589916    12.000000000000
         C            0.271609091053    -0.102497540187    -0.000497589916    12.000000000000
         C           -2.161986908947    -0.200502540187    -0.408887589916    12.000000000000
         C           -1.062329908947     0.469768459813    -0.017444589916    12.000000000000
         C           -4.469083908947    -0.383551540187     0.558558410084    12.000000000000
         H            3.137315091053     0.068772459813     1.440645410084     1.007825032230
         H            1.266716091053     1.611859459813     0.725469410084     1.007825032230
         H           -3.510154908947     1.424859459813    -0.144113589916     1.007825032230
         H           -3.970147908947     0.304998459813    -1.421840589916     1.007825032230
         H            3.307204091053     0.782728459813    -1.523557589916     1.007825032230
         H            3.700249091053     1.889903459813    -0.186928589916     1.007825032230
         H            4.696021091053     0.452684459813    -0.460652589916     1.007825032230
         H            0.385302091053    -1.135047540187    -0.322755589916     1.007825032230
         H           -2.056124908947    -1.238709540187    -0.730231589916     1.007825032230
         H           -1.163608908947     1.507515459813     0.306667410084     1.007825032230
         H           -4.524322908947    -1.445807540187     0.303500410084     1.007825032230
         H           -5.484119908947     0.023157459813     0.531251410084     1.007825032230
         H           -4.093084908947    -0.303019540187     1.581713410084     1.007825032230
         H            3.601247391053    -1.684946540187    -0.006907189916     1.007825032230

  Basis Set: AUG-CC-PVTZ
    Blend: AUG-CC-PVTZ
  Basis Set: (AUG-CC-PVTZ AUX)
    Blend: AUG-CC-PVTZ-JKFIT
	 Reference Energy          =    -386.0624448990361088 [Eh]
	 Singles Energy            =      -0.0000000000000000 [Eh]
	 Same-Spin Energy          =      -0.4003849735412088 [Eh]
	 Opposite-Spin Energy      =      -1.3782830485283311 [Eh]
	 Correlation Energy        =      -1.7786680220695399 [Eh]
	 Total Energy              =    -387.8411129211056618 [Eh]

	 ================> DF-SCS-MP2 Energies <==================
	-----------------------------------------------------------
	 SCS Same-Spin Scale       =       0.3333333333333333 [-]
	 SCS Opposite-Spin Scale   =       1.2000000000000000 [-]
	 SCS Same-Spin Energy      =      -0.1334616578470696 [Eh]
	 SCS Opposite-Spin Energy  =      -1.6539396582339971 [Eh]
	 SCS Correlation Energy    =      -1.7874013160810667 [Eh]
	 SCS Total Energy          =    -387.8498462151171680 [Eh]
	-----------------------------------------------------------

  Dipole Moment: [D]
     X:     1.1831      Y:     0.7194      Z:     0.3070     Total:     1.4183

*** Psi4 exiting successfully. Buy a developer a beer!
