                               Psi4 1.4a3.dev225

  ==> Input File <==

--------------------------------------------------------------------------
#psi4
#
memory 32 gb

molecule  {
0 1
  O       -2.7161510     1.3794200    -0.1343610
  C       -2.7832390     0.0721360     0.4401970
  C       -1.3979030    -0.4954620     0.4743180
  C        3.5083460    -0.4405980    -0.4123350
  C       -3.7239960    -0.8239440    -0.3625680
  C       -0.3030690     0.1219220    -0.0067100
  C        2.1282810     0.1394430    -0.4544070
  C        1.0245920    -0.4684390     0.0236420
  C        4.4606410     0.4027870     0.4416180
  H       -3.1581590     0.1412460     1.4762970
  H       -1.3072542    -1.5355856     0.9349049
  H        3.4619600    -1.4629760    -0.0187660
  H        3.9104550    -0.5133060    -1.4317100
  H       -3.3684670    -0.8811940    -1.3941910
  H       -3.7626400    -1.8335820     0.0574350
  H       -4.7426360    -0.4191700    -0.3608330
  H       -0.4078810     1.1149080    -0.4388390
  H        2.0311270     1.1370710    -0.8883280
  H        1.1170930    -1.4649260     0.4609700
  H        4.5263310     1.4251690     0.0574090
  H        5.4690900    -0.0219830     0.4454750
  H        4.1044230     0.4539160     1.4740500
  H       -3.6221830     1.7324190    -0.1413340
units angstrom
no_reorient  #important for SAPT in psi4, default
symmetry c1  #important for SAPT in psi4, default
}

set PROPERTIES_ORIGIN ["COM"]
properties('MP2/aug-cc-pvtz', properties = ['dipole'])
--------------------------------------------------------------------------

    Molecular point group: c1
  Charge       = 0
  Multiplicity = 1
  Basis Set: AUG-CC-PVTZ
    Blend: AUG-CC-PVTZ
  Basis Set: (AUG-CC-PVTZ AUX)
    Blend: AUG-CC-PVTZ-JKFIT

    Orbital Energies [Eh]
    ---------------------

    Doubly Occupied:

       1A    -20.559254     2A    -11.287660     3A    -11.229352
       4A    -11.226576     5A    -11.224232     6A    -11.223729
       7A    -11.223385     8A    -11.220941     9A    -11.213168
      10A     -1.360590    11A     -1.096760    12A     -1.059965
      13A     -1.015743    14A     -0.961601    15A     -0.876221
      16A     -0.828580    17A     -0.752300    18A     -0.742000
      19A     -0.694990    20A     -0.637082    21A     -0.626842
      22A     -0.616710    23A     -0.589050    24A     -0.581345
      25A     -0.545675    26A     -0.542168    27A     -0.527121
      28A     -0.517862    29A     -0.498976    30A     -0.492708
      31A     -0.479296    32A     -0.467584    33A     -0.453181
      34A     -0.418118    35A     -0.297607

  @DF-RHF Final Energy:  -386.05997601229933

   => Energetics <=

    Nuclear Repulsion Energy =            417.2663891153611075
    One-Electron Energy =               -1350.4759886817637380
    Two-Electron Energy =                 547.1496235541033002
    Total Energy =                       -386.0599760122993303
  Basis Set: (AUG-CC-PVTZ AUX)
    Blend: AUG-CC-PVTZ-RI
    Molecular point group: c1

    Geometry (in Angstrom), charge = 0, multiplicity = 1:

       Center              X                  Y                   Z               Mass
    ------------   -----------------  -----------------  -----------------  -----------------
         O           -2.682875078332     1.363455458975    -0.132856904242    15.994914619570
         C           -2.749963078332     0.056171458975     0.441701095758    12.000000000000
         C           -1.364627078332    -0.511426541025     0.475822095758    12.000000000000
         C            3.541621921668    -0.456562541025    -0.410830904242    12.000000000000
         C           -3.690720078332    -0.839908541025    -0.361063904242    12.000000000000
         C           -0.269793078332     0.105957458975    -0.005205904242    12.000000000000
         C            2.161556921668     0.123478458975    -0.452902904242    12.000000000000
         C            1.057867921668    -0.484403541025     0.025146095758    12.000000000000
         C            4.493916921668     0.386822458975     0.443122095758    12.000000000000
         H           -3.124883078332     0.125281458975     1.477801095758     1.007825032230
         H           -1.273978278332    -1.551550141025     0.936408995758     1.007825032230
         H            3.495235921668    -1.478940541025    -0.017261904242     1.007825032230
         H            3.943730921668    -0.529270541025    -1.430205904242     1.007825032230
         H           -3.335191078332    -0.897158541025    -1.392686904242     1.007825032230
         H           -3.729364078332    -1.849546541025     0.058939095758     1.007825032230
         H           -4.709360078332    -0.435134541025    -0.359328904242     1.007825032230
         H           -0.374605078332     1.098943458975    -0.437334904242     1.007825032230
         H            2.064402921668     1.121106458975    -0.886823904242     1.007825032230
         H            1.150368921668    -1.480890541025     0.462474095758     1.007825032230
         H            4.559606921668     1.409204458975     0.058913095758     1.007825032230
         H            5.502365921668    -0.037947541025     0.446979095758     1.007825032230
         H            4.137698921668     0.437951458975     1.475554095758     1.007825032230
         H           -3.588907078332     1.716454458975    -0.139829904242     1.007825032230

  Basis Set: AUG-CC-PVTZ
    Blend: AUG-CC-PVTZ
  Basis Set: (AUG-CC-PVTZ AUX)
    Blend: AUG-CC-PVTZ-JKFIT
	 Reference Energy          =    -386.0599760122993303 [Eh]
	 Singles Energy            =      -0.0000000000000000 [Eh]
	 Same-Spin Energy          =      -0.4003735828486303 [Eh]
	 Opposite-Spin Energy      =      -1.3788285322537575 [Eh]
	 Correlation Energy        =      -1.7792021151023878 [Eh]
	 Total Energy              =    -387.8391781274017376 [Eh]

	 ================> DF-SCS-MP2 Energies <==================
	-----------------------------------------------------------
	 SCS Same-Spin Scale       =       0.3333333333333333 [-]
	 SCS Opposite-Spin Scale   =       1.2000000000000000 [-]
	 SCS Same-Spin Energy      =      -0.1334578609495434 [Eh]
	 SCS Opposite-Spin Energy  =      -1.6545942387045089 [Eh]
	 SCS Correlation Energy    =      -1.7880520996540523 [Eh]
	 SCS Total Energy          =    -387.8480281119533970 [Eh]
	-----------------------------------------------------------

  Dipole Moment: [D]
     X:    -1.2127      Y:    -0.6642      Z:     0.3813     Total:     1.4343

*** Psi4 exiting successfully. Buy a developer a beer!
