                               Psi4 1.3.2 release

  ==> Input File <==

--------------------------------------------------------------------------
#psi4
#
memory 32 gb

molecule  {
0 1
  O        2.6932640    -1.3344870    -0.0264310
  C        2.7508540     0.0254460     0.4069810
  C        1.3606810     0.5764810     0.3953890
  C       -3.5492030     0.3621160    -0.4101590
  C        3.6709050     0.8409920    -0.4958550
  C        0.2704120    -0.1024690    -0.0006590
  C       -2.1631840    -0.2004740    -0.4090490
  C       -1.0635270     0.4697970    -0.0176060
  C       -4.4702810    -0.3835230     0.5583970
  H        3.1361180     0.0688010     1.4404840
  H        1.2742426     1.5169712     0.6950640
  H       -3.5113520     1.4248880    -0.1442750
  H       -3.9713450     0.3050270    -1.4220020
  H        3.3060070     0.7827570    -1.5237190
  H        3.6990520     1.8899320    -0.1870900
  H        4.6948240     0.4527130    -0.4608140
  H        0.3841050    -1.1350190    -0.3229170
  H       -2.0573220    -1.2386810    -0.7303930
  H       -1.1648060     1.5075440     0.3065060
  H       -4.5255200    -1.4457790     0.3033390
  H       -5.4853170     0.0231860     0.5310900
  H       -4.0942820    -0.3029910     1.5815520
  H        3.6028580    -1.6773980    -0.0043180
units angstrom
no_reorient  #important for SAPT in psi4, default
symmetry c1  #important for SAPT in psi4, default
}

set PROPERTIES_ORIGIN ["COM"]
properties('MP2/aug-cc-pvtz', properties = ['dipole'])
--------------------------------------------------------------------------

    Molecular point group: c1
  Charge       = 0
  Multiplicity = 1
  Basis Set: AUG-CC-PVTZ
    Blend: AUG-CC-PVTZ
  Basis Set: (AUG-CC-PVTZ AUX)
    Blend: AUG-CC-PVTZ-JKFIT

    Orbital Energies [Eh]
    ---------------------

    Doubly Occupied:

       1A    -20.557916     2A    -11.285357     3A    -11.225899
       4A    -11.223305     5A    -11.223080     6A    -11.221729
       7A    -11.220537     8A    -11.212786     9A    -11.210202
      10A     -1.359780    11A     -1.098980    12A     -1.063226
      13A     -1.015936    14A     -0.963891    15A     -0.877263
      16A     -0.828356    17A     -0.763378    18A     -0.751791
      19A     -0.694982    20A     -0.637026    21A     -0.629389
      22A     -0.616342    23A     -0.592985    24A     -0.584788
      25A     -0.549970    26A     -0.544427    27A     -0.527835
      28A     -0.519373    29A     -0.502997    30A     -0.491912
      31A     -0.479123    32A     -0.468163    33A     -0.452375
      34A     -0.417932    35A     -0.297088

  @DF-RHF Final Energy:  -386.05678745865208

   => Energetics <=

    Nuclear Repulsion Energy =            418.5127887571011911
    One-Electron Energy =               -1352.9189118735555439
    Two-Electron Energy =                 548.3493356578022713
    Total Energy =                       -386.0567874586521384
  Basis Set: (AUG-CC-PVTZ AUX)
    Blend: AUG-CC-PVTZ-RI
    Molecular point group: c1

    Geometry (in Angstrom), charge = 0, multiplicity = 1:

       Center              X                  Y                   Z               Mass
    ------------   -----------------  -----------------  -----------------  -----------------
         O            2.693194240330    -1.333728368355    -0.026189157104    15.994914619570
         C            2.750784240330     0.026204631645     0.407222842896    12.000000000000
         C            1.360611240330     0.577239631645     0.395630842896    12.000000000000
         C           -3.549272759670     0.362874631645    -0.409917157104    12.000000000000
         C            3.670835240330     0.841750631645    -0.495613157104    12.000000000000
         C            0.270342240330    -0.101710368355    -0.000417157104    12.000000000000
         C           -2.163253759670    -0.199715368355    -0.408807157104    12.000000000000
         C           -1.063596759670     0.470555631645    -0.017364157104    12.000000000000
         C           -4.470350759670    -0.382764368355     0.558638842896    12.000000000000
         H            3.136048240330     0.069559631645     1.440725842896     1.007825032230
         H            1.274172840330     1.517729831645     0.695305842896     1.007825032230
         H           -3.511421759670     1.425646631645    -0.144033157104     1.007825032230
         H           -3.971414759670     0.305785631645    -1.421760157104     1.007825032230
         H            3.305937240330     0.783515631645    -1.523477157104     1.007825032230
         H            3.698982240330     1.890690631645    -0.186848157104     1.007825032230
         H            4.694754240330     0.453471631645    -0.460572157104     1.007825032230
         H            0.384035240330    -1.134260368355    -0.322675157104     1.007825032230
         H           -2.057391759670    -1.237922368355    -0.730151157104     1.007825032230
         H           -1.164875759670     1.508302631645     0.306747842896     1.007825032230
         H           -4.525589759670    -1.445020368355     0.303580842896     1.007825032230
         H           -5.485386759670     0.023944631645     0.531331842896     1.007825032230
         H           -4.094351759670    -0.302232368355     1.581793842896     1.007825032230
         H            3.602788240330    -1.676639368355    -0.004076157104     1.007825032230

  Basis Set: AUG-CC-PVTZ
    Blend: AUG-CC-PVTZ
  Basis Set: (AUG-CC-PVTZ AUX)
    Blend: AUG-CC-PVTZ-JKFIT
	 Reference Energy          =    -386.0567874586520816 [Eh]
	 Singles Energy            =      -0.0000000000000000 [Eh]
	 Same-Spin Energy          =      -0.4001926369847240 [Eh]
	 Opposite-Spin Energy      =      -1.3777676742269278 [Eh]
	 Correlation Energy        =      -1.7779603112116518 [Eh]
	 Total Energy              =    -387.8347477698637249 [Eh]

	 ================> DF-SCS-MP2 Energies <==================
	-----------------------------------------------------------
	 SCS Same-Spin Scale       =       0.3333333333333333 [-]
	 SCS Opposite-Spin Scale   =       1.2000000000000000 [-]
	 SCS Same-Spin Energy      =      -0.1333975456615747 [Eh]
	 SCS Opposite-Spin Energy  =      -1.6533212090723133 [Eh]
	 SCS Correlation Energy    =      -1.7867187547338879 [Eh]
	 SCS Total Energy          =    -387.8435062133859788 [Eh]
	-----------------------------------------------------------

  Dipole Moment: [D]
     X:     1.1946      Y:     0.7646      Z:     0.3206     Total:     1.4541

*** Psi4 exiting successfully. Buy a developer a beer!
