                               Psi4 1.4a3.dev225

  ==> Input File <==

--------------------------------------------------------------------------
#psi4
#
memory 32 gb

molecule  {
0 1
  O       -2.7161510     1.3794200    -0.1343610
  C       -2.7832390     0.0721360     0.4401970
  C       -1.3979030    -0.4954620     0.4743180
  C        3.5083460    -0.4405980    -0.4123350
  C       -3.7239960    -0.8239440    -0.3625680
  C       -0.3030690     0.1219220    -0.0067100
  C        2.1282810     0.1394430    -0.4544070
  C        1.0245920    -0.4684390     0.0236420
  C        4.4606410     0.4027870     0.4416180
  H       -3.1581590     0.1412460     1.4762970
  H       -1.3112260    -1.4900120     0.9147240
  H        3.4619600    -1.4629760    -0.0187660
  H        3.9104550    -0.5133060    -1.4317100
  H       -3.3684670    -0.8811940    -1.3941910
  H       -3.7626400    -1.8335820     0.0574350
  H       -4.7426360    -0.4191700    -0.3608330
  H       -0.4078810     1.1149080    -0.4388390
  H        2.0311270     1.1370710    -0.8883280
  H        1.1187869    -1.4831741     0.4689785
  H        4.5263310     1.4251690     0.0574090
  H        5.4690900    -0.0219830     0.4454750
  H        4.1044230     0.4539160     1.4740500
  H       -3.6221830     1.7324190    -0.1413340
units angstrom
no_reorient  #important for SAPT in psi4, default
symmetry c1  #important for SAPT in psi4, default
}

set PROPERTIES_ORIGIN ["COM"]
properties('MP2/aug-cc-pvtz', properties = ['dipole'])
--------------------------------------------------------------------------

    Molecular point group: c1
  Charge       = 0
  Multiplicity = 1
  Basis Set: AUG-CC-PVTZ
    Blend: AUG-CC-PVTZ
  Basis Set: (AUG-CC-PVTZ AUX)
    Blend: AUG-CC-PVTZ-JKFIT

    Orbital Energies [Eh]
    ---------------------

    Doubly Occupied:

       1A    -20.558874     2A    -11.287085     3A    -11.227249
       4A    -11.225692     5A    -11.224255     6A    -11.223671
       7A    -11.222658     8A    -11.220983     9A    -11.213129
      10A     -1.360199    11A     -1.096789    12A     -1.060670
      13A     -1.015482    14A     -0.961961    15A     -0.876344
      16A     -0.828317    17A     -0.751409    18A     -0.746856
      19A     -0.694485    20A     -0.636653    21A     -0.627369
      22A     -0.616422    23A     -0.589131    24A     -0.582508
      25A     -0.546439    26A     -0.543503    27A     -0.526656
      28A     -0.518315    29A     -0.500537    30A     -0.492020
      31A     -0.479230    32A     -0.467613    33A     -0.452903
      34A     -0.418026    35A     -0.297434

  @DF-RHF Final Energy:  -386.06171790428408

   => Energetics <=

    Nuclear Repulsion Energy =            417.4099205721649923
    One-Electron Energy =               -1350.7615447990431221
    Two-Electron Energy =                 547.2899063225941063
    Total Energy =                       -386.0617179042840235
  Basis Set: (AUG-CC-PVTZ AUX)
    Blend: AUG-CC-PVTZ-RI
    Molecular point group: c1

    Geometry (in Angstrom), charge = 0, multiplicity = 1:

       Center              X                  Y                   Z               Mass
    ------------   -----------------  -----------------  -----------------  -----------------
         O           -2.682856873388     1.363237073981    -0.132759622600    15.994914619570
         C           -2.749944873388     0.055953073981     0.441798377400    12.000000000000
         C           -1.364608873388    -0.511644926019     0.475919377400    12.000000000000
         C            3.541640126612    -0.456780926019    -0.410733622600    12.000000000000
         C           -3.690701873388    -0.840126926019    -0.360966622600    12.000000000000
         C           -0.269774873388     0.105739073981    -0.005108622600    12.000000000000
         C            2.161575126612     0.123260073981    -0.452805622600    12.000000000000
         C            1.057886126612    -0.484621926019     0.025243377400    12.000000000000
         C            4.493935126612     0.386604073981     0.443219377400    12.000000000000
         H           -3.124864873388     0.125063073981     1.477898377400     1.007825032230
         H           -1.277931873388    -1.506194926019     0.916325377400     1.007825032230
         H            3.495254126612    -1.479158926019    -0.017164622600     1.007825032230
         H            3.943749126612    -0.529488926019    -1.430108622600     1.007825032230
         H           -3.335172873388    -0.897376926019    -1.392589622600     1.007825032230
         H           -3.729345873388    -1.849764926019     0.059036377400     1.007825032230
         H           -4.709341873388    -0.435352926019    -0.359231622600     1.007825032230
         H           -0.374586873388     1.098725073981    -0.437237622600     1.007825032230
         H            2.064421126612     1.120888073981    -0.886726622600     1.007825032230
         H            1.152081026612    -1.499357026019     0.470579877400     1.007825032230
         H            4.559625126612     1.408986073981     0.059010377400     1.007825032230
         H            5.502384126612    -0.038165926019     0.447076377400     1.007825032230
         H            4.137717126612     0.437733073981     1.475651377400     1.007825032230
         H           -3.588888873388     1.716236073981    -0.139732622600     1.007825032230

  Basis Set: AUG-CC-PVTZ
    Blend: AUG-CC-PVTZ
  Basis Set: (AUG-CC-PVTZ AUX)
    Blend: AUG-CC-PVTZ-JKFIT
	 Reference Energy          =    -386.0617179042840803 [Eh]
	 Singles Energy            =      -0.0000000000000000 [Eh]
	 Same-Spin Energy          =      -0.4003225985837574 [Eh]
	 Opposite-Spin Energy      =      -1.3785723925815931 [Eh]
	 Correlation Energy        =      -1.7788949911653504 [Eh]
	 Total Energy              =    -387.8406128954494534 [Eh]

	 ================> DF-SCS-MP2 Energies <==================
	-----------------------------------------------------------
	 SCS Same-Spin Scale       =       0.3333333333333333 [-]
	 SCS Opposite-Spin Scale   =       1.2000000000000000 [-]
	 SCS Same-Spin Energy      =      -0.1334408661945858 [Eh]
	 SCS Opposite-Spin Energy  =      -1.6542868710979117 [Eh]
	 SCS Correlation Energy    =      -1.7877277372924976 [Eh]
	 SCS Total Energy          =    -387.8494456415765512 [Eh]
	-----------------------------------------------------------

  Dipole Moment: [D]
     X:    -1.2145      Y:    -0.6768      Z:     0.3877     Total:     1.4434

*** Psi4 exiting successfully. Buy a developer a beer!
