                               Psi4 1.3.2 release

  ==> Input File <==

--------------------------------------------------------------------------
#psi4
#
memory 32 gb

molecule  {
0 1
  O        2.6755440    -1.3188321    -0.0703293
  C        2.7508540     0.0254460     0.4069810
  C        1.3606810     0.5764810     0.3953890
  C       -3.5492030     0.3621160    -0.4101590
  C        3.6709050     0.8409920    -0.4958550
  C        0.2704120    -0.1024690    -0.0006590
  C       -2.1631840    -0.2004740    -0.4090490
  C       -1.0635270     0.4697970    -0.0176060
  C       -4.4702810    -0.3835230     0.5583970
  H        3.1327428     0.1071669     1.4394146
  H        1.2655190     1.6118880     0.7253080
  H       -3.5113520     1.4248880    -0.1442750
  H       -3.9713450     0.3050270    -1.4220020
  H        3.3060070     0.7827570    -1.5237190
  H        3.6990520     1.8899320    -0.1870900
  H        4.6948240     0.4527130    -0.4608140
  H        0.3841050    -1.1350190    -0.3229170
  H       -2.0573220    -1.2386810    -0.7303930
  H       -1.1648060     1.5075440     0.3065060
  H       -4.5255200    -1.4457790     0.3033390
  H       -5.4853170     0.0231860     0.5310900
  H       -4.0942820    -0.3029910     1.5815520
  H        3.6028580    -1.6773980    -0.0043180
units angstrom
no_reorient  #important for SAPT in psi4, default
symmetry c1  #important for SAPT in psi4, default
}

set PROPERTIES_ORIGIN ["COM"]
properties('MP2/aug-cc-pvtz', properties = ['dipole'])
--------------------------------------------------------------------------

    Molecular point group: c1
  Charge       = 0
  Multiplicity = 1
  Basis Set: AUG-CC-PVTZ
    Blend: AUG-CC-PVTZ
  Basis Set: (AUG-CC-PVTZ AUX)
    Blend: AUG-CC-PVTZ-JKFIT

    Orbital Energies [Eh]
    ---------------------

    Doubly Occupied:

       1A    -20.563096     2A    -11.286499     3A    -11.225475
       4A    -11.223096     5A    -11.222884     6A    -11.222439
       7A    -11.221003     8A    -11.219467     9A    -11.212597
      10A     -1.357804    11A     -1.097233    12A     -1.060508
      13A     -1.015685    14A     -0.962146    15A     -0.875866
      16A     -0.827584    17A     -0.751908    18A     -0.745487
      19A     -0.695771    20A     -0.637411    21A     -0.627499
      22A     -0.613954    23A     -0.589059    24A     -0.581515
      25A     -0.546459    26A     -0.543249    27A     -0.527430
      28A     -0.518289    29A     -0.500102    30A     -0.492898
      31A     -0.478825    32A     -0.467290    33A     -0.453406
      34A     -0.417948    35A     -0.296943

  @DF-RHF Final Energy:  -386.05920290125721

   => Energetics <=

    Nuclear Repulsion Energy =            418.2207311634532516
    One-Electron Energy =               -1352.4022182347077887
    Two-Electron Energy =                 548.1222841699973287
    Total Energy =                       -386.0592029012572084
  Basis Set: (AUG-CC-PVTZ AUX)
    Blend: AUG-CC-PVTZ-RI
    Molecular point group: c1

    Geometry (in Angstrom), charge = 0, multiplicity = 1:

       Center              X                  Y                   Z               Mass
    ------------   -----------------  -----------------  -----------------  -----------------
         O            2.677818513868    -1.321124307436    -0.064752620880    15.994914619570
         C            2.753128513868     0.023153792564     0.412557679120    12.000000000000
         C            1.362955513868     0.574188792564     0.400965679120    12.000000000000
         C           -3.546928486132     0.359823792564    -0.404582320880    12.000000000000
         C            3.673179513868     0.838699792564    -0.490278320880    12.000000000000
         C            0.272686513868    -0.104761207436     0.004917679120    12.000000000000
         C           -2.160909486132    -0.202766207436    -0.403472320880    12.000000000000
         C           -1.061252486132     0.467504792564    -0.012029320880    12.000000000000
         C           -4.468006486132    -0.385815207436     0.563973679120    12.000000000000
         H            3.135017313868     0.104874692564     1.444991279120     1.007825032230
         H            1.267793513868     1.609595792564     0.730884679120     1.007825032230
         H           -3.509077486132     1.422595792564    -0.138698320880     1.007825032230
         H           -3.969070486132     0.302734792564    -1.416425320880     1.007825032230
         H            3.308281513868     0.780464792564    -1.518142320880     1.007825032230
         H            3.701326513868     1.887639792564    -0.181513320880     1.007825032230
         H            4.697098513868     0.450420792564    -0.455237320880     1.007825032230
         H            0.386379513868    -1.137311207436    -0.317340320880     1.007825032230
         H           -2.055047486132    -1.240973207436    -0.724816320880     1.007825032230
         H           -1.162531486132     1.505251792564     0.312082679120     1.007825032230
         H           -4.523245486132    -1.448071207436     0.308915679120     1.007825032230
         H           -5.483042486132     0.020893792564     0.536666679120     1.007825032230
         H           -4.092007486132    -0.305283207436     1.587128679120     1.007825032230
         H            3.605132513868    -1.679690207436     0.001258679120     1.007825032230

  Basis Set: AUG-CC-PVTZ
    Blend: AUG-CC-PVTZ
  Basis Set: (AUG-CC-PVTZ AUX)
    Blend: AUG-CC-PVTZ-JKFIT
	 Reference Energy          =    -386.0592029012572084 [Eh]
	 Singles Energy            =      -0.0000000000000000 [Eh]
	 Same-Spin Energy          =      -0.4008723101327795 [Eh]
	 Opposite-Spin Energy      =      -1.3794411516463287 [Eh]
	 Correlation Energy        =      -1.7803134617791083 [Eh]
	 Total Energy              =    -387.8395163630362958 [Eh]

	 ================> DF-SCS-MP2 Energies <==================
	-----------------------------------------------------------
	 SCS Same-Spin Scale       =       0.3333333333333333 [-]
	 SCS Opposite-Spin Scale   =       1.2000000000000000 [-]
	 SCS Same-Spin Energy      =      -0.1336241033775931 [Eh]
	 SCS Opposite-Spin Energy  =      -1.6553293819755945 [Eh]
	 SCS Correlation Energy    =      -1.7889534853531877 [Eh]
	 SCS Total Energy          =    -387.8481563866104125 [Eh]
	-----------------------------------------------------------

  Dipole Moment: [D]
     X:     1.2411      Y:     0.6695      Z:     0.4014     Total:     1.4662

*** Psi4 exiting successfully. Buy a developer a beer!
