                               Psi4 1.3.2 release

  ==> Input File <==

--------------------------------------------------------------------------
#psi4
#
memory 32 gb

molecule  {
0 1
  O        2.6932640    -1.3344870    -0.0264310
  C        2.7508540     0.0254460     0.4069810
  C        1.3606810     0.5764810     0.3953890
  C       -3.5492030     0.3621160    -0.4101590
  C        3.6709050     0.8409920    -0.4958550
  C        0.2704120    -0.1024690    -0.0006590
  C       -2.1631840    -0.2004740    -0.4090490
  C       -1.1452247     0.4200000    -0.0466878
  C       -4.4702810    -0.3835230     0.5583970
  H        3.1361180     0.0688010     1.4404840
  H        1.2655190     1.6118880     0.7253080
  H       -3.5113520     1.4248880    -0.1442750
  H       -3.9713450     0.3050270    -1.4220020
  H        3.3060070     0.7827570    -1.5237190
  H        3.6990520     1.8899320    -0.1870900
  H        4.6948240     0.4527130    -0.4608140
  H        0.3841050    -1.1350190    -0.3229170
  H       -2.0573220    -1.2386810    -0.7303930
  H       -1.1648060     1.5075440     0.3065060
  H       -4.5255200    -1.4457790     0.3033390
  H       -5.4853170     0.0231860     0.5310900
  H       -4.0942820    -0.3029910     1.5815520
  H        3.6028580    -1.6773980    -0.0043180
units angstrom
no_reorient  #important for SAPT in psi4, default
symmetry c1  #important for SAPT in psi4, default
}

set PROPERTIES_ORIGIN ["COM"]
properties('MP2/aug-cc-pvtz', properties = ['dipole'])
--------------------------------------------------------------------------

    Molecular point group: c1
  Charge       = 0
  Multiplicity = 1
  Basis Set: AUG-CC-PVTZ
    Blend: AUG-CC-PVTZ
  Basis Set: (AUG-CC-PVTZ AUX)
    Blend: AUG-CC-PVTZ-JKFIT

    Orbital Energies [Eh]
    ---------------------

    Doubly Occupied:

       1A    -20.558672     2A    -11.287505     3A    -11.226367
       4A    -11.224074     5A    -11.222187     6A    -11.220970
       7A    -11.217854     8A    -11.212445     9A    -11.209591
      10A     -1.360644    11A     -1.105882    12A     -1.063174
      13A     -1.014111    14A     -0.972215    15A     -0.872665
      16A     -0.832317    17A     -0.750162    18A     -0.741715
      19A     -0.694945    20A     -0.636671    21A     -0.629075
      22A     -0.616817    23A     -0.595760    24A     -0.581178
      25A     -0.546655    26A     -0.542874    27A     -0.527769
      28A     -0.520889    29A     -0.500633    30A     -0.490511
      31A     -0.480586    32A     -0.453194    33A     -0.448066
      34A     -0.422177    35A     -0.315714

  @DF-RHF Final Energy:  -386.05045703356268

   => Energetics <=

    Nuclear Repulsion Energy =            418.4605207770766810
    One-Electron Energy =               -1352.8298291907258317
    Two-Electron Energy =                 548.3188513800864712
    Total Energy =                       -386.0504570335626795
  Basis Set: (AUG-CC-PVTZ AUX)
    Blend: AUG-CC-PVTZ-RI
    Molecular point group: c1

    Geometry (in Angstrom), charge = 0, multiplicity = 1:

       Center              X                  Y                   Z               Mass
    ------------   -----------------  -----------------  -----------------  -----------------
         O            2.701038246978    -1.329748299349    -0.023663465888    15.994914619570
         C            2.758628246978     0.030184700651     0.409748534112    12.000000000000
         C            1.368455246978     0.581219700651     0.398156534112    12.000000000000
         C           -3.541428753022     0.366854700651    -0.407391465888    12.000000000000
         C            3.678679246978     0.845730700651    -0.493087465888    12.000000000000
         C            0.278186246978    -0.097730299349     0.002108534112    12.000000000000
         C           -2.155409753022    -0.195735299349    -0.406281465888    12.000000000000
         C           -1.137450453022     0.424738700651    -0.043920265888    12.000000000000
         C           -4.462506753022    -0.378784299349     0.561164534112    12.000000000000
         H            3.143892246978     0.073539700651     1.443251534112     1.007825032230
         H            1.273293246978     1.616626700651     0.728075534112     1.007825032230
         H           -3.503577753022     1.429626700651    -0.141507465888     1.007825032230
         H           -3.963570753022     0.309765700651    -1.419234465888     1.007825032230
         H            3.313781246978     0.787495700651    -1.520951465888     1.007825032230
         H            3.706826246978     1.894670700651    -0.184322465888     1.007825032230
         H            4.702598246978     0.457451700651    -0.458046465888     1.007825032230
         H            0.391879246978    -1.130280299349    -0.320149465888     1.007825032230
         H           -2.049547753022    -1.233942299349    -0.727625465888     1.007825032230
         H           -1.157031753022     1.512282700651     0.309273534112     1.007825032230
         H           -4.517745753022    -1.441040299349     0.306106534112     1.007825032230
         H           -5.477542753022     0.027924700651     0.533857534112     1.007825032230
         H           -4.086507753022    -0.298252299349     1.584319534112     1.007825032230
         H            3.610632246978    -1.672659299349    -0.001550465888     1.007825032230

  Basis Set: AUG-CC-PVTZ
    Blend: AUG-CC-PVTZ
  Basis Set: (AUG-CC-PVTZ AUX)
    Blend: AUG-CC-PVTZ-JKFIT
	 Reference Energy          =    -386.0504570335626795 [Eh]
	 Singles Energy            =      -0.0000000000000000 [Eh]
	 Same-Spin Energy          =      -0.3990394871280638 [Eh]
	 Opposite-Spin Energy      =      -1.3760721371197591 [Eh]
	 Correlation Energy        =      -1.7751116242478229 [Eh]
	 Total Energy              =    -387.8255686578104928 [Eh]

	 ================> DF-SCS-MP2 Energies <==================
	-----------------------------------------------------------
	 SCS Same-Spin Scale       =       0.3333333333333333 [-]
	 SCS Opposite-Spin Scale   =       1.2000000000000000 [-]
	 SCS Same-Spin Energy      =      -0.1330131623760213 [Eh]
	 SCS Opposite-Spin Energy  =      -1.6512865645437109 [Eh]
	 SCS Correlation Energy    =      -1.7842997269197323 [Eh]
	 SCS Total Energy          =    -387.8347567604824349 [Eh]
	-----------------------------------------------------------

  Dipole Moment: [D]
     X:     1.2233      Y:     0.6920      Z:     0.2945     Total:     1.4360

*** Psi4 exiting successfully. Buy a developer a beer!
