                               Psi4 1.4a3.dev225

  ==> Input File <==

--------------------------------------------------------------------------
#psi4
#
memory 32 gb

molecule  {
0 1
  O       -2.7161510     1.3794200    -0.1343610
  C       -2.7832390     0.0721360     0.4401970
  C       -1.3979030    -0.4954620     0.4743180
  C        3.5083460    -0.4405980    -0.4123350
  C       -3.7239960    -0.8239440    -0.3625680
  C       -0.3030690     0.1219220    -0.0067100
  C        2.1282810     0.1394430    -0.4544070
  C        1.0245920    -0.4684390     0.0236420
  C        4.4606410     0.4027870     0.4416180
  H       -3.1581590     0.1412460     1.4762970
  H       -1.3112260    -1.4900120     0.9147240
  H        3.4628061    -1.4443279    -0.0259447
  H        3.9104550    -0.5133060    -1.4317100
  H       -3.3684670    -0.8811940    -1.3941910
  H       -3.7626400    -1.8335820     0.0574350
  H       -4.7426360    -0.4191700    -0.3608330
  H       -0.4078810     1.1149080    -0.4388390
  H        2.0311270     1.1370710    -0.8883280
  H        1.1170930    -1.4649260     0.4609700
  H        4.5263310     1.4251690     0.0574090
  H        5.4690900    -0.0219830     0.4454750
  H        4.1044230     0.4539160     1.4740500
  H       -3.6221830     1.7324190    -0.1413340
units angstrom
no_reorient  #important for SAPT in psi4, default
symmetry c1  #important for SAPT in psi4, default
}

set PROPERTIES_ORIGIN ["COM"]
properties('MP2/aug-cc-pvtz', properties = ['dipole'])
--------------------------------------------------------------------------

    Molecular point group: c1
  Charge       = 0
  Multiplicity = 1
  Basis Set: AUG-CC-PVTZ
    Blend: AUG-CC-PVTZ
  Basis Set: (AUG-CC-PVTZ AUX)
    Blend: AUG-CC-PVTZ-JKFIT

    Orbital Energies [Eh]
    ---------------------

    Doubly Occupied:

       1A    -20.558789     2A    -11.287003     3A    -11.226373
       4A    -11.224271     5A    -11.223624     6A    -11.222422
       7A    -11.221231     8A    -11.220918     9A    -11.212960
      10A     -1.360110    11A     -1.097248    12A     -1.060961
      13A     -1.015818    14A     -0.962047    15A     -0.876534
      16A     -0.829165    17A     -0.753386    18A     -0.747817
      19A     -0.694837    20A     -0.637482    21A     -0.627338
      22A     -0.616689    23A     -0.590084    24A     -0.582991
      25A     -0.546387    26A     -0.543553    27A     -0.527432
      28A     -0.518163    29A     -0.500787    30A     -0.492532
      31A     -0.481211    32A     -0.467727    33A     -0.452813
      34A     -0.417846    35A     -0.297273

  @DF-RHF Final Energy:  -386.06242836852323

   => Energetics <=

    Nuclear Repulsion Energy =            417.5875776819702310
    One-Electron Energy =               -1351.1083698877719144
    Two-Electron Energy =                 547.4583638372783980
    Total Energy =                       -386.0624283685232285
  Basis Set: (AUG-CC-PVTZ AUX)
    Blend: AUG-CC-PVTZ-RI
    Molecular point group: c1

    Geometry (in Angstrom), charge = 0, multiplicity = 1:

       Center              X                  Y                   Z               Mass
    ------------   -----------------  -----------------  -----------------  -----------------
         O           -2.682850097783     1.362942200092    -0.132638246721    15.994914619570
         C           -2.749938097783     0.055658200092     0.441919753279    12.000000000000
         C           -1.364602097783    -0.511939799908     0.476040753279    12.000000000000
         C            3.541646902217    -0.457075799908    -0.410612246721    12.000000000000
         C           -3.690695097783    -0.840421799908    -0.360845246721    12.000000000000
         C           -0.269768097783     0.105444200092    -0.004987246721    12.000000000000
         C            2.161581902217     0.122965200092    -0.452684246721    12.000000000000
         C            1.057892902217    -0.484916799908     0.025364753279    12.000000000000
         C            4.493941902217     0.386309200092     0.443340753279    12.000000000000
         H           -3.124858097783     0.124768200092     1.478019753279     1.007825032230
         H           -1.277925097783    -1.506489799908     0.916446753279     1.007825032230
         H            3.496107002217    -1.460805699908    -0.024221946721     1.007825032230
         H            3.943755902217    -0.529783799908    -1.429987246721     1.007825032230
         H           -3.335166097783    -0.897671799908    -1.392468246721     1.007825032230
         H           -3.729339097783    -1.850059799908     0.059157753279     1.007825032230
         H           -4.709335097783    -0.435647799908    -0.359110246721     1.007825032230
         H           -0.374580097783     1.098430200092    -0.437116246721     1.007825032230
         H            2.064427902217     1.120593200092    -0.886605246721     1.007825032230
         H            1.150393902217    -1.481403799908     0.462692753279     1.007825032230
         H            4.559631902217     1.408691200092     0.059131753279     1.007825032230
         H            5.502390902217    -0.038460799908     0.447197753279     1.007825032230
         H            4.137723902217     0.437438200092     1.475772753279     1.007825032230
         H           -3.588882097783     1.715941200092    -0.139611246721     1.007825032230

  Basis Set: AUG-CC-PVTZ
    Blend: AUG-CC-PVTZ
  Basis Set: (AUG-CC-PVTZ AUX)
    Blend: AUG-CC-PVTZ-JKFIT
	 Reference Energy          =    -386.0624283685232285 [Eh]
	 Singles Energy            =      -0.0000000000000000 [Eh]
	 Same-Spin Energy          =      -0.4002582435295693 [Eh]
	 Opposite-Spin Energy      =      -1.3782701071963748 [Eh]
	 Correlation Energy        =      -1.7785283507259442 [Eh]
	 Total Energy              =    -387.8409567192491636 [Eh]

	 ================> DF-SCS-MP2 Energies <==================
	-----------------------------------------------------------
	 SCS Same-Spin Scale       =       0.3333333333333333 [-]
	 SCS Opposite-Spin Scale   =       1.2000000000000000 [-]
	 SCS Same-Spin Energy      =      -0.1334194145098564 [Eh]
	 SCS Opposite-Spin Energy  =      -1.6539241286356496 [Eh]
	 SCS Correlation Energy    =      -1.7873435431455060 [Eh]
	 SCS Total Energy          =    -387.8497719116687108 [Eh]
	-----------------------------------------------------------

  Dipole Moment: [D]
     X:    -1.2061      Y:    -0.6989      Z:     0.3928     Total:     1.4483

*** Psi4 exiting successfully. Buy a developer a beer!
