                               Psi4 1.4a3.dev225

  ==> Input File <==

--------------------------------------------------------------------------
#psi4
#
memory 32 gb

molecule  {
0 1
  O       -2.7161510     1.3794200    -0.1343610
  C       -2.7832390     0.0721360     0.4401970
  C       -1.3979030    -0.4954620     0.4743180
  C        3.5083460    -0.4405980    -0.4123350
  C       -3.7239960    -0.8239440    -0.3625680
  C       -0.3030690     0.1219220    -0.0067100
  C        2.1282810     0.1394430    -0.4544070
  C        1.0245920    -0.4684390     0.0236420
  C        4.4606410     0.4027870     0.4416180
  H       -3.1581590     0.1412460     1.4762970
  H       -1.3128147    -1.4717825     0.9066516
  H        3.4619600    -1.4629760    -0.0187660
  H        3.9104550    -0.5133060    -1.4317100
  H       -3.3684670    -0.8811940    -1.3941910
  H       -3.7626400    -1.8335820     0.0574350
  H       -4.7426360    -0.4191700    -0.3608330
  H       -0.4078810     1.1149080    -0.4388390
  H        2.0311270     1.1370710    -0.8883280
  H        1.1170930    -1.4649260     0.4609700
  H        4.5263310     1.4251690     0.0574090
  H        5.4690900    -0.0219830     0.4454750
  H        4.1044230     0.4539160     1.4740500
  H       -3.6221830     1.7324190    -0.1413340
units angstrom
no_reorient  #important for SAPT in psi4, default
symmetry c1  #important for SAPT in psi4, default
}

set PROPERTIES_ORIGIN ["COM"]
properties('MP2/aug-cc-pvtz', properties = ['dipole'])
--------------------------------------------------------------------------

    Molecular point group: c1
  Charge       = 0
  Multiplicity = 1
  Basis Set: AUG-CC-PVTZ
    Blend: AUG-CC-PVTZ
  Basis Set: (AUG-CC-PVTZ AUX)
    Blend: AUG-CC-PVTZ-JKFIT

    Orbital Energies [Eh]
    ---------------------

    Doubly Occupied:

       1A    -20.558650     2A    -11.286795     3A    -11.226507
       4A    -11.224052     5A    -11.223665     6A    -11.223163
       7A    -11.220941     8A    -11.220634     9A    -11.213137
      10A     -1.359966    11A     -1.097254    12A     -1.060948
      13A     -1.015572    14A     -0.962295    15A     -0.876478
      16A     -0.828370    17A     -0.752820    18A     -0.750087
      19A     -0.694777    20A     -0.636805    21A     -0.627591
      22A     -0.616424    23A     -0.590182    24A     -0.583283
      25A     -0.546994    26A     -0.543915    27A     -0.527533
      28A     -0.518436    29A     -0.501339    30A     -0.492333
      31A     -0.479298    32A     -0.467898    33A     -0.452716
      34A     -0.417811    35A     -0.297240

  @DF-RHF Final Energy:  -386.06247774523854

   => Energetics <=

    Nuclear Repulsion Energy =            417.5991589934913577
    One-Electron Energy =               -1351.1314496788827455
    Two-Electron Energy =                 547.4698129401529059
    Total Energy =                       -386.0624777452385388
  Basis Set: (AUG-CC-PVTZ AUX)
    Blend: AUG-CC-PVTZ-RI
    Molecular point group: c1

    Geometry (in Angstrom), charge = 0, multiplicity = 1:

       Center              X                  Y                   Z               Mass
    ------------   -----------------  -----------------  -----------------  -----------------
         O           -2.682830638897     1.362945545537    -0.132631104283    15.994914619570
         C           -2.749918638897     0.055661545537     0.441926895717    12.000000000000
         C           -1.364582638897    -0.511936454463     0.476047895717    12.000000000000
         C            3.541666361103    -0.457072454463    -0.410605104283    12.000000000000
         C           -3.690675638897    -0.840418454463    -0.360838104283    12.000000000000
         C           -0.269748638897     0.105447545537    -0.004980104283    12.000000000000
         C            2.161601361103     0.122968545537    -0.452677104283    12.000000000000
         C            1.057912361103    -0.484913454463     0.025371895717    12.000000000000
         C            4.493961361103     0.386312545537     0.443347895717    12.000000000000
         H           -3.124838638897     0.124771545537     1.478026895717     1.007825032230
         H           -1.279494338897    -1.488256954463     0.908381495717     1.007825032230
         H            3.495280361103    -1.479450454463    -0.017036104283     1.007825032230
         H            3.943775361103    -0.529780454463    -1.429980104283     1.007825032230
         H           -3.335146638897    -0.897668454463    -1.392461104283     1.007825032230
         H           -3.729319638897    -1.850056454463     0.059164895717     1.007825032230
         H           -4.709315638897    -0.435644454463    -0.359103104283     1.007825032230
         H           -0.374560638897     1.098433545537    -0.437109104283     1.007825032230
         H            2.064447361103     1.120596545537    -0.886598104283     1.007825032230
         H            1.150413361103    -1.481400454463     0.462699895717     1.007825032230
         H            4.559651361103     1.408694545537     0.059138895717     1.007825032230
         H            5.502410361103    -0.038457454463     0.447204895717     1.007825032230
         H            4.137743361103     0.437441545537     1.475779895717     1.007825032230
         H           -3.588862638897     1.715944545537    -0.139604104283     1.007825032230

  Basis Set: AUG-CC-PVTZ
    Blend: AUG-CC-PVTZ
  Basis Set: (AUG-CC-PVTZ AUX)
    Blend: AUG-CC-PVTZ-JKFIT
	 Reference Energy          =    -386.0624777452385388 [Eh]
	 Singles Energy            =      -0.0000000000000000 [Eh]
	 Same-Spin Energy          =      -0.4002328646957544 [Eh]
	 Opposite-Spin Energy      =      -1.3782698140403573 [Eh]
	 Correlation Energy        =      -1.7785026787361118 [Eh]
	 Total Energy              =    -387.8409804239746563 [Eh]

	 ================> DF-SCS-MP2 Energies <==================
	-----------------------------------------------------------
	 SCS Same-Spin Scale       =       0.3333333333333333 [-]
	 SCS Opposite-Spin Scale   =       1.2000000000000000 [-]
	 SCS Same-Spin Energy      =      -0.1334109548985848 [Eh]
	 SCS Opposite-Spin Energy  =      -1.6539237768484287 [Eh]
	 SCS Correlation Energy    =      -1.7873347317470136 [Eh]
	 SCS Total Energy          =    -387.8498124769855622 [Eh]
	-----------------------------------------------------------

  Dipole Moment: [D]
     X:    -1.2070      Y:    -0.6936      Z:     0.3945     Total:     1.4469

*** Psi4 exiting successfully. Buy a developer a beer!
