                               Psi4 1.3.2 release

  ==> Input File <==

--------------------------------------------------------------------------
#psi4
#
memory 32 gb

molecule  {
0 1
  O        2.6932640    -1.3344870    -0.0264310
  C        2.7508540     0.0254460     0.4069810
  C        1.3606810     0.5764810     0.3953890
  C       -3.5492030     0.3621160    -0.4101590
  C        3.6709050     0.8409920    -0.4958550
  C        0.2704120    -0.1024690    -0.0006590
  C       -2.1631840    -0.2004740    -0.4090490
  C       -1.1554208     0.5092199    -0.0187735
  C       -4.4702810    -0.3835230     0.5583970
  H        3.1361180     0.0688010     1.4404840
  H        1.2655190     1.6118880     0.7253080
  H       -3.5113520     1.4248880    -0.1442750
  H       -3.9713450     0.3050270    -1.4220020
  H        3.3060070     0.7827570    -1.5237190
  H        3.6990520     1.8899320    -0.1870900
  H        4.6948240     0.4527130    -0.4608140
  H        0.3841050    -1.1350190    -0.3229170
  H       -2.0573220    -1.2386810    -0.7303930
  H       -1.1648060     1.5075440     0.3065060
  H       -4.5255200    -1.4457790     0.3033390
  H       -5.4853170     0.0231860     0.5310900
  H       -4.0942820    -0.3029910     1.5815520
  H        3.6028580    -1.6773980    -0.0043180
units angstrom
no_reorient  #important for SAPT in psi4, default
symmetry c1  #important for SAPT in psi4, default
}

set PROPERTIES_ORIGIN ["COM"]
properties('MP2/aug-cc-pvtz', properties = ['dipole'])
--------------------------------------------------------------------------

    Molecular point group: c1
  Charge       = 0
  Multiplicity = 1
  Basis Set: AUG-CC-PVTZ
    Blend: AUG-CC-PVTZ
  Basis Set: (AUG-CC-PVTZ AUX)
    Blend: AUG-CC-PVTZ-JKFIT

    Orbital Energies [Eh]
    ---------------------

    Doubly Occupied:

       1A    -20.557991     2A    -11.285754     3A    -11.226860
       4A    -11.220726     5A    -11.220658     6A    -11.220217
       7A    -11.219906     8A    -11.217606     9A    -11.211859
      10A     -1.359848    11A     -1.098299    12A     -1.061010
      13A     -1.010471    14A     -0.967055    15A     -0.869949
      16A     -0.829047    17A     -0.757232    18A     -0.744023
      19A     -0.693788    20A     -0.638332    21A     -0.624200
      22A     -0.617396    23A     -0.595910    24A     -0.577476
      25A     -0.546976    26A     -0.544111    27A     -0.533714
      28A     -0.518615    29A     -0.501255    30A     -0.492564
      31A     -0.481188    32A     -0.452390    33A     -0.449392
      34A     -0.412651    35A     -0.310670

  @DF-RHF Final Energy:  -386.05524770624459

   => Energetics <=

    Nuclear Repulsion Energy =            417.6238858496877810
    One-Electron Energy =               -1351.2199892811468089
    Two-Electron Energy =                 547.5408557252144419
    Total Energy =                       -386.0552477062445860
  Basis Set: (AUG-CC-PVTZ AUX)
    Blend: AUG-CC-PVTZ-RI
    Molecular point group: c1

    Geometry (in Angstrom), charge = 0, multiplicity = 1:

       Center              X                  Y                   Z               Mass
    ------------   -----------------  -----------------  -----------------  -----------------
         O            2.702008499696    -1.338238393648    -0.026319768342    15.994914619570
         C            2.759598499696     0.021694606352     0.407092231658    12.000000000000
         C            1.369425499696     0.572729606352     0.395500231658    12.000000000000
         C           -3.540458500304     0.358364606352    -0.410047768342    12.000000000000
         C            3.679649499696     0.837240606352    -0.495743768342    12.000000000000
         C            0.279156499696    -0.106220393648    -0.000547768342    12.000000000000
         C           -2.154439500304    -0.204225393648    -0.408937768342    12.000000000000
         C           -1.146676300304     0.505468506352    -0.018662268342    12.000000000000
         C           -4.461536500304    -0.387274393648     0.558508231658    12.000000000000
         H            3.144862499696     0.065049606352     1.440595231658     1.007825032230
         H            1.274263499696     1.608136606352     0.725419231658     1.007825032230
         H           -3.502607500304     1.421136606352    -0.144163768342     1.007825032230
         H           -3.962600500304     0.301275606352    -1.421890768342     1.007825032230
         H            3.314751499696     0.779005606352    -1.523607768342     1.007825032230
         H            3.707796499696     1.886180606352    -0.186978768342     1.007825032230
         H            4.703568499696     0.448961606352    -0.460702768342     1.007825032230
         H            0.392849499696    -1.138770393648    -0.322805768342     1.007825032230
         H           -2.048577500304    -1.242432393648    -0.730281768342     1.007825032230
         H           -1.156061500304     1.503792606352     0.306617231658     1.007825032230
         H           -4.516775500304    -1.449530393648     0.303450231658     1.007825032230
         H           -5.476572500304     0.019434606352     0.531201231658     1.007825032230
         H           -4.085537500304    -0.306742393648     1.581663231658     1.007825032230
         H            3.611602499696    -1.681149393648    -0.004206768342     1.007825032230

  Basis Set: AUG-CC-PVTZ
    Blend: AUG-CC-PVTZ
  Basis Set: (AUG-CC-PVTZ AUX)
    Blend: AUG-CC-PVTZ-JKFIT
	 Reference Energy          =    -386.0552477062445860 [Eh]
	 Singles Energy            =      -0.0000000000000000 [Eh]
	 Same-Spin Energy          =      -0.3988625896497698 [Eh]
	 Opposite-Spin Energy      =      -1.3765165132086254 [Eh]
	 Correlation Energy        =      -1.7753791028583952 [Eh]
	 Total Energy              =    -387.8306268091029665 [Eh]

	 ================> DF-SCS-MP2 Energies <==================
	-----------------------------------------------------------
	 SCS Same-Spin Scale       =       0.3333333333333333 [-]
	 SCS Opposite-Spin Scale   =       1.2000000000000000 [-]
	 SCS Same-Spin Energy      =      -0.1329541965499233 [Eh]
	 SCS Opposite-Spin Energy  =      -1.6518198158503505 [Eh]
	 SCS Correlation Energy    =      -1.7847740124002738 [Eh]
	 SCS Total Energy          =    -387.8400217186448344 [Eh]
	-----------------------------------------------------------

  Dipole Moment: [D]
     X:     1.1608      Y:     0.7385      Z:     0.2985     Total:     1.4078

*** Psi4 exiting successfully. Buy a developer a beer!
