                               Psi4 1.3.2 release

  ==> Input File <==

--------------------------------------------------------------------------
#psi4
#
memory 32 gb

molecule  {
0 1
  O        2.6932640    -1.3344870    -0.0264310
  C        2.7508540     0.0254460     0.4069810
  C        1.3606810     0.5764810     0.3953890
  C       -3.5492030     0.3621160    -0.4101590
  C        3.6709050     0.8409920    -0.4958550
  C        0.2704120    -0.1024690    -0.0006590
  C       -2.1866367    -0.2526968    -0.3556099
  C       -1.0635270     0.4697970    -0.0176060
  C       -4.4084291    -0.4307167     0.5775706
  H        3.1361180     0.0688010     1.4404840
  H        1.2655190     1.6118880     0.7253080
  H       -3.5113520     1.4248880    -0.1442750
  H       -3.9713450     0.3050270    -1.4220020
  H        3.3060070     0.7827570    -1.5237190
  H        3.6990520     1.8899320    -0.1870900
  H        4.6948240     0.4527130    -0.4608140
  H        0.3841050    -1.1350190    -0.3229170
  H       -2.0573220    -1.2386810    -0.7303930
  H       -1.1648060     1.5075440     0.3065060
  H       -4.5255200    -1.4457790     0.3033390
  H       -5.4853170     0.0231860     0.5310900
  H       -4.0942820    -0.3029910     1.5815520
  H        3.6028580    -1.6773980    -0.0043180
units angstrom
no_reorient  #important for SAPT in psi4, default
symmetry c1  #important for SAPT in psi4, default
}

set PROPERTIES_ORIGIN ["COM"]
properties('MP2/aug-cc-pvtz', properties = ['dipole'])
--------------------------------------------------------------------------

    Molecular point group: c1
  Charge       = 0
  Multiplicity = 1
  Basis Set: AUG-CC-PVTZ
    Blend: AUG-CC-PVTZ
  Basis Set: (AUG-CC-PVTZ AUX)
    Blend: AUG-CC-PVTZ-JKFIT

    Orbital Energies [Eh]
    ---------------------

    Doubly Occupied:

       1A    -20.558490     2A    -11.286147     3A    -11.227797
       4A    -11.226430     5A    -11.224114     6A    -11.222845
       7A    -11.221211     8A    -11.220300     9A    -11.212739
      10A     -1.360371    11A     -1.095853    12A     -1.062160
      13A     -1.015477    14A     -0.958468    15A     -0.875630
      16A     -0.827000    17A     -0.759339    18A     -0.747284
      19A     -0.694797    20A     -0.638088    21A     -0.629702
      22A     -0.617561    23A     -0.590769    24A     -0.580482
      25A     -0.546889    26A     -0.542916    27A     -0.529368
      28A     -0.521714    29A     -0.496675    30A     -0.493340
      31A     -0.486289    32A     -0.459641    33A     -0.452619
      34A     -0.414267    35A     -0.292357

  @DF-RHF Final Energy:  -386.05033657847116

   => Energetics <=

    Nuclear Repulsion Energy =            418.1458963514134552
    One-Electron Energy =               -1352.2142157921400667
    Two-Electron Energy =                 548.0179828622553941
    Total Energy =                       -386.0503365784711605
  Basis Set: (AUG-CC-PVTZ AUX)
    Blend: AUG-CC-PVTZ-RI
    Molecular point group: c1

    Geometry (in Angstrom), charge = 0, multiplicity = 1:

       Center              X                  Y                   Z               Mass
    ------------   -----------------  -----------------  -----------------  -----------------
         O            2.689609922064    -1.325026547429    -0.033340633142    15.994914619570
         C            2.747199922064     0.034906452571     0.400071366858    12.000000000000
         C            1.357026922064     0.585941452571     0.388479366858    12.000000000000
         C           -3.552857077936     0.371576452571    -0.417068633142    12.000000000000
         C            3.667250922064     0.850452452571    -0.502764633142    12.000000000000
         C            0.266757922064    -0.093008547429    -0.007568633142    12.000000000000
         C           -2.190290777936    -0.243236347429    -0.362519533142    12.000000000000
         C           -1.067181077936     0.479257452571    -0.024515633142    12.000000000000
         C           -4.412083177936    -0.421256247429     0.570660966858    12.000000000000
         H            3.132463922064     0.078261452571     1.433574366858     1.007825032230
         H            1.261864922064     1.621348452571     0.718398366858     1.007825032230
         H           -3.515006077936     1.434348452571    -0.151184633142     1.007825032230
         H           -3.974999077936     0.314487452571    -1.428911633142     1.007825032230
         H            3.302352922064     0.792217452571    -1.530628633142     1.007825032230
         H            3.695397922064     1.899392452571    -0.193999633142     1.007825032230
         H            4.691169922064     0.462173452571    -0.467723633142     1.007825032230
         H            0.380450922064    -1.125558547429    -0.329826633142     1.007825032230
         H           -2.060976077936    -1.229220547429    -0.737302633142     1.007825032230
         H           -1.168460077936     1.517004452571     0.299596366858     1.007825032230
         H           -4.529174077936    -1.436318547429     0.296429366858     1.007825032230
         H           -5.488971077936     0.032646452571     0.524180366858     1.007825032230
         H           -4.097936077936    -0.293530547429     1.574642366858     1.007825032230
         H            3.599203922064    -1.667937547429    -0.011227633142     1.007825032230

  Basis Set: AUG-CC-PVTZ
    Blend: AUG-CC-PVTZ
  Basis Set: (AUG-CC-PVTZ AUX)
    Blend: AUG-CC-PVTZ-JKFIT
	 Reference Energy          =    -386.0503365784711605 [Eh]
	 Singles Energy            =      -0.0000000000000000 [Eh]
	 Same-Spin Energy          =      -0.4010837135107225 [Eh]
	 Opposite-Spin Energy      =      -1.3799322630037336 [Eh]
	 Correlation Energy        =      -1.7810159765144560 [Eh]
	 Total Energy              =    -387.8313525549856422 [Eh]

	 ================> DF-SCS-MP2 Energies <==================
	-----------------------------------------------------------
	 SCS Same-Spin Scale       =       0.3333333333333333 [-]
	 SCS Opposite-Spin Scale   =       1.2000000000000000 [-]
	 SCS Same-Spin Energy      =      -0.1336945711702408 [Eh]
	 SCS Opposite-Spin Energy  =      -1.6559187156044803 [Eh]
	 SCS Correlation Energy    =      -1.7896132867747212 [Eh]
	 SCS Total Energy          =    -387.8399498652458988 [Eh]
	-----------------------------------------------------------

  Dipole Moment: [D]
     X:     1.2394      Y:     0.7244      Z:     0.2285     Total:     1.4536

*** Psi4 exiting successfully. Buy a developer a beer!
