                               Psi4 1.3.2 release

  ==> Input File <==

--------------------------------------------------------------------------
#psi4
#
memory 32 gb

molecule  {
0 1
  O        2.6932640    -1.3344870    -0.0264310
  C        2.7221684    -0.0419432     0.3793129
  C        1.3606810     0.5764810     0.3953890
  C       -3.5492030     0.3621160    -0.4101590
  C        3.6709050     0.8409920    -0.4958550
  C        0.3118996    -0.1577552    -0.0138400
  C       -2.1631840    -0.2004740    -0.4090490
  C       -1.0635270     0.4697970    -0.0176060
  C       -4.4702810    -0.3835230     0.5583970
  H        3.1361180     0.0688010     1.4404840
  H        1.2655190     1.6118880     0.7253080
  H       -3.5113520     1.4248880    -0.1442750
  H       -3.9713450     0.3050270    -1.4220020
  H        3.3060070     0.7827570    -1.5237190
  H        3.6990520     1.8899320    -0.1870900
  H        4.6948240     0.4527130    -0.4608140
  H        0.3841050    -1.1350190    -0.3229170
  H       -2.0573220    -1.2386810    -0.7303930
  H       -1.1648060     1.5075440     0.3065060
  H       -4.5255200    -1.4457790     0.3033390
  H       -5.4853170     0.0231860     0.5310900
  H       -4.0942820    -0.3029910     1.5815520
  H        3.6028580    -1.6773980    -0.0043180
units angstrom
no_reorient  #important for SAPT in psi4, default
symmetry c1  #important for SAPT in psi4, default
}

set PROPERTIES_ORIGIN ["COM"]
properties('MP2/aug-cc-pvtz', properties = ['dipole'])
--------------------------------------------------------------------------

    Molecular point group: c1
  Charge       = 0
  Multiplicity = 1
  Basis Set: AUG-CC-PVTZ
    Blend: AUG-CC-PVTZ
  Basis Set: (AUG-CC-PVTZ AUX)
    Blend: AUG-CC-PVTZ-JKFIT

    Orbital Energies [Eh]
    ---------------------

    Doubly Occupied:

       1A    -20.567336     2A    -11.287181     3A    -11.225775
       4A    -11.223503     5A    -11.222301     6A    -11.221523
       7A    -11.220431     8A    -11.218584     9A    -11.211655
      10A     -1.393033    11A     -1.092772    12A     -1.059384
      13A     -1.006082    14A     -0.959645    15A     -0.872583
      16A     -0.827545    17A     -0.764089    18A     -0.747655
      19A     -0.700821    20A     -0.648054    21A     -0.624949
      22A     -0.621017    23A     -0.593623    24A     -0.579987
      25A     -0.550286    26A     -0.543518    27A     -0.532829
      28A     -0.522463    29A     -0.510255    30A     -0.489467
      31A     -0.477507    32A     -0.455104    33A     -0.444858
      34A     -0.406541    35A     -0.298692

  @DF-RHF Final Energy:  -386.05241355696785

   => Energetics <=

    Nuclear Repulsion Energy =            418.4903578776247741
    One-Electron Energy =               -1352.8434479153631855
    Two-Electron Energy =                 548.3006764807705622
    Total Energy =                       -386.0524135569678492
  Basis Set: (AUG-CC-PVTZ AUX)
    Blend: AUG-CC-PVTZ-RI
    Molecular point group: c1

    Geometry (in Angstrom), charge = 0, multiplicity = 1:

       Center              X                  Y                   Z               Mass
    ------------   -----------------  -----------------  -----------------  -----------------
         O            2.692045731136    -1.322813249115    -0.022543699035    15.994914619570
         C            2.720950131136    -0.030269449115     0.383200200965    12.000000000000
         C            1.359462731136     0.588154750885     0.399276300965    12.000000000000
         C           -3.550421268864     0.373789750885    -0.406271699035    12.000000000000
         C            3.669686731136     0.852665750885    -0.491967699035    12.000000000000
         C            0.310681331136    -0.146081449115    -0.009952699035    12.000000000000
         C           -2.164402268864    -0.188800249115    -0.405161699035    12.000000000000
         C           -1.064745268864     0.481470750885    -0.013718699035    12.000000000000
         C           -4.471499268864    -0.371849249115     0.562284300965    12.000000000000
         H            3.134899731136     0.080474750885     1.444371300965     1.007825032230
         H            1.264300731136     1.623561750885     0.729195300965     1.007825032230
         H           -3.512570268864     1.436561750885    -0.140387699035     1.007825032230
         H           -3.972563268864     0.316700750885    -1.418114699035     1.007825032230
         H            3.304788731136     0.794430750885    -1.519831699035     1.007825032230
         H            3.697833731136     1.901605750885    -0.183202699035     1.007825032230
         H            4.693605731136     0.464386750885    -0.456926699035     1.007825032230
         H            0.382886731136    -1.123345249115    -0.319029699035     1.007825032230
         H           -2.058540268864    -1.227007249115    -0.726505699035     1.007825032230
         H           -1.166024268864     1.519217750885     0.310393300965     1.007825032230
         H           -4.526738268864    -1.434105249115     0.307226300965     1.007825032230
         H           -5.486535268864     0.034859750885     0.534977300965     1.007825032230
         H           -4.095500268864    -0.291317249115     1.585439300965     1.007825032230
         H            3.601639731136    -1.665724249115    -0.000430699035     1.007825032230

  Basis Set: AUG-CC-PVTZ
    Blend: AUG-CC-PVTZ
  Basis Set: (AUG-CC-PVTZ AUX)
    Blend: AUG-CC-PVTZ-JKFIT
	 Reference Energy          =    -386.0524135569678492 [Eh]
	 Singles Energy            =      -0.0000000000000000 [Eh]
	 Same-Spin Energy          =      -0.3997925293627880 [Eh]
	 Opposite-Spin Energy      =      -1.3770330906050687 [Eh]
	 Correlation Energy        =      -1.7768256199678567 [Eh]
	 Total Energy              =    -387.8292391769356868 [Eh]

	 ================> DF-SCS-MP2 Energies <==================
	-----------------------------------------------------------
	 SCS Same-Spin Scale       =       0.3333333333333333 [-]
	 SCS Opposite-Spin Scale   =       1.2000000000000000 [-]
	 SCS Same-Spin Energy      =      -0.1332641764542626 [Eh]
	 SCS Opposite-Spin Energy  =      -1.6524397087260825 [Eh]
	 SCS Correlation Energy    =      -1.7857038851803451 [Eh]
	 SCS Total Energy          =    -387.8381174421481887 [Eh]
	-----------------------------------------------------------

  Dipole Moment: [D]
     X:     1.2668      Y:     0.4837      Z:     0.2670     Total:     1.3820

*** Psi4 exiting successfully. Buy a developer a beer!
