                               Psi4 1.3.2 release

  ==> Input File <==

--------------------------------------------------------------------------
#psi4
#
memory 32 gb

molecule  {
0 1
  O        2.6932640    -1.3344870    -0.0264310
  C        2.7468225    -0.0697548     0.3766404
  C        1.3606810     0.5764810     0.3953890
  C       -3.5492030     0.3621160    -0.4101590
  C        3.6709050     0.8409920    -0.4958550
  C        0.2704120    -0.1024690    -0.0006590
  C       -2.1631840    -0.2004740    -0.4090490
  C       -1.0635270     0.4697970    -0.0176060
  C       -4.4702810    -0.3835230     0.5583970
  H        3.1361180     0.0688010     1.4404840
  H        1.2655190     1.6118880     0.7253080
  H       -3.5113520     1.4248880    -0.1442750
  H       -3.9713450     0.3050270    -1.4220020
  H        3.3060070     0.7827570    -1.5237190
  H        3.6990520     1.8899320    -0.1870900
  H        4.6948240     0.4527130    -0.4608140
  H        0.3841050    -1.1350190    -0.3229170
  H       -2.0573220    -1.2386810    -0.7303930
  H       -1.1648060     1.5075440     0.3065060
  H       -4.5255200    -1.4457790     0.3033390
  H       -5.4853170     0.0231860     0.5310900
  H       -4.0942820    -0.3029910     1.5815520
  H        3.6028580    -1.6773980    -0.0043180
units angstrom
no_reorient  #important for SAPT in psi4, default
symmetry c1  #important for SAPT in psi4, default
}

set PROPERTIES_ORIGIN ["COM"]
properties('MP2/aug-cc-pvtz', properties = ['dipole'])
--------------------------------------------------------------------------

    Molecular point group: c1
  Charge       = 0
  Multiplicity = 1
  Basis Set: AUG-CC-PVTZ
    Blend: AUG-CC-PVTZ
  Basis Set: (AUG-CC-PVTZ AUX)
    Blend: AUG-CC-PVTZ-JKFIT

    Orbital Energies [Eh]
    ---------------------

    Doubly Occupied:

       1A    -20.571567     2A    -11.289518     3A    -11.224061
       4A    -11.222880     5A    -11.222185     6A    -11.221720
       7A    -11.218833     8A    -11.218383     9A    -11.211981
      10A     -1.407309    11A     -1.095586    12A     -1.055881
      13A     -1.008381    14A     -0.958938    15A     -0.874115
      16A     -0.828930    17A     -0.757639    18A     -0.750537
      19A     -0.705106    20A     -0.648444    21A     -0.628472
      22A     -0.625673    23A     -0.594129    24A     -0.582956
      25A     -0.550454    26A     -0.541306    27A     -0.534514
      28A     -0.517819    29A     -0.503625    30A     -0.487901
      31A     -0.477291    32A     -0.456991    33A     -0.445318
      34A     -0.412074    35A     -0.294622

  @DF-RHF Final Energy:  -386.05393151304048

   => Energetics <=

    Nuclear Repulsion Energy =            418.6853357389284156
    One-Electron Energy =               -1353.1882534561209468
    Two-Electron Energy =                 548.4489862041519928
    Total Energy =                       -386.0539315130405384
  Basis Set: (AUG-CC-PVTZ AUX)
    Blend: AUG-CC-PVTZ-RI
    Molecular point group: c1

    Geometry (in Angstrom), charge = 0, multiplicity = 1:

       Center              X                  Y                   Z               Mass
    ------------   -----------------  -----------------  -----------------  -----------------
         O            2.693647593527    -1.325427710068    -0.023543679487    15.994914619570
         C            2.747206093527    -0.060695510068     0.379527720513    12.000000000000
         C            1.361064593527     0.585540289932     0.398276320513    12.000000000000
         C           -3.548819406473     0.371175289932    -0.407271679487    12.000000000000
         C            3.671288593527     0.850051289932    -0.492967679487    12.000000000000
         C            0.270795593527    -0.093409710068     0.002228320513    12.000000000000
         C           -2.162800406473    -0.191414710068    -0.406161679487    12.000000000000
         C           -1.063143406473     0.478856289932    -0.014718679487    12.000000000000
         C           -4.469897406473    -0.374463710068     0.561284320513    12.000000000000
         H            3.136501593527     0.077860289932     1.443371320513     1.007825032230
         H            1.265902593527     1.620947289932     0.728195320513     1.007825032230
         H           -3.510968406473     1.433947289932    -0.141387679487     1.007825032230
         H           -3.970961406473     0.314086289932    -1.419114679487     1.007825032230
         H            3.306390593527     0.791816289932    -1.520831679487     1.007825032230
         H            3.699435593527     1.898991289932    -0.184202679487     1.007825032230
         H            4.695207593527     0.461772289932    -0.457926679487     1.007825032230
         H            0.384488593527    -1.125959710068    -0.320029679487     1.007825032230
         H           -2.056938406473    -1.229621710068    -0.727505679487     1.007825032230
         H           -1.164422406473     1.516603289932     0.309393320513     1.007825032230
         H           -4.525136406473    -1.436719710068     0.306226320513     1.007825032230
         H           -5.484933406473     0.032245289932     0.533977320513     1.007825032230
         H           -4.093898406473    -0.293931710068     1.584439320513     1.007825032230
         H            3.603241593527    -1.668338710068    -0.001430679487     1.007825032230

  Basis Set: AUG-CC-PVTZ
    Blend: AUG-CC-PVTZ
  Basis Set: (AUG-CC-PVTZ AUX)
    Blend: AUG-CC-PVTZ-JKFIT
	 Reference Energy          =    -386.0539315130404816 [Eh]
	 Singles Energy            =      -0.0000000000000000 [Eh]
	 Same-Spin Energy          =      -0.4003934040378124 [Eh]
	 Opposite-Spin Energy      =      -1.3771761430485028 [Eh]
	 Correlation Energy        =      -1.7775695470863151 [Eh]
	 Total Energy              =    -387.8315010601268114 [Eh]

	 ================> DF-SCS-MP2 Energies <==================
	-----------------------------------------------------------
	 SCS Same-Spin Scale       =       0.3333333333333333 [-]
	 SCS Opposite-Spin Scale   =       1.2000000000000000 [-]
	 SCS Same-Spin Energy      =      -0.1334644680126041 [Eh]
	 SCS Opposite-Spin Energy  =      -1.6526113716582034 [Eh]
	 SCS Correlation Energy    =      -1.7860758396708074 [Eh]
	 SCS Total Energy          =    -387.8400073527112681 [Eh]
	-----------------------------------------------------------

  Dipole Moment: [D]
     X:     1.2940      Y:     0.3817      Z:     0.2427     Total:     1.3708

*** Psi4 exiting successfully. Buy a developer a beer!
