                               Psi4 1.4a3.dev225

  ==> Input File <==

--------------------------------------------------------------------------
#psi4
#
memory 32 gb

molecule  {
0 1
  O       -2.7161510     1.3794200    -0.1343610
  C       -2.7832390     0.0721360     0.4401970
  C       -1.3979030    -0.4954620     0.4743180
  C        3.5083460    -0.4405980    -0.4123350
  C       -3.7239960    -0.8239440    -0.3625680
  C       -0.2623934     0.1448592    -0.0245813
  C        2.1282810     0.1394430    -0.4544070
  C        1.0245920    -0.4684390     0.0236420
  C        4.4606410     0.4027870     0.4416180
  H       -3.1581590     0.1412460     1.4762970
  H       -1.3112260    -1.4900120     0.9147240
  H        3.4619600    -1.4629760    -0.0187660
  H        3.9104550    -0.5133060    -1.4317100
  H       -3.3684670    -0.8811940    -1.3941910
  H       -3.7626400    -1.8335820     0.0574350
  H       -4.7426360    -0.4191700    -0.3608330
  H       -0.4078810     1.1149080    -0.4388390
  H        2.0311270     1.1370710    -0.8883280
  H        1.1170930    -1.4649260     0.4609700
  H        4.5263310     1.4251690     0.0574090
  H        5.4690900    -0.0219830     0.4454750
  H        4.1044230     0.4539160     1.4740500
  H       -3.6221830     1.7324190    -0.1413340
units angstrom
no_reorient  #important for SAPT in psi4, default
symmetry c1  #important for SAPT in psi4, default
}

set PROPERTIES_ORIGIN ["COM"]
properties('MP2/aug-cc-pvtz', properties = ['dipole'])
--------------------------------------------------------------------------

    Molecular point group: c1
  Charge       = 0
  Multiplicity = 1
  Basis Set: AUG-CC-PVTZ
    Blend: AUG-CC-PVTZ
  Basis Set: (AUG-CC-PVTZ AUX)
    Blend: AUG-CC-PVTZ-JKFIT

    Orbital Energies [Eh]
    ---------------------

    Doubly Occupied:

       1A    -20.558932     2A    -11.287234     3A    -11.229613
       4A    -11.226749     5A    -11.226147     6A    -11.223563
       7A    -11.222543     8A    -11.220828     9A    -11.213210
      10A     -1.360113    11A     -1.097864    12A     -1.057113
      13A     -1.017480    14A     -0.957531    15A     -0.878382
      16A     -0.826578    17A     -0.752958    18A     -0.751174
      19A     -0.695508    20A     -0.637828    21A     -0.625999
      22A     -0.616438    23A     -0.589295    24A     -0.582638
      25A     -0.546392    26A     -0.542983    27A     -0.527234
      28A     -0.517578    29A     -0.505386    30A     -0.492172
      31A     -0.479354    32A     -0.471078    33A     -0.452166
      34A     -0.418050    35A     -0.288136

  @DF-RHF Final Energy:  -386.05602723786996

   => Energetics <=

    Nuclear Repulsion Energy =            417.2235947157377609
    One-Electron Energy =               -1350.3667489405690958
    Two-Electron Energy =                 547.0871269869612661
    Total Energy =                       -386.0560272378700120
  Basis Set: (AUG-CC-PVTZ AUX)
    Blend: AUG-CC-PVTZ-RI
    Molecular point group: c1

    Geometry (in Angstrom), charge = 0, multiplicity = 1:

       Center              X                  Y                   Z               Mass
    ------------   -----------------  -----------------  -----------------  -----------------
         O           -2.686713993316     1.360908549834    -0.130995000176    15.994914619570
         C           -2.753801993316     0.053624549834     0.443562999824    12.000000000000
         C           -1.368465993316    -0.513973450166     0.477683999824    12.000000000000
         C            3.537783006684    -0.459109450166    -0.408969000176    12.000000000000
         C           -3.694558993316    -0.842455450166    -0.359202000176    12.000000000000
         C           -0.232956393316     0.126347749834    -0.021215300176    12.000000000000
         C            2.157718006684     0.120931549834    -0.451041000176    12.000000000000
         C            1.054029006684    -0.486950450166     0.027007999824    12.000000000000
         C            4.490078006684     0.384275549834     0.444983999824    12.000000000000
         H           -3.128721993316     0.122734549834     1.479662999824     1.007825032230
         H           -1.281788993316    -1.508523450166     0.918089999824     1.007825032230
         H            3.491397006684    -1.481487450166    -0.015400000176     1.007825032230
         H            3.939892006684    -0.531817450166    -1.428344000176     1.007825032230
         H           -3.339029993316    -0.899705450166    -1.390825000176     1.007825032230
         H           -3.733202993316    -1.852093450166     0.060800999824     1.007825032230
         H           -4.713198993316    -0.437681450166    -0.357467000176     1.007825032230
         H           -0.378443993316     1.096396549834    -0.435473000176     1.007825032230
         H            2.060564006684     1.118559549834    -0.884962000176     1.007825032230
         H            1.146530006684    -1.483437450166     0.464335999824     1.007825032230
         H            4.555768006684     1.406657549834     0.060774999824     1.007825032230
         H            5.498527006684    -0.040494450166     0.448840999824     1.007825032230
         H            4.133860006684     0.435404549834     1.477415999824     1.007825032230
         H           -3.592745993316     1.713907549834    -0.137968000176     1.007825032230

  Basis Set: AUG-CC-PVTZ
    Blend: AUG-CC-PVTZ
  Basis Set: (AUG-CC-PVTZ AUX)
    Blend: AUG-CC-PVTZ-JKFIT
	 Reference Energy          =    -386.0560272378699551 [Eh]
	 Singles Energy            =      -0.0000000000000000 [Eh]
	 Same-Spin Energy          =      -0.4012646193014075 [Eh]
	 Opposite-Spin Energy      =      -1.3801800919069875 [Eh]
	 Correlation Energy        =      -1.7814447112083951 [Eh]
	 Total Energy              =    -387.8374719490783491 [Eh]

	 ================> DF-SCS-MP2 Energies <==================
	-----------------------------------------------------------
	 SCS Same-Spin Scale       =       0.3333333333333333 [-]
	 SCS Opposite-Spin Scale   =       1.2000000000000000 [-]
	 SCS Same-Spin Energy      =      -0.1337548731004692 [Eh]
	 SCS Opposite-Spin Energy  =      -1.6562161102883850 [Eh]
	 SCS Correlation Energy    =      -1.7899709833888542 [Eh]
	 SCS Total Energy          =    -387.8459982212588102 [Eh]
	-----------------------------------------------------------

  Dipole Moment: [D]
     X:    -1.1950      Y:    -0.6860      Z:     0.3874     Total:     1.4313

*** Psi4 exiting successfully. Buy a developer a beer!
