                               Psi4 1.3.2 release

  ==> Input File <==

--------------------------------------------------------------------------
#psi4
#
memory 32 gb

molecule  {
0 1
  O        2.6932640    -1.3344870    -0.0264310
  C        2.7552943     0.0368956     0.4113967
  C        1.3606810     0.5764810     0.3953890
  C       -3.5492030     0.3621160    -0.4101590
  C        3.6709050     0.8409920    -0.4958550
  C        0.2704120    -0.1024690    -0.0006590
  C       -2.1631840    -0.2004740    -0.4090490
  C       -1.0635270     0.4697970    -0.0176060
  C       -4.4702810    -0.3835230     0.5583970
  H        3.1361180     0.0688010     1.4404840
  H        1.2749228     1.6122514     0.7267425
  H       -3.5113520     1.4248880    -0.1442750
  H       -3.9713450     0.3050270    -1.4220020
  H        3.3060070     0.7827570    -1.5237190
  H        3.6990520     1.8899320    -0.1870900
  H        4.6948240     0.4527130    -0.4608140
  H        0.3841050    -1.1350190    -0.3229170
  H       -2.0573220    -1.2386810    -0.7303930
  H       -1.1648060     1.5075440     0.3065060
  H       -4.5255200    -1.4457790     0.3033390
  H       -5.4853170     0.0231860     0.5310900
  H       -4.0942820    -0.3029910     1.5815520
  H        3.6028580    -1.6773980    -0.0043180
units angstrom
no_reorient  #important for SAPT in psi4, default
symmetry c1  #important for SAPT in psi4, default
}

set PROPERTIES_ORIGIN ["COM"]
properties('MP2/aug-cc-pvtz', properties = ['dipole'])
--------------------------------------------------------------------------

    Molecular point group: c1
  Charge       = 0
  Multiplicity = 1
  Basis Set: AUG-CC-PVTZ
    Blend: AUG-CC-PVTZ
  Basis Set: (AUG-CC-PVTZ AUX)
    Blend: AUG-CC-PVTZ-JKFIT

    Orbital Energies [Eh]
    ---------------------

    Doubly Occupied:

       1A    -20.557115     2A    -11.286138     3A    -11.226071
       4A    -11.223952     5A    -11.223344     6A    -11.223110
       7A    -11.222077     8A    -11.220800     9A    -11.212856
      10A     -1.355562    11A     -1.097931    12A     -1.061803
      13A     -1.017179    14A     -0.962835    15A     -0.876817
      16A     -0.828689    17A     -0.752563    18A     -0.747292
      19A     -0.694137    20A     -0.636219    21A     -0.628447
      22A     -0.615702    23A     -0.589686    24A     -0.582421
      25A     -0.546461    26A     -0.544636    27A     -0.526123
      28A     -0.518782    29A     -0.499993    30A     -0.492526
      31A     -0.479235    32A     -0.468210    33A     -0.453667
      34A     -0.418978    35A     -0.297816

  @DF-RHF Final Energy:  -386.06215126699755

   => Energetics <=

    Nuclear Repulsion Energy =            417.8802761685531664
    One-Electron Energy =               -1351.7065082909082321
    Two-Electron Energy =                 547.7640808553576335
    Total Energy =                       -386.0621512669974891
  Basis Set: (AUG-CC-PVTZ AUX)
    Blend: AUG-CC-PVTZ-RI
    Molecular point group: c1

    Geometry (in Angstrom), charge = 0, multiplicity = 1:

       Center              X                  Y                   Z               Mass
    ------------   -----------------  -----------------  -----------------  -----------------
         O            2.692766268786    -1.335579381089    -0.026862525690    15.994914619570
         C            2.754796568786     0.035803218911     0.410965174310    12.000000000000
         C            1.360183268786     0.575388618911     0.394957474310    12.000000000000
         C           -3.549700731214     0.361023618911    -0.410590525690    12.000000000000
         C            3.670407268786     0.839899618911    -0.496286525690    12.000000000000
         C            0.269914268786    -0.103561381089    -0.001090525690    12.000000000000
         C           -2.163681731214    -0.201566381089    -0.409480525690    12.000000000000
         C           -1.064024731214     0.468704618911    -0.018037525690    12.000000000000
         C           -4.470778731214    -0.384615381089     0.557965474310    12.000000000000
         H            3.135620268786     0.067708618911     1.440052474310     1.007825032230
         H            1.274425068786     1.611159018911     0.726310974310     1.007825032230
         H           -3.511849731214     1.423795618911    -0.144706525690     1.007825032230
         H           -3.971842731214     0.303934618911    -1.422433525690     1.007825032230
         H            3.305509268786     0.781664618911    -1.524150525690     1.007825032230
         H            3.698554268786     1.888839618911    -0.187521525690     1.007825032230
         H            4.694326268786     0.451620618911    -0.461245525690     1.007825032230
         H            0.383607268786    -1.136111381089    -0.323348525690     1.007825032230
         H           -2.057819731214    -1.239773381089    -0.730824525690     1.007825032230
         H           -1.165303731214     1.506451618911     0.306074474310     1.007825032230
         H           -4.526017731214    -1.446871381089     0.302907474310     1.007825032230
         H           -5.485814731214     0.022093618911     0.530658474310     1.007825032230
         H           -4.094779731214    -0.304083381089     1.581120474310     1.007825032230
         H            3.602360268786    -1.678490381089    -0.004749525690     1.007825032230

  Basis Set: AUG-CC-PVTZ
    Blend: AUG-CC-PVTZ
  Basis Set: (AUG-CC-PVTZ AUX)
    Blend: AUG-CC-PVTZ-JKFIT
	 Reference Energy          =    -386.0621512669975459 [Eh]
	 Singles Energy            =      -0.0000000000000000 [Eh]
	 Same-Spin Energy          =      -0.4003783067342260 [Eh]
	 Opposite-Spin Energy      =      -1.3785608484697542 [Eh]
	 Correlation Energy        =      -1.7789391552039802 [Eh]
	 Total Energy              =    -387.8410904222015461 [Eh]

	 ================> DF-SCS-MP2 Energies <==================
	-----------------------------------------------------------
	 SCS Same-Spin Scale       =       0.3333333333333333 [-]
	 SCS Opposite-Spin Scale   =       1.2000000000000000 [-]
	 SCS Same-Spin Energy      =      -0.1334594355780753 [Eh]
	 SCS Opposite-Spin Energy  =      -1.6542730181637051 [Eh]
	 SCS Correlation Energy    =      -1.7877324537417805 [Eh]
	 SCS Total Energy          =    -387.8498837207393422 [Eh]
	-----------------------------------------------------------

  Dipole Moment: [D]
     X:     1.2014      Y:     0.7691      Z:     0.3162     Total:     1.4611

*** Psi4 exiting successfully. Buy a developer a beer!
