                               Psi4 1.3.2 release

  ==> Input File <==

--------------------------------------------------------------------------
#psi4
#
memory 32 gb

molecule  {
0 1
  O        2.6932640    -1.3344870    -0.0264310
  C        2.7508540     0.0254460     0.4069810
  C        1.3606810     0.5764810     0.3953890
  C       -3.5492030     0.3621160    -0.4101590
  C        3.6709050     0.8409920    -0.4958550
  C        0.3117347    -0.1581269    -0.0127487
  C       -2.1631840    -0.2004740    -0.4090490
  C       -1.0635270     0.4697970    -0.0176060
  C       -4.4702810    -0.3835230     0.5583970
  H        3.1361180     0.0688010     1.4404840
  H        1.3219059     1.6126168     0.7343418
  H       -3.5113520     1.4248880    -0.1442750
  H       -3.9713450     0.3050270    -1.4220020
  H        3.3060070     0.7827570    -1.5237190
  H        3.6990520     1.8899320    -0.1870900
  H        4.6948240     0.4527130    -0.4608140
  H        0.3841050    -1.1350190    -0.3229170
  H       -2.0573220    -1.2386810    -0.7303930
  H       -1.1648060     1.5075440     0.3065060
  H       -4.5255200    -1.4457790     0.3033390
  H       -5.4853170     0.0231860     0.5310900
  H       -4.0942820    -0.3029910     1.5815520
  H        3.6028580    -1.6773980    -0.0043180
units angstrom
no_reorient  #important for SAPT in psi4, default
symmetry c1  #important for SAPT in psi4, default
}

set PROPERTIES_ORIGIN ["COM"]
properties('MP2/aug-cc-pvtz', properties = ['dipole'])
--------------------------------------------------------------------------

    Molecular point group: c1
  Charge       = 0
  Multiplicity = 1
  Basis Set: AUG-CC-PVTZ
    Blend: AUG-CC-PVTZ
  Basis Set: (AUG-CC-PVTZ AUX)
    Blend: AUG-CC-PVTZ-JKFIT

    Orbital Energies [Eh]
    ---------------------

    Doubly Occupied:

       1A    -20.558093     2A    -11.283686     3A    -11.226516
       4A    -11.224644     5A    -11.223144     6A    -11.222946
       7A    -11.222071     8A    -11.220171     9A    -11.211995
      10A     -1.360225    11A     -1.093210    12A     -1.061569
      13A     -1.012365    14A     -0.962073    15A     -0.873441
      16A     -0.827719    17A     -0.757533    18A     -0.747449
      19A     -0.694579    20A     -0.640209    21A     -0.624378
      22A     -0.615848    23A     -0.590445    24A     -0.578778
      25A     -0.551217    26A     -0.544325    27A     -0.527040
      28A     -0.521245    29A     -0.507807    30A     -0.491784
      31A     -0.478145    32A     -0.458986    33A     -0.451695
      34A     -0.411916    35A     -0.301020

  @DF-RHF Final Energy:  -386.05703883537922

   => Energetics <=

    Nuclear Repulsion Energy =            417.7280551537415931
    One-Electron Energy =               -1351.4136473321034373
    Two-Electron Energy =                 547.6285533429826273
    Total Energy =                       -386.0570388353792168
  Basis Set: (AUG-CC-PVTZ AUX)
    Blend: AUG-CC-PVTZ-RI
    Molecular point group: c1

    Geometry (in Angstrom), charge = 0, multiplicity = 1:

       Center              X                  Y                   Z               Mass
    ------------   -----------------  -----------------  -----------------  -----------------
         O            2.688881080867    -1.329196405353    -0.025352618526    15.994914619570
         C            2.746471080867     0.030736594647     0.408059381474    12.000000000000
         C            1.356298080867     0.581771594647     0.396467381474    12.000000000000
         C           -3.553585919133     0.367406594647    -0.409080618526    12.000000000000
         C            3.666522080867     0.846282594647    -0.494776618526    12.000000000000
         C            0.307351780867    -0.152836305353    -0.011670318526    12.000000000000
         C           -2.167566919133    -0.195183405353    -0.407970618526    12.000000000000
         C           -1.067909919133     0.475087594647    -0.016527618526    12.000000000000
         C           -4.474663919133    -0.378232405353     0.559475381474    12.000000000000
         H            3.131735080867     0.074091594647     1.441562381474     1.007825032230
         H            1.317522980867     1.617907394647     0.735420181474     1.007825032230
         H           -3.515734919133     1.430178594647    -0.143196618526     1.007825032230
         H           -3.975727919133     0.310317594647    -1.420923618526     1.007825032230
         H            3.301624080867     0.788047594647    -1.522640618526     1.007825032230
         H            3.694669080867     1.895222594647    -0.186011618526     1.007825032230
         H            4.690441080867     0.458003594647    -0.459735618526     1.007825032230
         H            0.379722080867    -1.129728405353    -0.321838618526     1.007825032230
         H           -2.061704919133    -1.233390405353    -0.729314618526     1.007825032230
         H           -1.169188919133     1.512834594647     0.307584381474     1.007825032230
         H           -4.529902919133    -1.440488405353     0.304417381474     1.007825032230
         H           -5.489699919133     0.028476594647     0.532168381474     1.007825032230
         H           -4.098664919133    -0.297700405353     1.582630381474     1.007825032230
         H            3.598475080867    -1.672107405353    -0.003239618526     1.007825032230

  Basis Set: AUG-CC-PVTZ
    Blend: AUG-CC-PVTZ
  Basis Set: (AUG-CC-PVTZ AUX)
    Blend: AUG-CC-PVTZ-JKFIT
	 Reference Energy          =    -386.0570388353792168 [Eh]
	 Singles Energy            =      -0.0000000000000000 [Eh]
	 Same-Spin Energy          =      -0.3997014104546954 [Eh]
	 Opposite-Spin Energy      =      -1.3779984187885796 [Eh]
	 Correlation Energy        =      -1.7776998292432751 [Eh]
	 Total Energy              =    -387.8347386646224777 [Eh]

	 ================> DF-SCS-MP2 Energies <==================
	-----------------------------------------------------------
	 SCS Same-Spin Scale       =       0.3333333333333333 [-]
	 SCS Opposite-Spin Scale   =       1.2000000000000000 [-]
	 SCS Same-Spin Energy      =      -0.1332338034848984 [Eh]
	 SCS Opposite-Spin Energy  =      -1.6535981025462956 [Eh]
	 SCS Correlation Energy    =      -1.7868319060311939 [Eh]
	 SCS Total Energy          =    -387.8438707414103988 [Eh]
	-----------------------------------------------------------

  Dipole Moment: [D]
     X:     1.2525      Y:     0.7362      Z:     0.3214     Total:     1.4880

*** Psi4 exiting successfully. Buy a developer a beer!
