                               Psi4 1.4a3.dev225

  ==> Input File <==

--------------------------------------------------------------------------
#psi4
#
memory 32 gb

molecule  {
0 1
  O       -2.7161510     1.3794200    -0.1343610
  C       -2.7832390     0.0721360     0.4401970
  C       -1.3979030    -0.4954620     0.4743180
  C        3.5083460    -0.4405980    -0.4123350
  C       -3.7239960    -0.8239440    -0.3625680
  C       -0.3030690     0.1219220    -0.0067100
  C        2.1282810     0.1394430    -0.4544070
  C        1.0245920    -0.4684390     0.0236420
  C        4.4606410     0.4027870     0.4416180
  H       -3.1581590     0.1412460     1.4762970
  H       -1.3112260    -1.4900120     0.9147240
  H        3.4640752    -1.4163558    -0.0367127
  H        3.9104550    -0.5133060    -1.4317100
  H       -3.3684670    -0.8811940    -1.3941910
  H       -3.7626400    -1.8335820     0.0574350
  H       -4.7426360    -0.4191700    -0.3608330
  H       -0.4078810     1.1149080    -0.4388390
  H        2.0311270     1.1370710    -0.8883280
  H        1.1170930    -1.4649260     0.4609700
  H        4.5263310     1.4251690     0.0574090
  H        5.4690900    -0.0219830     0.4454750
  H        4.1044230     0.4539160     1.4740500
  H       -3.6221830     1.7324190    -0.1413340
units angstrom
no_reorient  #important for SAPT in psi4, default
symmetry c1  #important for SAPT in psi4, default
}

set PROPERTIES_ORIGIN ["COM"]
properties('MP2/aug-cc-pvtz', properties = ['dipole'])
--------------------------------------------------------------------------

    Molecular point group: c1
  Charge       = 0
  Multiplicity = 1
  Basis Set: AUG-CC-PVTZ
    Blend: AUG-CC-PVTZ
  Basis Set: (AUG-CC-PVTZ AUX)
    Blend: AUG-CC-PVTZ-JKFIT

    Orbital Energies [Eh]
    ---------------------

    Doubly Occupied:

       1A    -20.558752     2A    -11.286962     3A    -11.226185
       4A    -11.224212     5A    -11.223538     6A    -11.222369
       7A    -11.220887     8A    -11.217487     9A    -11.212701
      10A     -1.360073    11A     -1.097548    12A     -1.061526
      13A     -1.016161    14A     -0.962038    15A     -0.876816
      16A     -0.830409    17A     -0.754932    18A     -0.747766
      19A     -0.694844    20A     -0.638494    21A     -0.627318
      22A     -0.616969    23A     -0.590652    24A     -0.583252
      25A     -0.546346    26A     -0.543471    27A     -0.527451
      28A     -0.518016    29A     -0.500898    30A     -0.492770
      31A     -0.483779    32A     -0.467579    33A     -0.452773
      34A     -0.417787    35A     -0.297190

  @DF-RHF Final Energy:  -386.06150543426173

   => Energetics <=

    Nuclear Repulsion Energy =            417.7208974088233617
    One-Electron Energy =               -1351.3649046949437889
    Two-Electron Energy =                 547.5825018518587513
    Total Energy =                       -386.0615054342616759
  Basis Set: (AUG-CC-PVTZ AUX)
    Blend: AUG-CC-PVTZ-RI
    Molecular point group: c1

    Geometry (in Angstrom), charge = 0, multiplicity = 1:

       Center              X                  Y                   Z               Mass
    ------------   -----------------  -----------------  -----------------  -----------------
         O           -2.682860240412     1.362718647480    -0.132552189023    15.994914619570
         C           -2.749948240412     0.055434647480     0.442005810977    12.000000000000
         C           -1.364612240412    -0.512163352520     0.476126810977    12.000000000000
         C            3.541636759588    -0.457299352520    -0.410526189023    12.000000000000
         C           -3.690705240412    -0.840645352520    -0.360759189023    12.000000000000
         C           -0.269778240412     0.105220647480    -0.004901189023    12.000000000000
         C            2.161571759588     0.122741647480    -0.452598189023    12.000000000000
         C            1.057882759588    -0.485140352520     0.025450810977    12.000000000000
         C            4.493931759588     0.386085647480     0.443426810977    12.000000000000
         H           -3.124868240412     0.124544647480     1.478105810977     1.007825032230
         H           -1.277935240412    -1.506713352520     0.916532810977     1.007825032230
         H            3.497365959588    -1.433057152520    -0.034903889023     1.007825032230
         H            3.943745759588    -0.530007352520    -1.429901189023     1.007825032230
         H           -3.335176240412    -0.897895352520    -1.392382189023     1.007825032230
         H           -3.729349240412    -1.850283352520     0.059243810977     1.007825032230
         H           -4.709345240412    -0.435871352520    -0.359024189023     1.007825032230
         H           -0.374590240412     1.098206647480    -0.437030189023     1.007825032230
         H            2.064417759588     1.120369647480    -0.886519189023     1.007825032230
         H            1.150383759588    -1.481627352520     0.462778810977     1.007825032230
         H            4.559621759588     1.408467647480     0.059217810977     1.007825032230
         H            5.502380759588    -0.038684352520     0.447283810977     1.007825032230
         H            4.137713759588     0.437214647480     1.475858810977     1.007825032230
         H           -3.588892240412     1.715717647480    -0.139525189023     1.007825032230

  Basis Set: AUG-CC-PVTZ
    Blend: AUG-CC-PVTZ
  Basis Set: (AUG-CC-PVTZ AUX)
    Blend: AUG-CC-PVTZ-JKFIT
	 Reference Energy          =    -386.0615054342617327 [Eh]
	 Singles Energy            =      -0.0000000000000000 [Eh]
	 Same-Spin Energy          =      -0.4002428951049469 [Eh]
	 Opposite-Spin Energy      =      -1.3780773404708335 [Eh]
	 Correlation Energy        =      -1.7783202355757806 [Eh]
	 Total Energy              =    -387.8398256698375235 [Eh]

	 ================> DF-SCS-MP2 Energies <==================
	-----------------------------------------------------------
	 SCS Same-Spin Scale       =       0.3333333333333333 [-]
	 SCS Opposite-Spin Scale   =       1.2000000000000000 [-]
	 SCS Same-Spin Energy      =      -0.1334142983683156 [Eh]
	 SCS Opposite-Spin Energy  =      -1.6536928085650002 [Eh]
	 SCS Correlation Energy    =      -1.7871071069333158 [Eh]
	 SCS Total Energy          =    -387.8486125411950525 [Eh]
	-----------------------------------------------------------

  Dipole Moment: [D]
     X:    -1.2024      Y:    -0.7171      Z:     0.3951     Total:     1.4547

*** Psi4 exiting successfully. Buy a developer a beer!
