                               Psi4 1.3.2 release

  ==> Input File <==

--------------------------------------------------------------------------
#psi4
#
memory 32 gb

molecule  {
0 1
  O        2.6932640    -1.3344870    -0.0264310
  C        2.7508540     0.0254460     0.4069810
  C        1.3645061     0.5847400     0.4467876
  C       -3.5492030     0.3621160    -0.4101590
  C        3.6709050     0.8409920    -0.4958550
  C        0.2704120    -0.1024690    -0.0006590
  C       -2.1631840    -0.2004740    -0.4090490
  C       -1.0635270     0.4697970    -0.0176060
  C       -4.4702810    -0.3835230     0.5583970
  H        3.1026193     0.0842487     1.4516053
  H        1.2655190     1.6118880     0.7253080
  H       -3.5113520     1.4248880    -0.1442750
  H       -3.9713450     0.3050270    -1.4220020
  H        3.3060070     0.7827570    -1.5237190
  H        3.6990520     1.8899320    -0.1870900
  H        4.6948240     0.4527130    -0.4608140
  H        0.3841050    -1.1350190    -0.3229170
  H       -2.0573220    -1.2386810    -0.7303930
  H       -1.1648060     1.5075440     0.3065060
  H       -4.5255200    -1.4457790     0.3033390
  H       -5.4853170     0.0231860     0.5310900
  H       -4.0942820    -0.3029910     1.5815520
  H        3.6028580    -1.6773980    -0.0043180
units angstrom
no_reorient  #important for SAPT in psi4, default
symmetry c1  #important for SAPT in psi4, default
}

set PROPERTIES_ORIGIN ["COM"]
properties('MP2/aug-cc-pvtz', properties = ['dipole'])
--------------------------------------------------------------------------

    Molecular point group: c1
  Charge       = 0
  Multiplicity = 1
  Basis Set: AUG-CC-PVTZ
    Blend: AUG-CC-PVTZ
  Basis Set: (AUG-CC-PVTZ AUX)
    Blend: AUG-CC-PVTZ-JKFIT

    Orbital Energies [Eh]
    ---------------------

    Doubly Occupied:

       1A    -20.559783     2A    -11.286365     3A    -11.226164
       4A    -11.225639     5A    -11.223479     6A    -11.223126
       7A    -11.222802     8A    -11.221400     9A    -11.212676
      10A     -1.360831    11A     -1.096396    12A     -1.060413
      13A     -1.015529    14A     -0.960787    15A     -0.877753
      16A     -0.827617    17A     -0.753013    18A     -0.750521
      19A     -0.693872    20A     -0.637803    21A     -0.625436
      22A     -0.616909    23A     -0.590722    24A     -0.582420
      25A     -0.548329    26A     -0.544114    27A     -0.528679
      28A     -0.519037    29A     -0.503061    30A     -0.490593
      31A     -0.478755    32A     -0.467736    33A     -0.453490
      34A     -0.415890    35A     -0.294043

  @DF-RHF Final Energy:  -386.05965462735355

   => Energetics <=

    Nuclear Repulsion Energy =            417.6209955370953253
    One-Electron Energy =               -1351.1709315001908180
    Two-Electron Energy =                 547.4902813357419973
    Total Energy =                       -386.0596546273535523
  Basis Set: (AUG-CC-PVTZ AUX)
    Blend: AUG-CC-PVTZ-RI
    Molecular point group: c1

    Geometry (in Angstrom), charge = 0, multiplicity = 1:

       Center              X                  Y                   Z               Mass
    ------------   -----------------  -----------------  -----------------  -----------------
         O            2.693167686875    -1.335396319650    -0.031410797626    15.994914619570
         C            2.750757686875     0.024536680350     0.402001202374    12.000000000000
         C            1.364409786875     0.583830680350     0.441807802374    12.000000000000
         C           -3.549299313125     0.361206680350    -0.415138797626    12.000000000000
         C            3.670808686875     0.840082680350    -0.500834797626    12.000000000000
         C            0.270315686875    -0.103378319650    -0.005638797626    12.000000000000
         C           -2.163280313125    -0.201383319650    -0.414028797626    12.000000000000
         C           -1.063623313125     0.468887680350    -0.022585797626    12.000000000000
         C           -4.470377313125    -0.384432319650     0.553417202374    12.000000000000
         H            3.102522986875     0.083339380350     1.446625502374     1.007825032230
         H            1.265422686875     1.610978680350     0.720328202374     1.007825032230
         H           -3.511448313125     1.423978680350    -0.149254797626     1.007825032230
         H           -3.971441313125     0.304117680350    -1.426981797626     1.007825032230
         H            3.305910686875     0.781847680350    -1.528698797626     1.007825032230
         H            3.698955686875     1.889022680350    -0.192069797626     1.007825032230
         H            4.694727686875     0.451803680350    -0.465793797626     1.007825032230
         H            0.384008686875    -1.135928319650    -0.327896797626     1.007825032230
         H           -2.057418313125    -1.239590319650    -0.735372797626     1.007825032230
         H           -1.164902313125     1.506634680350     0.301526202374     1.007825032230
         H           -4.525616313125    -1.446688319650     0.298359202374     1.007825032230
         H           -5.485413313125     0.022276680350     0.526110202374     1.007825032230
         H           -4.094378313125    -0.303900319650     1.576572202374     1.007825032230
         H            3.602761686875    -1.678307319650    -0.009297797626     1.007825032230

  Basis Set: AUG-CC-PVTZ
    Blend: AUG-CC-PVTZ
  Basis Set: (AUG-CC-PVTZ AUX)
    Blend: AUG-CC-PVTZ-JKFIT
	 Reference Energy          =    -386.0596546273535523 [Eh]
	 Singles Energy            =      -0.0000000000000000 [Eh]
	 Same-Spin Energy          =      -0.4006512614602056 [Eh]
	 Opposite-Spin Energy      =      -1.3789316564704346 [Eh]
	 Correlation Energy        =      -1.7795829179306402 [Eh]
	 Total Energy              =    -387.8392375452842202 [Eh]

	 ================> DF-SCS-MP2 Energies <==================
	-----------------------------------------------------------
	 SCS Same-Spin Scale       =       0.3333333333333333 [-]
	 SCS Opposite-Spin Scale   =       1.2000000000000000 [-]
	 SCS Same-Spin Energy      =      -0.1335504204867352 [Eh]
	 SCS Opposite-Spin Energy  =      -1.6547179877645215 [Eh]
	 SCS Correlation Energy    =      -1.7882684082512568 [Eh]
	 SCS Total Energy          =    -387.8479230356048220 [Eh]
	-----------------------------------------------------------

  Dipole Moment: [D]
     X:     1.2256      Y:     0.7513      Z:     0.2662     Total:     1.4620

*** Psi4 exiting successfully. Buy a developer a beer!
