                               Psi4 1.3.2 release

  ==> Input File <==

--------------------------------------------------------------------------
#psi4
#
memory 32 gb

molecule  {
0 1
  O        2.6932640    -1.3344870    -0.0264310
  C        2.7508540     0.0254460     0.4069810
  C        1.3606810     0.5764810     0.3953890
  C       -3.5492030     0.3621160    -0.4101590
  C        3.6709050     0.8409920    -0.4958550
  C        0.2704120    -0.1024690    -0.0006590
  C       -2.1631840    -0.2004740    -0.4090490
  C       -1.0635270     0.4697970    -0.0176060
  C       -4.4702810    -0.3835230     0.5583970
  H        3.1710205     0.0727287     1.5341130
  H        1.2655190     1.6118880     0.7253080
  H       -3.5113520     1.4248880    -0.1442750
  H       -3.9713450     0.3050270    -1.4220020
  H        3.3060070     0.7827570    -1.5237190
  H        3.6990520     1.8899320    -0.1870900
  H        4.6948240     0.4527130    -0.4608140
  H        0.3841050    -1.1350190    -0.3229170
  H       -2.0573220    -1.2386810    -0.7303930
  H       -1.1648060     1.5075440     0.3065060
  H       -4.5255200    -1.4457790     0.3033390
  H       -5.4853170     0.0231860     0.5310900
  H       -4.0942820    -0.3029910     1.5815520
  H        3.6028580    -1.6773980    -0.0043180
units angstrom
no_reorient  #important for SAPT in psi4, default
symmetry c1  #important for SAPT in psi4, default
}

set PROPERTIES_ORIGIN ["COM"]
properties('MP2/aug-cc-pvtz', properties = ['dipole'])
--------------------------------------------------------------------------

    Molecular point group: c1
  Charge       = 0
  Multiplicity = 1
  Basis Set: AUG-CC-PVTZ
    Blend: AUG-CC-PVTZ
  Basis Set: (AUG-CC-PVTZ AUX)
    Blend: AUG-CC-PVTZ-JKFIT

    Orbital Energies [Eh]
    ---------------------

    Doubly Occupied:

       1A    -20.560835     2A    -11.298667     3A    -11.226467
       4A    -11.224436     5A    -11.223686     6A    -11.223478
       7A    -11.222600     8A    -11.221799     9A    -11.213052
      10A     -1.361876    11A     -1.098228    12A     -1.060861
      13A     -1.015220    14A     -0.962963    15A     -0.875562
      16A     -0.825408    17A     -0.750991    18A     -0.748342
      19A     -0.687010    20A     -0.638120    21A     -0.626846
      22A     -0.615844    23A     -0.590589    24A     -0.583260
      25A     -0.546965    26A     -0.544134    27A     -0.527568
      28A     -0.518925    29A     -0.501203    30A     -0.490636
      31A     -0.479315    32A     -0.468213    33A     -0.449570
      34A     -0.417052    35A     -0.297561

  @DF-RHF Final Energy:  -386.05605450406483

   => Energetics <=

    Nuclear Repulsion Energy =            417.5103090020530772
    One-Electron Energy =               -1350.9381655645615865
    Two-Electron Energy =                 547.3718020584436772
    Total Energy =                       -386.0560545040648321
  Basis Set: (AUG-CC-PVTZ AUX)
    Blend: AUG-CC-PVTZ-RI
    Molecular point group: c1

    Geometry (in Angstrom), charge = 0, multiplicity = 1:

       Center              X                  Y                   Z               Mass
    ------------   -----------------  -----------------  -----------------  -----------------
         O            2.692985018945    -1.334518332147    -0.027179148300    15.994914619570
         C            2.750575018945     0.025414667853     0.406232851700    12.000000000000
         C            1.360402018945     0.576449667853     0.394640851700    12.000000000000
         C           -3.549481981055     0.362084667853    -0.410907148300    12.000000000000
         C            3.670626018945     0.840960667853    -0.496603148300    12.000000000000
         C            0.270133018945    -0.102500332147    -0.001407148300    12.000000000000
         C           -2.163462981055    -0.200505332147    -0.409797148300    12.000000000000
         C           -1.063805981055     0.469765667853    -0.018354148300    12.000000000000
         C           -4.470559981055    -0.383554332147     0.557648851700    12.000000000000
         H            3.170741518945     0.072697367853     1.533364851700     1.007825032230
         H            1.265240018945     1.611856667853     0.724559851700     1.007825032230
         H           -3.511630981055     1.424856667853    -0.145023148300     1.007825032230
         H           -3.971623981055     0.304995667853    -1.422750148300     1.007825032230
         H            3.305728018945     0.782725667853    -1.524467148300     1.007825032230
         H            3.698773018945     1.889900667853    -0.187838148300     1.007825032230
         H            4.694545018945     0.452681667853    -0.461562148300     1.007825032230
         H            0.383826018945    -1.135050332147    -0.323665148300     1.007825032230
         H           -2.057600981055    -1.238712332147    -0.731141148300     1.007825032230
         H           -1.165084981055     1.507512667853     0.305757851700     1.007825032230
         H           -4.525798981055    -1.445810332147     0.302590851700     1.007825032230
         H           -5.485595981055     0.023154667853     0.530341851700     1.007825032230
         H           -4.094560981055    -0.303022332147     1.580803851700     1.007825032230
         H            3.602579018945    -1.677429332147    -0.005066148300     1.007825032230

  Basis Set: AUG-CC-PVTZ
    Blend: AUG-CC-PVTZ
  Basis Set: (AUG-CC-PVTZ AUX)
    Blend: AUG-CC-PVTZ-JKFIT
	 Reference Energy          =    -386.0560545040648321 [Eh]
	 Singles Energy            =      -0.0000000000000000 [Eh]
	 Same-Spin Energy          =      -0.4004991038086098 [Eh]
	 Opposite-Spin Energy      =      -1.3791568626980109 [Eh]
	 Correlation Energy        =      -1.7796559665066205 [Eh]
	 Total Energy              =    -387.8357104705714278 [Eh]

	 ================> DF-SCS-MP2 Energies <==================
	-----------------------------------------------------------
	 SCS Same-Spin Scale       =       0.3333333333333333 [-]
	 SCS Opposite-Spin Scale   =       1.2000000000000000 [-]
	 SCS Same-Spin Energy      =      -0.1334997012695366 [Eh]
	 SCS Opposite-Spin Energy  =      -1.6549882352376131 [Eh]
	 SCS Correlation Energy    =      -1.7884879365071495 [Eh]
	 SCS Total Energy          =    -387.8445424405719564 [Eh]
	-----------------------------------------------------------

  Dipole Moment: [D]
     X:     1.1493      Y:     0.7041      Z:     0.2159     Total:     1.3650

*** Psi4 exiting successfully. Buy a developer a beer!
