                               Psi4 1.3.2 release

  ==> Input File <==

--------------------------------------------------------------------------
#psi4
#
memory 32 gb

molecule  {
0 1
  O        2.6932640    -1.3344870    -0.0264310
  C        2.7508540     0.0254460     0.4069810
  C        1.3606810     0.5764810     0.3953890
  C       -3.5492030     0.3621160    -0.4101590
  C        3.6709050     0.8409920    -0.4958550
  C        0.2704120    -0.1024690    -0.0006590
  C       -2.2009597    -0.1424470    -0.3959451
  C       -1.0635270     0.4697970    -0.0176060
  C       -4.4702810    -0.3835230     0.5583970
  H        3.1361180     0.0688010     1.4404840
  H        1.2655190     1.6118880     0.7253080
  H       -3.5113520     1.4248880    -0.1442750
  H       -3.9713450     0.3050270    -1.4220020
  H        3.3060070     0.7827570    -1.5237190
  H        3.6990520     1.8899320    -0.1870900
  H        4.6948240     0.4527130    -0.4608140
  H        0.3841050    -1.1350190    -0.3229170
  H       -2.0573220    -1.2386810    -0.7303930
  H       -1.2209431     1.5036315     0.2964501
  H       -4.5255200    -1.4457790     0.3033390
  H       -5.4853170     0.0231860     0.5310900
  H       -4.0942820    -0.3029910     1.5815520
  H        3.6028580    -1.6773980    -0.0043180
units angstrom
no_reorient  #important for SAPT in psi4, default
symmetry c1  #important for SAPT in psi4, default
}

set PROPERTIES_ORIGIN ["COM"]
properties('MP2/aug-cc-pvtz', properties = ['dipole'])
--------------------------------------------------------------------------

    Molecular point group: c1
  Charge       = 0
  Multiplicity = 1
  Basis Set: AUG-CC-PVTZ
    Blend: AUG-CC-PVTZ
  Basis Set: (AUG-CC-PVTZ AUX)
    Blend: AUG-CC-PVTZ-JKFIT

    Orbital Energies [Eh]
    ---------------------

    Doubly Occupied:

       1A    -20.559172     2A    -11.287196     3A    -11.227936
       4A    -11.225615     5A    -11.223772     6A    -11.222613
       7A    -11.221562     8A    -11.221053     9A    -11.214342
      10A     -1.361110    11A     -1.101307    12A     -1.066471
      13A     -1.017488    14A     -0.963257    15A     -0.880816
      16A     -0.832882    17A     -0.750187    18A     -0.741486
      19A     -0.695945    20A     -0.637059    21A     -0.632093
      22A     -0.617124    23A     -0.593080    24A     -0.584912
      25A     -0.546746    26A     -0.541004    27A     -0.526285
      28A     -0.521111    29A     -0.504274    30A     -0.493351
      31A     -0.476782    32A     -0.464710    33A     -0.453468
      34A     -0.417680    35A     -0.297416

  @DF-RHF Final Energy:  -386.05517006244554

   => Energetics <=

    Nuclear Repulsion Energy =            418.3091704210044668
    One-Electron Energy =               -1352.4860759011182836
    Two-Electron Energy =                 548.1217354176683330
    Total Energy =                       -386.0551700624455407
  Basis Set: (AUG-CC-PVTZ AUX)
    Blend: AUG-CC-PVTZ-RI
    Molecular point group: c1

    Geometry (in Angstrom), charge = 0, multiplicity = 1:

       Center              X                  Y                   Z               Mass
    ------------   -----------------  -----------------  -----------------  -----------------
         O            2.697307311479    -1.339977476276    -0.027597456742    15.994914619570
         C            2.754897311479     0.019955523724     0.405814543258    12.000000000000
         C            1.364724311479     0.570990523724     0.394222543258    12.000000000000
         C           -3.545159688521     0.356625523724    -0.411325456742    12.000000000000
         C            3.674948311479     0.835501523724    -0.497021456742    12.000000000000
         C            0.274455311479    -0.107959476276    -0.001825456742    12.000000000000
         C           -2.196916388521    -0.147937476276    -0.397111556742    12.000000000000
         C           -1.059483688521     0.464306523724    -0.018772456742    12.000000000000
         C           -4.466237688521    -0.389013476276     0.557230543258    12.000000000000
         H            3.140161311479     0.063310523724     1.439317543258     1.007825032230
         H            1.269562311479     1.606397523724     0.724141543258     1.007825032230
         H           -3.507308688521     1.419397523724    -0.145441456742     1.007825032230
         H           -3.967301688521     0.299536523724    -1.423168456742     1.007825032230
         H            3.310050311479     0.777266523724    -1.524885456742     1.007825032230
         H            3.703095311479     1.884441523724    -0.188256456742     1.007825032230
         H            4.698867311479     0.447222523724    -0.461980456742     1.007825032230
         H            0.388148311479    -1.140509476276    -0.324083456742     1.007825032230
         H           -2.053278688521    -1.244171476276    -0.731559456742     1.007825032230
         H           -1.216899788521     1.498141023724     0.295283643258     1.007825032230
         H           -4.521476688521    -1.451269476276     0.302172543258     1.007825032230
         H           -5.481273688521     0.017695523724     0.529923543258     1.007825032230
         H           -4.090238688521    -0.308481476276     1.580385543258     1.007825032230
         H            3.606901311479    -1.682888476276    -0.005484456742     1.007825032230

  Basis Set: AUG-CC-PVTZ
    Blend: AUG-CC-PVTZ
  Basis Set: (AUG-CC-PVTZ AUX)
    Blend: AUG-CC-PVTZ-JKFIT
	 Reference Energy          =    -386.0551700624455407 [Eh]
	 Singles Energy            =      -0.0000000000000000 [Eh]
	 Same-Spin Energy          =      -0.4012076670502990 [Eh]
	 Opposite-Spin Energy      =      -1.3793355225630075 [Eh]
	 Correlation Energy        =      -1.7805431896133066 [Eh]
	 Total Energy              =    -387.8357132520588380 [Eh]

	 ================> DF-SCS-MP2 Energies <==================
	-----------------------------------------------------------
	 SCS Same-Spin Scale       =       0.3333333333333333 [-]
	 SCS Opposite-Spin Scale   =       1.2000000000000000 [-]
	 SCS Same-Spin Energy      =      -0.1337358890167663 [Eh]
	 SCS Opposite-Spin Energy  =      -1.6552026270756091 [Eh]
	 SCS Correlation Energy    =      -1.7889385160923754 [Eh]
	 SCS Total Energy          =    -387.8441085785379414 [Eh]
	-----------------------------------------------------------

  Dipole Moment: [D]
     X:     1.1728      Y:     0.7635      Z:     0.3228     Total:     1.4362

*** Psi4 exiting successfully. Buy a developer a beer!
