                               Psi4 1.3.2 release

  ==> Input File <==

--------------------------------------------------------------------------
#psi4
#
memory 32 gb

molecule  {
0 1
  O        2.6932640    -1.3344870    -0.0264310
  C        2.7508540     0.0254460     0.4069810
  C        1.3672812     0.5670209     0.3932635
  C       -3.5492030     0.3621160    -0.4101590
  C        3.6709050     0.8409920    -0.4958550
  C        0.2704120    -0.1024690    -0.0006590
  C       -2.1631840    -0.2004740    -0.4090490
  C       -1.0681168     0.4588287    -0.0219764
  C       -4.4702810    -0.3835230     0.5583970
  H        3.1361180     0.0688010     1.4404840
  H        1.2655190     1.6118880     0.7253080
  H       -3.5113520     1.4248880    -0.1442750
  H       -3.9713450     0.3050270    -1.4220020
  H        3.3060070     0.7827570    -1.5237190
  H        3.6990520     1.8899320    -0.1870900
  H        4.6948240     0.4527130    -0.4608140
  H        0.3841050    -1.1350190    -0.3229170
  H       -2.0573220    -1.2386810    -0.7303930
  H       -1.1648060     1.5075440     0.3065060
  H       -4.5255200    -1.4457790     0.3033390
  H       -5.4853170     0.0231860     0.5310900
  H       -4.0942820    -0.3029910     1.5815520
  H        3.6028580    -1.6773980    -0.0043180
units angstrom
no_reorient  #important for SAPT in psi4, default
symmetry c1  #important for SAPT in psi4, default
}

set PROPERTIES_ORIGIN ["COM"]
properties('MP2/aug-cc-pvtz', properties = ['dipole'])
--------------------------------------------------------------------------

    Molecular point group: c1
  Charge       = 0
  Multiplicity = 1
  Basis Set: AUG-CC-PVTZ
    Blend: AUG-CC-PVTZ
  Basis Set: (AUG-CC-PVTZ AUX)
    Blend: AUG-CC-PVTZ-JKFIT

    Orbital Energies [Eh]
    ---------------------

    Doubly Occupied:

       1A    -20.558657     2A    -11.286366     3A    -11.224826
       4A    -11.223891     5A    -11.223398     6A    -11.222753
       7A    -11.221890     8A    -11.220868     9A    -11.212895
      10A     -1.360897    11A     -1.098750    12A     -1.062319
      13A     -1.016636    14A     -0.963715    15A     -0.877496
      16A     -0.829606    17A     -0.751819    18A     -0.745978
      19A     -0.695759    20A     -0.637436    21A     -0.628778
      22A     -0.616996    23A     -0.590461    24A     -0.582403
      25A     -0.546367    26A     -0.543080    27A     -0.526980
      28A     -0.519034    29A     -0.499408    30A     -0.492253
      31A     -0.479373    32A     -0.467893    33A     -0.453388
      34A     -0.418990    35A     -0.299080

  @DF-RHF Final Energy:  -386.06238133495822

   => Energetics <=

    Nuclear Repulsion Energy =            418.1989959764841842
    One-Electron Energy =               -1352.3218712865066209
    Two-Electron Energy =                 548.0604939750642188
    Total Energy =                       -386.0623813349582178
  Basis Set: (AUG-CC-PVTZ AUX)
    Blend: AUG-CC-PVTZ-RI
    Molecular point group: c1

    Geometry (in Angstrom), charge = 0, multiplicity = 1:

       Center              X                  Y                   Z               Mass
    ------------   -----------------  -----------------  -----------------  -----------------
         O            2.693072651157    -1.332542991827    -0.025812722061    15.994914619570
         C            2.750662651157     0.027390008173     0.407599277939    12.000000000000
         C            1.367089851157     0.568964908173     0.393881777939    12.000000000000
         C           -3.549394348843     0.364060008173    -0.409540722061    12.000000000000
         C            3.670713651157     0.842936008173    -0.495236722061    12.000000000000
         C            0.270220651157    -0.100524991827    -0.000040722061    12.000000000000
         C           -2.163375348843    -0.198529991827    -0.408430722061    12.000000000000
         C           -1.068308148843     0.460772708173    -0.021358122061    12.000000000000
         C           -4.470472348843    -0.381578991827     0.559015277939    12.000000000000
         H            3.135926651157     0.070745008173     1.441102277939     1.007825032230
         H            1.265327651157     1.613832008173     0.725926277939     1.007825032230
         H           -3.511543348843     1.426832008173    -0.143656722061     1.007825032230
         H           -3.971536348843     0.306971008173    -1.421383722061     1.007825032230
         H            3.305815651157     0.784701008173    -1.523100722061     1.007825032230
         H            3.698860651157     1.891876008173    -0.186471722061     1.007825032230
         H            4.694632651157     0.454657008173    -0.460195722061     1.007825032230
         H            0.383913651157    -1.133074991827    -0.322298722061     1.007825032230
         H           -2.057513348843    -1.236736991827    -0.729774722061     1.007825032230
         H           -1.164997348843     1.509488008173     0.307124277939     1.007825032230
         H           -4.525711348843    -1.443834991827     0.303957277939     1.007825032230
         H           -5.485508348843     0.025130008173     0.531708277939     1.007825032230
         H           -4.094473348843    -0.301046991827     1.582170277939     1.007825032230
         H            3.602666651157    -1.675453991827    -0.003699722061     1.007825032230

  Basis Set: AUG-CC-PVTZ
    Blend: AUG-CC-PVTZ
  Basis Set: (AUG-CC-PVTZ AUX)
    Blend: AUG-CC-PVTZ-JKFIT
	 Reference Energy          =    -386.0623813349582178 [Eh]
	 Singles Energy            =      -0.0000000000000000 [Eh]
	 Same-Spin Energy          =      -0.4003619939501208 [Eh]
	 Opposite-Spin Energy      =      -1.3782199928952334 [Eh]
	 Correlation Energy        =      -1.7785819868453543 [Eh]
	 Total Energy              =    -387.8409633218035992 [Eh]

	 ================> DF-SCS-MP2 Energies <==================
	-----------------------------------------------------------
	 SCS Same-Spin Scale       =       0.3333333333333333 [-]
	 SCS Opposite-Spin Scale   =       1.2000000000000000 [-]
	 SCS Same-Spin Energy      =      -0.1334539979833736 [Eh]
	 SCS Opposite-Spin Energy  =      -1.6538639914742801 [Eh]
	 SCS Correlation Energy    =      -1.7873179894576536 [Eh]
	 SCS Total Energy          =    -387.8496993244158944 [Eh]
	-----------------------------------------------------------

  Dipole Moment: [D]
     X:     1.2123      Y:     0.7200      Z:     0.3061     Total:     1.4429

*** Psi4 exiting successfully. Buy a developer a beer!
