                               Psi4 1.3.2 release

  ==> Input File <==

--------------------------------------------------------------------------
#psi4
#
memory 32 gb

molecule  {
0 1
  O        2.6932640    -1.3344870    -0.0264310
  C        2.7508540     0.0254460     0.4069810
  C        1.3670524     0.5886145     0.4724726
  C       -3.5492030     0.3621160    -0.4101590
  C        3.6709050     0.8409920    -0.4958550
  C        0.2704120    -0.1024690    -0.0006590
  C       -2.1631840    -0.2004740    -0.4090490
  C       -1.0635270     0.4697970    -0.0176060
  C       -4.4702810    -0.3835230     0.5583970
  H        3.0857067     0.0919469     1.4566894
  H        1.2655190     1.6118880     0.7253080
  H       -3.5113520     1.4248880    -0.1442750
  H       -3.9713450     0.3050270    -1.4220020
  H        3.3060070     0.7827570    -1.5237190
  H        3.6990520     1.8899320    -0.1870900
  H        4.6948240     0.4527130    -0.4608140
  H        0.3841050    -1.1350190    -0.3229170
  H       -2.0573220    -1.2386810    -0.7303930
  H       -1.1648060     1.5075440     0.3065060
  H       -4.5255200    -1.4457790     0.3033390
  H       -5.4853170     0.0231860     0.5310900
  H       -4.0942820    -0.3029910     1.5815520
  H        3.6028580    -1.6773980    -0.0043180
units angstrom
no_reorient  #important for SAPT in psi4, default
symmetry c1  #important for SAPT in psi4, default
}

set PROPERTIES_ORIGIN ["COM"]
properties('MP2/aug-cc-pvtz', properties = ['dipole'])
--------------------------------------------------------------------------

    Molecular point group: c1
  Charge       = 0
  Multiplicity = 1
  Basis Set: AUG-CC-PVTZ
    Blend: AUG-CC-PVTZ
  Basis Set: (AUG-CC-PVTZ AUX)
    Blend: AUG-CC-PVTZ-JKFIT

    Orbital Energies [Eh]
    ---------------------

    Doubly Occupied:

       1A    -20.560299     2A    -11.286281     3A    -11.227924
       4A    -11.225700     5A    -11.224220     6A    -11.223152
       7A    -11.222822     8A    -11.221766     9A    -11.212689
      10A     -1.360935    11A     -1.095782    12A     -1.059997
      13A     -1.015257    14A     -0.959962    15A     -0.878376
      16A     -0.827155    17A     -0.754624    18A     -0.750453
      19A     -0.693224    20A     -0.638183    21A     -0.624099
      22A     -0.616964    23A     -0.591206    24A     -0.582113
      25A     -0.549225    26A     -0.544218    27A     -0.529329
      28A     -0.519207    29A     -0.504068    30A     -0.489738
      31A     -0.478611    32A     -0.467507    33A     -0.453503
      34A     -0.414598    35A     -0.292319

  @DF-RHF Final Energy:  -386.05657563366083

   => Energetics <=

    Nuclear Repulsion Energy =            417.4215139657546274
    One-Electron Energy =               -1350.7651664345780773
    Two-Electron Energy =                 547.2870768351625657
    Total Energy =                       -386.0565756336608274
  Basis Set: (AUG-CC-PVTZ AUX)
    Blend: AUG-CC-PVTZ-RI
    Molecular point group: c1

    Geometry (in Angstrom), charge = 0, multiplicity = 1:

       Center              X                  Y                   Z               Mass
    ------------   -----------------  -----------------  -----------------  -----------------
         O            2.693060548255    -1.335826537871    -0.033895593728    15.994914619570
         C            2.750650548255     0.024106462129     0.399516406272    12.000000000000
         C            1.366848948255     0.587274962129     0.465008006272    12.000000000000
         C           -3.549406451745     0.360776462129    -0.417623593728    12.000000000000
         C            3.670701548255     0.839652462129    -0.503319593728    12.000000000000
         C            0.270208548255    -0.103808537871    -0.008123593728    12.000000000000
         C           -2.163387451745    -0.201813537871    -0.416513593728    12.000000000000
         C           -1.063730451745     0.468457462129    -0.025070593728    12.000000000000
         C           -4.470484451745    -0.384862537871     0.550932406272    12.000000000000
         H            3.085503248255     0.090607362129     1.449224806272     1.007825032230
         H            1.265315548255     1.610548462129     0.717843406272     1.007825032230
         H           -3.511555451745     1.423548462129    -0.151739593728     1.007825032230
         H           -3.971548451745     0.303687462129    -1.429466593728     1.007825032230
         H            3.305803548255     0.781417462129    -1.531183593728     1.007825032230
         H            3.698848548255     1.888592462129    -0.194554593728     1.007825032230
         H            4.694620548255     0.451373462129    -0.468278593728     1.007825032230
         H            0.383901548255    -1.136358537871    -0.330381593728     1.007825032230
         H           -2.057525451745    -1.240020537871    -0.737857593728     1.007825032230
         H           -1.165009451745     1.506204462129     0.299041406272     1.007825032230
         H           -4.525723451745    -1.447118537871     0.295874406272     1.007825032230
         H           -5.485520451745     0.021846462129     0.523625406272     1.007825032230
         H           -4.094485451745    -0.304330537871     1.574087406272     1.007825032230
         H            3.602654548255    -1.678737537871    -0.011782593728     1.007825032230

  Basis Set: AUG-CC-PVTZ
    Blend: AUG-CC-PVTZ
  Basis Set: (AUG-CC-PVTZ AUX)
    Blend: AUG-CC-PVTZ-JKFIT
	 Reference Energy          =    -386.0565756336608274 [Eh]
	 Singles Energy            =      -0.0000000000000000 [Eh]
	 Same-Spin Energy          =      -0.4008764620629703 [Eh]
	 Opposite-Spin Energy      =      -1.3794011718463908 [Eh]
	 Correlation Energy        =      -1.7802776339093611 [Eh]
	 Total Energy              =    -387.8368532675701772 [Eh]

	 ================> DF-SCS-MP2 Energies <==================
	-----------------------------------------------------------
	 SCS Same-Spin Scale       =       0.3333333333333333 [-]
	 SCS Opposite-Spin Scale   =       1.2000000000000000 [-]
	 SCS Same-Spin Energy      =      -0.1336254873543234 [Eh]
	 SCS Opposite-Spin Energy  =      -1.6552814062156689 [Eh]
	 SCS Correlation Energy    =      -1.7889068935699923 [Eh]
	 SCS Total Energy          =    -387.8454825272308426 [Eh]
	-----------------------------------------------------------

  Dipole Moment: [D]
     X:     1.2277      Y:     0.7595      Z:     0.2424     Total:     1.4638

*** Psi4 exiting successfully. Buy a developer a beer!
