                               Psi4 1.3.2 release

  ==> Input File <==

--------------------------------------------------------------------------
#psi4
#
memory 32 gb

molecule  {
0 1
  O        2.6932640    -1.3344870    -0.0264310
  C        2.7508540     0.0254460     0.4069810
  C        1.3606810     0.5764810     0.3953890
  C       -3.5492030     0.3621160    -0.4101590
  C        3.6709050     0.8409920    -0.4958550
  C        0.2320777    -0.0449501     0.0125162
  C       -2.1631840    -0.2004740    -0.4090490
  C       -1.0635270     0.4697970    -0.0176060
  C       -4.4702810    -0.3835230     0.5583970
  H        3.1361180     0.0688010     1.4404840
  H        1.2093929     1.6083212     0.7153699
  H       -3.5113520     1.4248880    -0.1442750
  H       -3.9713450     0.3050270    -1.4220020
  H        3.3060070     0.7827570    -1.5237190
  H        3.6990520     1.8899320    -0.1870900
  H        4.6948240     0.4527130    -0.4608140
  H        0.3841050    -1.1350190    -0.3229170
  H       -2.0573220    -1.2386810    -0.7303930
  H       -1.1648060     1.5075440     0.3065060
  H       -4.5255200    -1.4457790     0.3033390
  H       -5.4853170     0.0231860     0.5310900
  H       -4.0942820    -0.3029910     1.5815520
  H        3.6028580    -1.6773980    -0.0043180
units angstrom
no_reorient  #important for SAPT in psi4, default
symmetry c1  #important for SAPT in psi4, default
}

set PROPERTIES_ORIGIN ["COM"]
properties('MP2/aug-cc-pvtz', properties = ['dipole'])
--------------------------------------------------------------------------

    Molecular point group: c1
  Charge       = 0
  Multiplicity = 1
  Basis Set: AUG-CC-PVTZ
    Blend: AUG-CC-PVTZ
  Basis Set: (AUG-CC-PVTZ AUX)
    Blend: AUG-CC-PVTZ-JKFIT

    Orbital Energies [Eh]
    ---------------------

    Doubly Occupied:

       1A    -20.559388     2A    -11.289528     3A    -11.228436
       4A    -11.224312     5A    -11.223246     6A    -11.221652
       7A    -11.221102     8A    -11.219854     9A    -11.213630
      10A     -1.361139    11A     -1.103662    12A     -1.061507
      13A     -1.020246    14A     -0.963168    15A     -0.880673
      16A     -0.830054    17A     -0.758513    18A     -0.739691
      19A     -0.696299    20A     -0.636506    21A     -0.632000
      22A     -0.617617    23A     -0.591573    24A     -0.584796
      25A     -0.546334    26A     -0.542169    27A     -0.528272
      28A     -0.518738    29A     -0.496066    30A     -0.483663
      31A     -0.480506    32A     -0.469813    33A     -0.454514
      34A     -0.425184    35A     -0.294114

  @DF-RHF Final Energy:  -386.05438472386788

   => Energetics <=

    Nuclear Repulsion Energy =            418.3196380365354230
    One-Electron Energy =               -1352.5121143583367029
    Two-Electron Energy =                 548.1380915979333395
    Total Energy =                       -386.0543847238678836
  Basis Set: (AUG-CC-PVTZ AUX)
    Blend: AUG-CC-PVTZ-RI
    Molecular point group: c1

    Geometry (in Angstrom), charge = 0, multiplicity = 1:

       Center              X                  Y                   Z               Mass
    ------------   -----------------  -----------------  -----------------  -----------------
         O            2.697360379496    -1.339931888716    -0.027605183049    15.994914619570
         C            2.754950379496     0.020001111284     0.405806816951    12.000000000000
         C            1.364777379496     0.571036111284     0.394214816951    12.000000000000
         C           -3.545106620504     0.356671111284    -0.411333183049    12.000000000000
         C            3.675001379496     0.835547111284    -0.497029183049    12.000000000000
         C            0.236174079496    -0.050394988716     0.011342016951    12.000000000000
         C           -2.159087620504    -0.205918888716    -0.410223183049    12.000000000000
         C           -1.059430620504     0.464352111284    -0.018780183049    12.000000000000
         C           -4.466184620504    -0.388967888716     0.557222816951    12.000000000000
         H            3.140214379496     0.063356111284     1.439309816951     1.007825032230
         H            1.213489279496     1.602876311284     0.714195716951     1.007825032230
         H           -3.507255620504     1.419443111284    -0.145449183049     1.007825032230
         H           -3.967248620504     0.299582111284    -1.423176183049     1.007825032230
         H            3.310103379496     0.777312111284    -1.524893183049     1.007825032230
         H            3.703148379496     1.884487111284    -0.188264183049     1.007825032230
         H            4.698920379496     0.447268111284    -0.461988183049     1.007825032230
         H            0.388201379496    -1.140463888716    -0.324091183049     1.007825032230
         H           -2.053225620504    -1.244125888716    -0.731567183049     1.007825032230
         H           -1.160709620504     1.502099111284     0.305331816951     1.007825032230
         H           -4.521423620504    -1.451223888716     0.302164816951     1.007825032230
         H           -5.481220620504     0.017741111284     0.529915816951     1.007825032230
         H           -4.090185620504    -0.308435888716     1.580377816951     1.007825032230
         H            3.606954379496    -1.682842888716    -0.005492183049     1.007825032230

  Basis Set: AUG-CC-PVTZ
    Blend: AUG-CC-PVTZ
  Basis Set: (AUG-CC-PVTZ AUX)
    Blend: AUG-CC-PVTZ-JKFIT
	 Reference Energy          =    -386.0543847238678836 [Eh]
	 Singles Energy            =      -0.0000000000000000 [Eh]
	 Same-Spin Energy          =      -0.4014533936454522 [Eh]
	 Opposite-Spin Energy      =      -1.3796123351074518 [Eh]
	 Correlation Energy        =      -1.7810657287529041 [Eh]
	 Total Energy              =    -387.8354504526207620 [Eh]

	 ================> DF-SCS-MP2 Energies <==================
	-----------------------------------------------------------
	 SCS Same-Spin Scale       =       0.3333333333333333 [-]
	 SCS Opposite-Spin Scale   =       1.2000000000000000 [-]
	 SCS Same-Spin Energy      =      -0.1338177978818174 [Eh]
	 SCS Opposite-Spin Energy  =      -1.6555348021289422 [Eh]
	 SCS Correlation Energy    =      -1.7893526000107596 [Eh]
	 SCS Total Energy          =    -387.8437373238786563 [Eh]
	-----------------------------------------------------------

  Dipole Moment: [D]
     X:     1.1696      Y:     0.7286      Z:     0.3005     Total:     1.4104

*** Psi4 exiting successfully. Buy a developer a beer!
