                               Psi4 1.3.2 release

  ==> Input File <==

--------------------------------------------------------------------------
#psi4
#
memory 32 gb

molecule  {
0 1
  O        2.6932640    -1.3344870    -0.0264310
  C        2.7427909    -0.1649556     0.3462998
  C        1.3606810     0.5764810     0.3953890
  C       -3.5492030     0.3621160    -0.4101590
  C        3.6709050     0.8409920    -0.4958550
  C        0.2704120    -0.1024690    -0.0006590
  C       -2.1631840    -0.2004740    -0.4090490
  C       -1.0635270     0.4697970    -0.0176060
  C       -4.4702810    -0.3835230     0.5583970
  H        3.1361180     0.0688010     1.4404840
  H        1.2655190     1.6118880     0.7253080
  H       -3.5113520     1.4248880    -0.1442750
  H       -3.9713450     0.3050270    -1.4220020
  H        3.3060070     0.7827570    -1.5237190
  H        3.6990520     1.8899320    -0.1870900
  H        4.6948240     0.4527130    -0.4608140
  H        0.3841050    -1.1350190    -0.3229170
  H       -2.0573220    -1.2386810    -0.7303930
  H       -1.1648060     1.5075440     0.3065060
  H       -4.5255200    -1.4457790     0.3033390
  H       -5.4853170     0.0231860     0.5310900
  H       -4.0942820    -0.3029910     1.5815520
  H        3.6028580    -1.6773980    -0.0043180
units angstrom
no_reorient  #important for SAPT in psi4, default
symmetry c1  #important for SAPT in psi4, default
}

set PROPERTIES_ORIGIN ["COM"]
properties('MP2/aug-cc-pvtz', properties = ['dipole'])
--------------------------------------------------------------------------

    Molecular point group: c1
  Charge       = 0
  Multiplicity = 1
  Basis Set: AUG-CC-PVTZ
    Blend: AUG-CC-PVTZ
  Basis Set: (AUG-CC-PVTZ AUX)
    Blend: AUG-CC-PVTZ-JKFIT

    Orbital Energies [Eh]
    ---------------------

    Doubly Occupied:

       1A    -20.585966     2A    -11.296513     3A    -11.223172
       4A    -11.222277     5A    -11.221108     6A    -11.220294
       7A    -11.215874     8A    -11.215653     9A    -11.211182
      10A     -1.467258    11A     -1.093601    12A     -1.051437
      13A     -1.000059    14A     -0.955073    15A     -0.875408
      16A     -0.835361    17A     -0.769609    18A     -0.750445
      19A     -0.714489    20A     -0.666944    21A     -0.645807
      22A     -0.625968    23A     -0.598922    24A     -0.582119
      25A     -0.553169    26A     -0.543256    27A     -0.536410
      28A     -0.516852    29A     -0.504375    30A     -0.484470
      31A     -0.475676    32A     -0.438649    33A     -0.435030
      34A     -0.399941    35A     -0.291299

  @DF-RHF Final Energy:  -386.01783956241889

   => Energetics <=

    Nuclear Repulsion Energy =            419.5074976999925411
    One-Electron Energy =               -1354.6033422024897845
    Two-Electron Energy =                 549.0780049400783582
    Total Energy =                       -386.0178395624188852
  Basis Set: (AUG-CC-PVTZ AUX)
    Blend: AUG-CC-PVTZ-RI
    Molecular point group: c1

    Geometry (in Angstrom), charge = 0, multiplicity = 1:

       Center              X                  Y                   Z               Mass
    ------------   -----------------  -----------------  -----------------  -----------------
         O            2.694031237357    -1.316368478110    -0.020656492267    15.994914619570
         C            2.743558137357    -0.146837078110     0.352074307733    12.000000000000
         C            1.361448237357     0.594599521890     0.401163507733    12.000000000000
         C           -3.548435762643     0.380234521890    -0.404384492267    12.000000000000
         C            3.671672237357     0.859110521890    -0.490080492267    12.000000000000
         C            0.271179237357    -0.084350478110     0.005115507733    12.000000000000
         C           -2.162416762643    -0.182355478110    -0.403274492267    12.000000000000
         C           -1.062759762643     0.487915521890    -0.011831492267    12.000000000000
         C           -4.469513762643    -0.365404478110     0.564171507733    12.000000000000
         H            3.136885237357     0.086919521890     1.446258507733     1.007825032230
         H            1.266286237357     1.630006521890     0.731082507733     1.007825032230
         H           -3.510584762643     1.443006521890    -0.138500492267     1.007825032230
         H           -3.970577762643     0.323145521890    -1.416227492267     1.007825032230
         H            3.306774237357     0.800875521890    -1.517944492267     1.007825032230
         H            3.699819237357     1.908050521890    -0.181315492267     1.007825032230
         H            4.695591237357     0.470831521890    -0.455039492267     1.007825032230
         H            0.384872237357    -1.116900478110    -0.317142492267     1.007825032230
         H           -2.056554762643    -1.220562478110    -0.724618492267     1.007825032230
         H           -1.164038762643     1.525662521890     0.312280507733     1.007825032230
         H           -4.524752762643    -1.427660478110     0.309113507733     1.007825032230
         H           -5.484549762643     0.041304521890     0.536864507733     1.007825032230
         H           -4.093514762643    -0.284872478110     1.587326507733     1.007825032230
         H            3.603625237357    -1.659279478110     0.001456507733     1.007825032230

  Basis Set: AUG-CC-PVTZ
    Blend: AUG-CC-PVTZ
  Basis Set: (AUG-CC-PVTZ AUX)
    Blend: AUG-CC-PVTZ-JKFIT
	 Reference Energy          =    -386.0178395624188852 [Eh]
	 Singles Energy            =      -0.0000000000000000 [Eh]
	 Same-Spin Energy          =      -0.4012262312601008 [Eh]
	 Opposite-Spin Energy      =      -1.3774181837433108 [Eh]
	 Correlation Energy        =      -1.7786444150034115 [Eh]
	 Total Energy              =    -387.7964839774222696 [Eh]

	 ================> DF-SCS-MP2 Energies <==================
	-----------------------------------------------------------
	 SCS Same-Spin Scale       =       0.3333333333333333 [-]
	 SCS Opposite-Spin Scale   =       1.2000000000000000 [-]
	 SCS Same-Spin Energy      =      -0.1337420770867002 [Eh]
	 SCS Opposite-Spin Energy  =      -1.6529018204919730 [Eh]
	 SCS Correlation Energy    =      -1.7866438975786731 [Eh]
	 SCS Total Energy          =    -387.8044834599975843 [Eh]
	-----------------------------------------------------------

  Dipole Moment: [D]
     X:     1.3709      Y:    -0.0372      Z:     0.1390     Total:     1.3785

*** Psi4 exiting successfully. Buy a developer a beer!
