                               Psi4 1.3.2 release

  ==> Input File <==

--------------------------------------------------------------------------
#psi4
#
memory 32 gb

molecule  {
0 1
  O        2.6932640    -1.3344870    -0.0264310
  C        2.7508540     0.0254460     0.4069810
  C        1.3606810     0.5764810     0.3953890
  C       -3.5492030     0.3621160    -0.4101590
  C        3.6709050     0.8409920    -0.4958550
  C        0.2704120    -0.1024690    -0.0006590
  C       -2.1631840    -0.2004740    -0.4090490
  C       -1.0635270     0.4697970    -0.0176060
  C       -4.4834841    -0.3140248     0.5960295
  H        3.1361180     0.0688010     1.4404840
  H        1.2655190     1.6118880     0.7253080
  H       -3.5473960     1.4137995    -0.1010153
  H       -3.9713450     0.3050270    -1.4220020
  H        3.3060070     0.7827570    -1.5237190
  H        3.6990520     1.8899320    -0.1870900
  H        4.6948240     0.4527130    -0.4608140
  H        0.3841050    -1.1350190    -0.3229170
  H       -2.0573220    -1.2386810    -0.7303930
  H       -1.1648060     1.5075440     0.3065060
  H       -4.5255200    -1.4457790     0.3033390
  H       -5.4853170     0.0231860     0.5310900
  H       -4.0942820    -0.3029910     1.5815520
  H        3.6028580    -1.6773980    -0.0043180
units angstrom
no_reorient  #important for SAPT in psi4, default
symmetry c1  #important for SAPT in psi4, default
}

set PROPERTIES_ORIGIN ["COM"]
properties('MP2/aug-cc-pvtz', properties = ['dipole'])
--------------------------------------------------------------------------

    Molecular point group: c1
  Charge       = 0
  Multiplicity = 1
  Basis Set: AUG-CC-PVTZ
    Blend: AUG-CC-PVTZ
  Basis Set: (AUG-CC-PVTZ AUX)
    Blend: AUG-CC-PVTZ-JKFIT

    Orbital Energies [Eh]
    ---------------------

    Doubly Occupied:

       1A    -20.558960     2A    -11.286828     3A    -11.226667
       4A    -11.224300     5A    -11.223776     6A    -11.223384
       7A    -11.222252     8A    -11.220835     9A    -11.213214
      10A     -1.360871    11A     -1.098050    12A     -1.061463
      13A     -1.016683    14A     -0.963362    15A     -0.877039
      16A     -0.828492    17A     -0.752320    18A     -0.748485
      19A     -0.695547    20A     -0.637235    21A     -0.630336
      22A     -0.616901    23A     -0.594909    24A     -0.583132
      25A     -0.546470    26A     -0.542266    27A     -0.524705
      28A     -0.523477    29A     -0.507605    30A     -0.492490
      31A     -0.470741    32A     -0.460910    33A     -0.453280
      34A     -0.419009    35A     -0.298343

  @DF-RHF Final Energy:  -386.05534985851796

   => Energetics <=

    Nuclear Repulsion Energy =            417.8749771002541706
    One-Electron Energy =               -1351.6519799664661150
    Two-Electron Energy =                 547.7216530076939307
    Total Energy =                       -386.0553498585179568
  Basis Set: (AUG-CC-PVTZ AUX)
    Blend: AUG-CC-PVTZ-RI
    Molecular point group: c1

    Geometry (in Angstrom), charge = 0, multiplicity = 1:

       Center              X                  Y                   Z               Mass
    ------------   -----------------  -----------------  -----------------  -----------------
         O            2.694808418763    -1.341011716004    -0.030357676185    15.994914619570
         C            2.752398418763     0.018921283996     0.403054323815    12.000000000000
         C            1.362225418763     0.569956283996     0.391462323815    12.000000000000
         C           -3.547658581237     0.355591283996    -0.414085676185    12.000000000000
         C            3.672449418763     0.834467283996    -0.499781676185    12.000000000000
         C            0.271956418763    -0.108993716004    -0.004585676185    12.000000000000
         C           -2.161639581237    -0.206998716004    -0.412975676185    12.000000000000
         C           -1.061982581237     0.463272283996    -0.021532676185    12.000000000000
         C           -4.481939681237    -0.320549516004     0.592102823815    12.000000000000
         H            3.137662418763     0.062276283996     1.436557323815     1.007825032230
         H            1.267063418763     1.605363283996     0.721381323815     1.007825032230
         H           -3.545851581237     1.407274783996    -0.104941976185     1.007825032230
         H           -3.969800581237     0.298502283996    -1.425928676185     1.007825032230
         H            3.307551418763     0.776232283996    -1.527645676185     1.007825032230
         H            3.700596418763     1.883407283996    -0.191016676185     1.007825032230
         H            4.696368418763     0.446188283996    -0.464740676185     1.007825032230
         H            0.385649418763    -1.141543716004    -0.326843676185     1.007825032230
         H           -2.055777581237    -1.245205716004    -0.734319676185     1.007825032230
         H           -1.163261581237     1.501019283996     0.302579323815     1.007825032230
         H           -4.523975581237    -1.452303716004     0.299412323815     1.007825032230
         H           -5.483772581237     0.016661283996     0.527163323815     1.007825032230
         H           -4.092737581237    -0.309515716004     1.577625323815     1.007825032230
         H            3.604402418763    -1.683922716004    -0.008244676185     1.007825032230

  Basis Set: AUG-CC-PVTZ
    Blend: AUG-CC-PVTZ
  Basis Set: (AUG-CC-PVTZ AUX)
    Blend: AUG-CC-PVTZ-JKFIT
	 Reference Energy          =    -386.0553498585179568 [Eh]
	 Singles Energy            =      -0.0000000000000000 [Eh]
	 Same-Spin Energy          =      -0.4004170590444232 [Eh]
	 Opposite-Spin Energy      =      -1.3786514913890069 [Eh]
	 Correlation Energy        =      -1.7790685504334300 [Eh]
	 Total Energy              =    -387.8344184089513647 [Eh]

	 ================> DF-SCS-MP2 Energies <==================
	-----------------------------------------------------------
	 SCS Same-Spin Scale       =       0.3333333333333333 [-]
	 SCS Opposite-Spin Scale   =       1.2000000000000000 [-]
	 SCS Same-Spin Energy      =      -0.1334723530148077 [Eh]
	 SCS Opposite-Spin Energy  =      -1.6543817896668083 [Eh]
	 SCS Correlation Energy    =      -1.7878541426816159 [Eh]
	 SCS Total Energy          =    -387.8432040011995809 [Eh]
	-----------------------------------------------------------

  Dipole Moment: [D]
     X:     1.2491      Y:     0.7826      Z:     0.3322     Total:     1.5110

*** Psi4 exiting successfully. Buy a developer a beer!
