                               Psi4 1.3.2 release

  ==> Input File <==

--------------------------------------------------------------------------
#psi4
#
memory 32 gb

molecule  {
0 1
  O        2.6932640    -1.3344870    -0.0264310
  C        2.6767542     0.0294832     0.3977072
  C        1.3606810     0.5764810     0.3953890
  C       -3.5492030     0.3621160    -0.4101590
  C        3.6709050     0.8409920    -0.4958550
  C        0.2704120    -0.1024690    -0.0006590
  C       -2.1631840    -0.2004740    -0.4090490
  C       -1.0635270     0.4697970    -0.0176060
  C       -4.4702810    -0.3835230     0.5583970
  H        3.1361180     0.0688010     1.4404840
  H        1.2655190     1.6118880     0.7253080
  H       -3.5113520     1.4248880    -0.1442750
  H       -3.9713450     0.3050270    -1.4220020
  H        3.3060070     0.7827570    -1.5237190
  H        3.6990520     1.8899320    -0.1870900
  H        4.6948240     0.4527130    -0.4608140
  H        0.3841050    -1.1350190    -0.3229170
  H       -2.0573220    -1.2386810    -0.7303930
  H       -1.1648060     1.5075440     0.3065060
  H       -4.5255200    -1.4457790     0.3033390
  H       -5.4853170     0.0231860     0.5310900
  H       -4.0942820    -0.3029910     1.5815520
  H        3.5849805    -1.7221062    -0.0208393
units angstrom
no_reorient  #important for SAPT in psi4, default
symmetry c1  #important for SAPT in psi4, default
}

set PROPERTIES_ORIGIN ["COM"]
properties('MP2/aug-cc-pvtz', properties = ['dipole'])
--------------------------------------------------------------------------

    Molecular point group: c1
  Charge       = 0
  Multiplicity = 1
  Basis Set: AUG-CC-PVTZ
    Blend: AUG-CC-PVTZ
  Basis Set: (AUG-CC-PVTZ AUX)
    Blend: AUG-CC-PVTZ-JKFIT

    Orbital Energies [Eh]
    ---------------------

    Doubly Occupied:

       1A    -20.555033     2A    -11.288439     3A    -11.227011
       4A    -11.224592     5A    -11.223940     6A    -11.223647
       7A    -11.220595     8A    -11.220577     9A    -11.213381
      10A     -1.356377    11A     -1.101873    12A     -1.066963
      13A     -1.013740    14A     -0.961362    15A     -0.881783
      16A     -0.829223    17A     -0.753796    18A     -0.752120
      19A     -0.690280    20A     -0.642760    21A     -0.627520
      22A     -0.610995    23A     -0.591491    24A     -0.584607
      25A     -0.545158    26A     -0.539482    27A     -0.531475
      28A     -0.519772    29A     -0.505552    30A     -0.487695
      31A     -0.480132    32A     -0.472648    33A     -0.448534
      34A     -0.413462    35A     -0.296526

  @DF-RHF Final Energy:  -386.05556089576373

   => Energetics <=

    Nuclear Repulsion Energy =            418.6245454391950034
    One-Electron Energy =               -1353.1551303568569438
    Two-Electron Energy =                 548.4750240218982071
    Total Energy =                       -386.0555608957637332
  Basis Set: (AUG-CC-PVTZ AUX)
    Blend: AUG-CC-PVTZ-RI
    Molecular point group: c1

    Geometry (in Angstrom), charge = 0, multiplicity = 1:

       Center              X                  Y                   Z               Mass
    ------------   -----------------  -----------------  -----------------  -----------------
         O            2.700458113611    -1.334513811470    -0.025416341333    15.994914619570
         C            2.683948313611     0.029456388530     0.398721858667    12.000000000000
         C            1.367875113611     0.576454188530     0.396403658667    12.000000000000
         C           -3.542008886389     0.362089188530    -0.409144341333    12.000000000000
         C            3.678099113611     0.840965188530    -0.494840341333    12.000000000000
         C            0.277606113611    -0.102495811470     0.000355658667    12.000000000000
         C           -2.155989886389    -0.200500811470    -0.408034341333    12.000000000000
         C           -1.056332886389     0.469770188530    -0.016591341333    12.000000000000
         C           -4.463086886389    -0.383549811470     0.559411658667    12.000000000000
         H            3.143312113611     0.068774188530     1.441498658667     1.007825032230
         H            1.272713113611     1.611861188530     0.726322658667     1.007825032230
         H           -3.504157886389     1.424861188530    -0.143260341333     1.007825032230
         H           -3.964150886389     0.305000188530    -1.420987341333     1.007825032230
         H            3.313201113611     0.782730188530    -1.522704341333     1.007825032230
         H            3.706246113611     1.889905188530    -0.186075341333     1.007825032230
         H            4.702018113611     0.452686188530    -0.459799341333     1.007825032230
         H            0.391299113611    -1.135045811470    -0.321902341333     1.007825032230
         H           -2.050127886389    -1.238707811470    -0.729378341333     1.007825032230
         H           -1.157611886389     1.507517188530     0.307520658667     1.007825032230
         H           -4.518325886389    -1.445805811470     0.304353658667     1.007825032230
         H           -5.478122886389     0.023159188530     0.532104658667     1.007825032230
         H           -4.087087886389    -0.303017811470     1.582566658667     1.007825032230
         H            3.592174613611    -1.722133011470    -0.019824641333     1.007825032230

  Basis Set: AUG-CC-PVTZ
    Blend: AUG-CC-PVTZ
  Basis Set: (AUG-CC-PVTZ AUX)
    Blend: AUG-CC-PVTZ-JKFIT
	 Reference Energy          =    -386.0555608957637332 [Eh]
	 Singles Energy            =      -0.0000000000000000 [Eh]
	 Same-Spin Energy          =      -0.4008578080506653 [Eh]
	 Opposite-Spin Energy      =      -1.3785518002076054 [Eh]
	 Correlation Energy        =      -1.7794096082582707 [Eh]
	 Total Energy              =    -387.8349705040220101 [Eh]

	 ================> DF-SCS-MP2 Energies <==================
	-----------------------------------------------------------
	 SCS Same-Spin Scale       =       0.3333333333333333 [-]
	 SCS Opposite-Spin Scale   =       1.2000000000000000 [-]
	 SCS Same-Spin Energy      =      -0.1336192693502218 [Eh]
	 SCS Opposite-Spin Energy  =      -1.6542621602491263 [Eh]
	 SCS Correlation Energy    =      -1.7878814295993481 [Eh]
	 SCS Total Energy          =    -387.8434423253630712 [Eh]
	-----------------------------------------------------------

  Dipole Moment: [D]
     X:     1.0724      Y:     0.6708      Z:     0.2921     Total:     1.2982

*** Psi4 exiting successfully. Buy a developer a beer!
