                               Psi4 1.4a3.dev225

  ==> Input File <==

--------------------------------------------------------------------------
#psi4
#
memory 32 gb

molecule  {
0 1
  O       -2.7161510     1.3794200    -0.1343610
  C       -2.7832390     0.0721360     0.4401970
  C       -1.3979030    -0.4954620     0.4743180
  C        3.5083460    -0.4405980    -0.4123350
  C       -3.7239960    -0.8239440    -0.3625680
  C       -0.3030690     0.1219220    -0.0067100
  C        2.1282810     0.1394430    -0.4544070
  C        1.0245920    -0.4684390     0.0236420
  C        4.4606410     0.4027870     0.4416180
  H       -3.1581590     0.1412460     1.4762970
  H       -1.3096373    -1.5082415     0.9227964
  H        3.4619600    -1.4629760    -0.0187660
  H        3.9104550    -0.5133060    -1.4317100
  H       -3.3684670    -0.8811940    -1.3941910
  H       -3.7626400    -1.8335820     0.0574350
  H       -4.7426360    -0.4191700    -0.3608330
  H       -0.4078810     1.1149080    -0.4388390
  H        2.0311270     1.1370710    -0.8883280
  H        1.1170930    -1.4649260     0.4609700
  H        4.5263310     1.4251690     0.0574090
  H        5.4690900    -0.0219830     0.4454750
  H        4.1044230     0.4539160     1.4740500
  H       -3.6221830     1.7324190    -0.1413340
units angstrom
no_reorient  #important for SAPT in psi4, default
symmetry c1  #important for SAPT in psi4, default
}

set PROPERTIES_ORIGIN ["COM"]
properties('MP2/aug-cc-pvtz', properties = ['dipole'])
--------------------------------------------------------------------------

    Molecular point group: c1
  Charge       = 0
  Multiplicity = 1
  Basis Set: AUG-CC-PVTZ
    Blend: AUG-CC-PVTZ
  Basis Set: (AUG-CC-PVTZ AUX)
    Blend: AUG-CC-PVTZ-JKFIT

    Orbital Energies [Eh]
    ---------------------

    Doubly Occupied:

       1A    -20.558986     2A    -11.287278     3A    -11.226540
       4A    -11.225985     5A    -11.224046     6A    -11.223678
       7A    -11.223071     8A    -11.220941     9A    -11.213151
      10A     -1.360314    11A     -1.096936    12A     -1.060342
      13A     -1.015665    14A     -0.961861    15A     -0.876306
      16A     -0.828481    17A     -0.752310    18A     -0.745453
      19A     -0.694896    20A     -0.636954    21A     -0.627132
      22A     -0.616584    23A     -0.589414    24A     -0.582223
      25A     -0.546005    26A     -0.543141    27A     -0.527312
      28A     -0.518126    29A     -0.500104    30A     -0.492539
      31A     -0.479297    32A     -0.467748    33A     -0.452973
      34A     -0.417977    35A     -0.297436

  @DF-RHF Final Energy:  -386.06173749946277

   => Energetics <=

    Nuclear Repulsion Energy =            417.4058522685255070
    One-Electron Energy =               -1350.7527673385757225
    Two-Electron Energy =                 547.2851775705875070
    Total Energy =                       -386.0617374994627653
  Basis Set: (AUG-CC-PVTZ AUX)
    Blend: AUG-CC-PVTZ-RI
    Molecular point group: c1

    Geometry (in Angstrom), charge = 0, multiplicity = 1:

       Center              X                  Y                   Z               Mass
    ------------   -----------------  -----------------  -----------------  -----------------
         O           -2.682856032631     1.363236925330    -0.132760133288    15.994914619570
         C           -2.749944032631     0.055952925330     0.441797866712    12.000000000000
         C           -1.364608032631    -0.511645074670     0.475918866712    12.000000000000
         C            3.541640967369    -0.456781074670    -0.410734133288    12.000000000000
         C           -3.690701032631    -0.840127074670    -0.360967133288    12.000000000000
         C           -0.269774032631     0.105738925330    -0.005109133288    12.000000000000
         C            2.161575967369     0.123259925330    -0.452806133288    12.000000000000
         C            1.057886967369    -0.484622074670     0.025242866712    12.000000000000
         C            4.493935967369     0.386603925330     0.443218866712    12.000000000000
         H           -3.124864032631     0.125062925330     1.477897866712     1.007825032230
         H           -1.276342332631    -1.524424574670     0.924397266712     1.007825032230
         H            3.495254967369    -1.479159074670    -0.017165133288     1.007825032230
         H            3.943749967369    -0.529489074670    -1.430109133288     1.007825032230
         H           -3.335172032631    -0.897377074670    -1.392590133288     1.007825032230
         H           -3.729345032631    -1.849765074670     0.059035866712     1.007825032230
         H           -4.709341032631    -0.435353074670    -0.359232133288     1.007825032230
         H           -0.374586032631     1.098724925330    -0.437238133288     1.007825032230
         H            2.064421967369     1.120887925330    -0.886727133288     1.007825032230
         H            1.150387967369    -1.481109074670     0.462570866712     1.007825032230
         H            4.559625967369     1.408985925330     0.059009866712     1.007825032230
         H            5.502384967369    -0.038166074670     0.447075866712     1.007825032230
         H            4.137717967369     0.437732925330     1.475650866712     1.007825032230
         H           -3.588888032631     1.716235925330    -0.139733133288     1.007825032230

  Basis Set: AUG-CC-PVTZ
    Blend: AUG-CC-PVTZ
  Basis Set: (AUG-CC-PVTZ AUX)
    Blend: AUG-CC-PVTZ-JKFIT
	 Reference Energy          =    -386.0617374994627653 [Eh]
	 Singles Energy            =      -0.0000000000000000 [Eh]
	 Same-Spin Energy          =      -0.4003100595842356 [Eh]
	 Opposite-Spin Energy      =      -1.3785689632647313 [Eh]
	 Correlation Energy        =      -1.7788790228489670 [Eh]
	 Total Energy              =    -387.8406165223117341 [Eh]

	 ================> DF-SCS-MP2 Energies <==================
	-----------------------------------------------------------
	 SCS Same-Spin Scale       =       0.3333333333333333 [-]
	 SCS Opposite-Spin Scale   =       1.2000000000000000 [-]
	 SCS Same-Spin Energy      =      -0.1334366865280785 [Eh]
	 SCS Opposite-Spin Energy  =      -1.6542827559176776 [Eh]
	 SCS Correlation Energy    =      -1.7877194424457561 [Eh]
	 SCS Total Energy          =    -387.8494569419084996 [Eh]
	-----------------------------------------------------------

  Dipole Moment: [D]
     X:    -1.2104      Y:    -0.6775      Z:     0.3873     Total:     1.4402

*** Psi4 exiting successfully. Buy a developer a beer!
