                               Psi4 1.3.2 release

  ==> Input File <==

--------------------------------------------------------------------------
#psi4
#
memory 32 gb

molecule  {
0 1
  O        2.7056233    -1.3353853    -0.0250754
  C        2.7508540     0.0254460     0.4069810
  C        1.3652567     0.5879585     0.3995885
  C       -3.5492030     0.3621160    -0.4101590
  C        3.6709050     0.8409920    -0.4958550
  C        0.2704120    -0.1024690    -0.0006590
  C       -2.1631840    -0.2004740    -0.4090490
  C       -1.0635270     0.4697970    -0.0176060
  C       -4.4702810    -0.3835230     0.5583970
  H        3.1361180     0.0688010     1.4404840
  H        1.2655190     1.6118880     0.7253080
  H       -3.5113520     1.4248880    -0.1442750
  H       -3.9713450     0.3050270    -1.4220020
  H        3.3060070     0.7827570    -1.5237190
  H        3.6990520     1.8899320    -0.1870900
  H        4.6948240     0.4527130    -0.4608140
  H        0.3841050    -1.1350190    -0.3229170
  H       -2.0573220    -1.2386810    -0.7303930
  H       -1.1648060     1.5075440     0.3065060
  H       -4.5255200    -1.4457790     0.3033390
  H       -5.4853170     0.0231860     0.5310900
  H       -4.0942820    -0.3029910     1.5815520
  H        3.6028580    -1.6773980    -0.0043180
units angstrom
no_reorient  #important for SAPT in psi4, default
symmetry c1  #important for SAPT in psi4, default
}

set PROPERTIES_ORIGIN ["COM"]
properties('MP2/aug-cc-pvtz', properties = ['dipole'])
--------------------------------------------------------------------------

    Molecular point group: c1
  Charge       = 0
  Multiplicity = 1
  Basis Set: AUG-CC-PVTZ
    Blend: AUG-CC-PVTZ
  Basis Set: (AUG-CC-PVTZ AUX)
    Blend: AUG-CC-PVTZ-JKFIT

    Orbital Energies [Eh]
    ---------------------

    Doubly Occupied:

       1A    -20.557386     2A    -11.286591     3A    -11.226044
       4A    -11.225068     5A    -11.223428     6A    -11.223252
       7A    -11.222949     8A    -11.220145     9A    -11.212870
      10A     -1.362546    11A     -1.097514    12A     -1.061419
      13A     -1.016128    14A     -0.961614    15A     -0.876897
      16A     -0.828290    17A     -0.753359    18A     -0.750584
      19A     -0.695917    20A     -0.637837    21A     -0.627335
      22A     -0.616881    23A     -0.590776    24A     -0.583271
      25A     -0.547137    26A     -0.543592    27A     -0.527695
      28A     -0.519041    29A     -0.502396    30A     -0.491620
      31A     -0.479157    32A     -0.468212    33A     -0.452923
      34A     -0.417390    35A     -0.296167

  @DF-RHF Final Energy:  -386.06271336191276

   => Energetics <=

    Nuclear Repulsion Energy =            417.7958488755335225
    One-Electron Energy =               -1351.5102652436280550
    Two-Electron Energy =                 547.6517030061818332
    Total Energy =                       -386.0627133619127562
  Basis Set: (AUG-CC-PVTZ AUX)
    Blend: AUG-CC-PVTZ-RI
    Molecular point group: c1

    Geometry (in Angstrom), charge = 0, multiplicity = 1:

       Center              X                  Y                   Z               Mass
    ------------   -----------------  -----------------  -----------------  -----------------
         O            2.703620202873    -1.336363492623    -0.025646830183    15.994914619570
         C            2.748850902873     0.024467807377     0.406409569817    12.000000000000
         C            1.363253602873     0.586980307377     0.399017069817    12.000000000000
         C           -3.551206097127     0.361137807377    -0.410730430183    12.000000000000
         C            3.668901902873     0.840013807377    -0.496426430183    12.000000000000
         C            0.268408902873    -0.103447192623    -0.001230430183    12.000000000000
         C           -2.165187097127    -0.201452192623    -0.409620430183    12.000000000000
         C           -1.065530097127     0.468818807377    -0.018177430183    12.000000000000
         C           -4.472284097127    -0.384501192623     0.557825569817    12.000000000000
         H            3.134114902873     0.067822807377     1.439912569817     1.007825032230
         H            1.263515902873     1.610909807377     0.724736569817     1.007825032230
         H           -3.513355097127     1.423909807377    -0.144846430183     1.007825032230
         H           -3.973348097127     0.304048807377    -1.422573430183     1.007825032230
         H            3.304003902873     0.781778807377    -1.524290430183     1.007825032230
         H            3.697048902873     1.888953807377    -0.187661430183     1.007825032230
         H            4.692820902873     0.451734807377    -0.461385430183     1.007825032230
         H            0.382101902873    -1.135997192623    -0.323488430183     1.007825032230
         H           -2.059325097127    -1.239659192623    -0.730964430183     1.007825032230
         H           -1.166809097127     1.506565807377     0.305934569817     1.007825032230
         H           -4.527523097127    -1.446757192623     0.302767569817     1.007825032230
         H           -5.487320097127     0.022207807377     0.530518569817     1.007825032230
         H           -4.096285097127    -0.303969192623     1.580980569817     1.007825032230
         H            3.600854902873    -1.678376192623    -0.004889430183     1.007825032230

  Basis Set: AUG-CC-PVTZ
    Blend: AUG-CC-PVTZ
  Basis Set: (AUG-CC-PVTZ AUX)
    Blend: AUG-CC-PVTZ-JKFIT
	 Reference Energy          =    -386.0627133619127562 [Eh]
	 Singles Energy            =      -0.0000000000000000 [Eh]
	 Same-Spin Energy          =      -0.4002576806359643 [Eh]
	 Opposite-Spin Energy      =      -1.3780896624165235 [Eh]
	 Correlation Energy        =      -1.7783473430524879 [Eh]
	 Total Energy              =    -387.8410607049652299 [Eh]

	 ================> DF-SCS-MP2 Energies <==================
	-----------------------------------------------------------
	 SCS Same-Spin Scale       =       0.3333333333333333 [-]
	 SCS Opposite-Spin Scale   =       1.2000000000000000 [-]
	 SCS Same-Spin Energy      =      -0.1334192268786548 [Eh]
	 SCS Opposite-Spin Energy  =      -1.6537075948998281 [Eh]
	 SCS Correlation Energy    =      -1.7871268217784828 [Eh]
	 SCS Total Energy          =    -387.8498401836912421 [Eh]
	-----------------------------------------------------------

  Dipole Moment: [D]
     X:     1.1772      Y:     0.7390      Z:     0.3133     Total:     1.4248

*** Psi4 exiting successfully. Buy a developer a beer!
