                               Psi4 1.3.2 release

  ==> Input File <==

--------------------------------------------------------------------------
#psi4
#
memory 32 gb

molecule  {
0 1
  O        2.6932640    -1.3344870    -0.0264310
  C        2.7508540     0.0254460     0.4069810
  C        1.3606810     0.5764810     0.3953890
  C       -3.5492030     0.3621160    -0.4101590
  C        3.7154958     0.8577368    -0.4317562
  C        0.2704120    -0.1024690    -0.0006590
  C       -2.1631840    -0.2004740    -0.4090490
  C       -1.0635270     0.4697970    -0.0176060
  C       -4.4702810    -0.3835230     0.5583970
  H        3.1792773     0.1021475     1.4213807
  H        1.2655190     1.6118880     0.7253080
  H       -3.5113520     1.4248880    -0.1442750
  H       -3.9713450     0.3050270    -1.4220020
  H        3.3060070     0.7827570    -1.5237190
  H        3.6990520     1.8899320    -0.1870900
  H        4.6948240     0.4527130    -0.4608140
  H        0.3841050    -1.1350190    -0.3229170
  H       -2.0573220    -1.2386810    -0.7303930
  H       -1.1648060     1.5075440     0.3065060
  H       -4.5255200    -1.4457790     0.3033390
  H       -5.4853170     0.0231860     0.5310900
  H       -4.0942820    -0.3029910     1.5815520
  H        3.6028580    -1.6773980    -0.0043180
units angstrom
no_reorient  #important for SAPT in psi4, default
symmetry c1  #important for SAPT in psi4, default
}

set PROPERTIES_ORIGIN ["COM"]
properties('MP2/aug-cc-pvtz', properties = ['dipole'])
--------------------------------------------------------------------------

    Molecular point group: c1
  Charge       = 0
  Multiplicity = 1
  Basis Set: AUG-CC-PVTZ
    Blend: AUG-CC-PVTZ
  Basis Set: (AUG-CC-PVTZ AUX)
    Blend: AUG-CC-PVTZ-JKFIT

    Orbital Energies [Eh]
    ---------------------

    Doubly Occupied:

       1A    -20.561032     2A    -11.287210     3A    -11.226380
       4A    -11.224461     5A    -11.223600     6A    -11.223391
       7A    -11.222623     8A    -11.220671     9A    -11.212992
      10A     -1.361487    11A     -1.098181    12A     -1.061620
      13A     -1.017347    14A     -0.963657    15A     -0.876629
      16A     -0.828349    17A     -0.752798    18A     -0.748620
      19A     -0.695970    20A     -0.640051    21A     -0.628616
      22A     -0.618041    23A     -0.594003    24A     -0.583335
      25A     -0.554860    26A     -0.534630    27A     -0.525366
      28A     -0.516290    29A     -0.501299    30A     -0.492727
      31A     -0.479603    32A     -0.469866    33A     -0.448401
      34A     -0.417077    35A     -0.297758

  @DF-RHF Final Energy:  -386.05495949220835

   => Energetics <=

    Nuclear Repulsion Energy =            417.6687321408874709
    One-Electron Energy =               -1351.2295053344287226
    Two-Electron Energy =                 547.5058137013329542
    Total Energy =                       -386.0549594922083543
  Basis Set: (AUG-CC-PVTZ AUX)
    Blend: AUG-CC-PVTZ-RI
    Molecular point group: c1

    Geometry (in Angstrom), charge = 0, multiplicity = 1:

       Center              X                  Y                   Z               Mass
    ------------   -----------------  -----------------  -----------------  -----------------
         O            2.688675805870    -1.336346868535    -0.032377783937    15.994914619570
         C            2.746265805870     0.023586131465     0.401034216063    12.000000000000
         C            1.356092805870     0.574621131465     0.389442216063    12.000000000000
         C           -3.553791194130     0.360256131465    -0.416105783937    12.000000000000
         C            3.710907605870     0.855876931465    -0.437702983937    12.000000000000
         C            0.265823805870    -0.104328868535    -0.006605783937    12.000000000000
         C           -2.167772194130    -0.202333868535    -0.414995783937    12.000000000000
         C           -1.068115194130     0.467937131465    -0.023552783937    12.000000000000
         C           -4.474869194130    -0.385382868535     0.552450216063    12.000000000000
         H            3.174689105870     0.100287631465     1.415433916063     1.007825032230
         H            1.260930805870     1.610028131465     0.719361216063     1.007825032230
         H           -3.515940194130     1.423028131465    -0.150221783937     1.007825032230
         H           -3.975933194130     0.303167131465    -1.427948783937     1.007825032230
         H            3.301418805870     0.780897131465    -1.529665783937     1.007825032230
         H            3.694463805870     1.888072131465    -0.193036783937     1.007825032230
         H            4.690235805870     0.450853131465    -0.466760783937     1.007825032230
         H            0.379516805870    -1.136878868535    -0.328863783937     1.007825032230
         H           -2.061910194130    -1.240540868535    -0.736339783937     1.007825032230
         H           -1.169394194130     1.505684131465     0.300559216063     1.007825032230
         H           -4.530108194130    -1.447638868535     0.297392216063     1.007825032230
         H           -5.489905194130     0.021326131465     0.525143216063     1.007825032230
         H           -4.098870194130    -0.304850868535     1.575605216063     1.007825032230
         H            3.598269805870    -1.679257868535    -0.010264783937     1.007825032230

  Basis Set: AUG-CC-PVTZ
    Blend: AUG-CC-PVTZ
  Basis Set: (AUG-CC-PVTZ AUX)
    Blend: AUG-CC-PVTZ-JKFIT
	 Reference Energy          =    -386.0549594922083543 [Eh]
	 Singles Energy            =      -0.0000000000000000 [Eh]
	 Same-Spin Energy          =      -0.4005486133020617 [Eh]
	 Opposite-Spin Energy      =      -1.3787302605674960 [Eh]
	 Correlation Energy        =      -1.7792788738695577 [Eh]
	 Total Energy              =    -387.8342383660778978 [Eh]

	 ================> DF-SCS-MP2 Energies <==================
	-----------------------------------------------------------
	 SCS Same-Spin Scale       =       0.3333333333333333 [-]
	 SCS Opposite-Spin Scale   =       1.2000000000000000 [-]
	 SCS Same-Spin Energy      =      -0.1335162044340206 [Eh]
	 SCS Opposite-Spin Energy  =      -1.6544763126809952 [Eh]
	 SCS Correlation Energy    =      -1.7879925171150157 [Eh]
	 SCS Total Energy          =    -387.8429520093233691 [Eh]
	-----------------------------------------------------------

  Dipole Moment: [D]
     X:     1.2009      Y:     0.7134      Z:     0.3358     Total:     1.4366

*** Psi4 exiting successfully. Buy a developer a beer!
