                               Psi4 1.3.2 release

  ==> Input File <==

--------------------------------------------------------------------------
#psi4
#
memory 32 gb

molecule  {
0 1
  O        2.6932640    -1.3344870    -0.0264310
  C        2.7508540     0.0254460     0.4069810
  C        1.3990191     0.5189703     0.3821893
  C       -3.5492030     0.3621160    -0.4101590
  C        3.6709050     0.8409920    -0.4958550
  C        0.2704120    -0.1024690    -0.0006590
  C       -2.1631840    -0.2004740    -0.4090490
  C       -1.0895298     0.4033631    -0.0437974
  C       -4.4702810    -0.3835230     0.5583970
  H        3.1361180     0.0688010     1.4404840
  H        1.2655190     1.6118880     0.7253080
  H       -3.5113520     1.4248880    -0.1442750
  H       -3.9713450     0.3050270    -1.4220020
  H        3.3060070     0.7827570    -1.5237190
  H        3.6990520     1.8899320    -0.1870900
  H        4.6948240     0.4527130    -0.4608140
  H        0.3841050    -1.1350190    -0.3229170
  H       -2.0573220    -1.2386810    -0.7303930
  H       -1.1648060     1.5075440     0.3065060
  H       -4.5255200    -1.4457790     0.3033390
  H       -5.4853170     0.0231860     0.5310900
  H       -4.0942820    -0.3029910     1.5815520
  H        3.6028580    -1.6773980    -0.0043180
units angstrom
no_reorient  #important for SAPT in psi4, default
symmetry c1  #important for SAPT in psi4, default
}

set PROPERTIES_ORIGIN ["COM"]
properties('MP2/aug-cc-pvtz', properties = ['dipole'])
--------------------------------------------------------------------------

    Molecular point group: c1
  Charge       = 0
  Multiplicity = 1
  Basis Set: AUG-CC-PVTZ
    Blend: AUG-CC-PVTZ
  Basis Set: (AUG-CC-PVTZ AUX)
    Blend: AUG-CC-PVTZ-JKFIT

    Orbital Energies [Eh]
    ---------------------

    Doubly Occupied:

       1A    -20.558617     2A    -11.285815     3A    -11.227794
       4A    -11.224457     5A    -11.223274     6A    -11.222582
       7A    -11.222436     8A    -11.217612     9A    -11.213467
      10A     -1.362785    11A     -1.104439    12A     -1.068248
      13A     -1.019179    14A     -0.969983    15A     -0.882803
      16A     -0.834979    17A     -0.750509    18A     -0.736358
      19A     -0.698397    20A     -0.638398    21A     -0.633227
      22A     -0.618410    23A     -0.595857    24A     -0.578720
      25A     -0.547910    26A     -0.540825    27A     -0.525162
      28A     -0.517817    29A     -0.499733    30A     -0.491241
      31A     -0.480801    32A     -0.456175    33A     -0.455597
      34A     -0.423554    35A     -0.307019

  @DF-RHF Final Energy:  -386.04904852844152

   => Energetics <=

    Nuclear Repulsion Energy =            419.2380895669353436
    One-Electron Energy =               -1354.3059178124099162
    Two-Electron Energy =                 549.0187797170331123
    Total Energy =                       -386.0490485284415172
  Basis Set: (AUG-CC-PVTZ AUX)
    Blend: AUG-CC-PVTZ-RI
    Molecular point group: c1

    Geometry (in Angstrom), charge = 0, multiplicity = 1:

       Center              X                  Y                   Z               Mass
    ------------   -----------------  -----------------  -----------------  -----------------
         O            2.692090141934    -1.322692473058    -0.022682441149    15.994914619570
         C            2.749680141934     0.037240526942     0.410729558851    12.000000000000
         C            1.397845241934     0.530764826942     0.385937858851    12.000000000000
         C           -3.550376858066     0.373910526942    -0.406410441149    12.000000000000
         C            3.669731141934     0.852786526942    -0.492106441149    12.000000000000
         C            0.269238141934    -0.090674473058     0.003089558851    12.000000000000
         C           -2.164357858066    -0.188679473058    -0.405300441149    12.000000000000
         C           -1.090703658066     0.415157626942    -0.040048841149    12.000000000000
         C           -4.471454858066    -0.371728473058     0.562145558851    12.000000000000
         H            3.134944141934     0.080595526942     1.444232558851     1.007825032230
         H            1.264345141934     1.623682526942     0.729056558851     1.007825032230
         H           -3.512525858066     1.436682526942    -0.140526441149     1.007825032230
         H           -3.972518858066     0.316821526942    -1.418253441149     1.007825032230
         H            3.304833141934     0.794551526942    -1.519970441149     1.007825032230
         H            3.697878141934     1.901726526942    -0.183341441149     1.007825032230
         H            4.693650141934     0.464507526942    -0.457065441149     1.007825032230
         H            0.382931141934    -1.123224473058    -0.319168441149     1.007825032230
         H           -2.058495858066    -1.226886473058    -0.726644441149     1.007825032230
         H           -1.165979858066     1.519338526942     0.310254558851     1.007825032230
         H           -4.526693858066    -1.433984473058     0.307087558851     1.007825032230
         H           -5.486490858066     0.034980526942     0.534838558851     1.007825032230
         H           -4.095455858066    -0.291196473058     1.585300558851     1.007825032230
         H            3.601684141934    -1.665603473058    -0.000569441149     1.007825032230

  Basis Set: AUG-CC-PVTZ
    Blend: AUG-CC-PVTZ
  Basis Set: (AUG-CC-PVTZ AUX)
    Blend: AUG-CC-PVTZ-JKFIT
	 Reference Energy          =    -386.0490485284415172 [Eh]
	 Singles Energy            =      -0.0000000000000000 [Eh]
	 Same-Spin Energy          =      -0.4007678720880342 [Eh]
	 Opposite-Spin Energy      =      -1.3784461487082851 [Eh]
	 Correlation Energy        =      -1.7792140207963194 [Eh]
	 Total Energy              =    -387.8282625492378202 [Eh]

	 ================> DF-SCS-MP2 Energies <==================
	-----------------------------------------------------------
	 SCS Same-Spin Scale       =       0.3333333333333333 [-]
	 SCS Opposite-Spin Scale   =       1.2000000000000000 [-]
	 SCS Same-Spin Energy      =      -0.1335892906960114 [Eh]
	 SCS Opposite-Spin Energy  =      -1.6541353784499420 [Eh]
	 SCS Correlation Energy    =      -1.7877246691459534 [Eh]
	 SCS Total Energy          =    -387.8367731975874904 [Eh]
	-----------------------------------------------------------

  Dipole Moment: [D]
     X:     1.2528      Y:     0.6569      Z:     0.2841     Total:     1.4428

*** Psi4 exiting successfully. Buy a developer a beer!
