                               Psi4 1.3.2 release

  ==> Input File <==

--------------------------------------------------------------------------
#psi4
#
memory 32 gb

molecule  {
0 1
  O        2.6932640    -1.3344870    -0.0264310
  C        2.8001787     0.0206826     0.4125050
  C        1.3606810     0.5764810     0.3953890
  C       -3.5492030     0.3621160    -0.4101590
  C        3.6709050     0.8409920    -0.4958550
  C        0.2704120    -0.1024690    -0.0006590
  C       -2.1631840    -0.2004740    -0.4090490
  C       -1.0635270     0.4697970    -0.0176060
  C       -4.4702810    -0.3835230     0.5583970
  H        3.1361180     0.0688010     1.4404840
  H        1.2655190     1.6118880     0.7253080
  H       -3.5113520     1.4248880    -0.1442750
  H       -3.9713450     0.3050270    -1.4220020
  H        3.3060070     0.7827570    -1.5237190
  H        3.6990520     1.8899320    -0.1870900
  H        4.6948240     0.4527130    -0.4608140
  H        0.3841050    -1.1350190    -0.3229170
  H       -2.0573220    -1.2386810    -0.7303930
  H       -1.1648060     1.5075440     0.3065060
  H       -4.5255200    -1.4457790     0.3033390
  H       -5.4853170     0.0231860     0.5310900
  H       -4.0942820    -0.3029910     1.5815520
  H        3.6133940    -1.6470627     0.0066653
units angstrom
no_reorient  #important for SAPT in psi4, default
symmetry c1  #important for SAPT in psi4, default
}

set PROPERTIES_ORIGIN ["COM"]
properties('MP2/aug-cc-pvtz', properties = ['dipole'])
--------------------------------------------------------------------------

    Molecular point group: c1
  Charge       = 0
  Multiplicity = 1
  Basis Set: AUG-CC-PVTZ
    Blend: AUG-CC-PVTZ
  Basis Set: (AUG-CC-PVTZ AUX)
    Blend: AUG-CC-PVTZ-JKFIT

    Orbital Energies [Eh]
    ---------------------

    Doubly Occupied:

       1A    -20.561277     2A    -11.286185     3A    -11.225120
       4A    -11.223714     5A    -11.222801     6A    -11.222543
       7A    -11.221126     8A    -11.220903     9A    -11.212374
      10A     -1.363834    11A     -1.095879    12A     -1.058394
      13A     -1.018533    14A     -0.962403    15A     -0.873291
      16A     -0.828259    17A     -0.752560    18A     -0.744978
      19A     -0.697699    20A     -0.636282    21A     -0.627664
      22A     -0.619852    23A     -0.589663    24A     -0.581418
      25A     -0.551353    26A     -0.544010    27A     -0.526909
      28A     -0.517793    29A     -0.500477    30A     -0.490526
      31A     -0.478107    32A     -0.461846    33A     -0.456687
      34A     -0.419752    35A     -0.297426

  @DF-RHF Final Energy:  -386.05932111832743

   => Energetics <=

    Nuclear Repulsion Energy =            417.6093858769835379
    One-Electron Energy =               -1351.1541386602591501
    Two-Electron Energy =                 547.4854316649482371
    Total Energy =                       -386.0593211183273752
  Basis Set: (AUG-CC-PVTZ AUX)
    Blend: AUG-CC-PVTZ-RI
    Molecular point group: c1

    Geometry (in Angstrom), charge = 0, multiplicity = 1:

       Center              X                  Y                   Z               Mass
    ------------   -----------------  -----------------  -----------------  -----------------
         O            2.688486056668    -1.334276099965    -0.027044304500    15.994914619570
         C            2.795400756668     0.020893500035     0.411891695500    12.000000000000
         C            1.355903056668     0.576691900035     0.394775695500    12.000000000000
         C           -3.553980943332     0.362326900035    -0.410772304500    12.000000000000
         C            3.666127056668     0.841202900035    -0.496468304500    12.000000000000
         C            0.265634056668    -0.102258099965    -0.001272304500    12.000000000000
         C           -2.167961943332    -0.200263099965    -0.409662304500    12.000000000000
         C           -1.068304943332     0.470007900035    -0.018219304500    12.000000000000
         C           -4.475058943332    -0.383312099965     0.557783695500    12.000000000000
         H            3.131340056668     0.069011900035     1.439870695500     1.007825032230
         H            1.260741056668     1.612098900035     0.724694695500     1.007825032230
         H           -3.516129943332     1.425098900035    -0.144888304500     1.007825032230
         H           -3.976122943332     0.305237900035    -1.422615304500     1.007825032230
         H            3.301229056668     0.782967900035    -1.524332304500     1.007825032230
         H            3.694274056668     1.890142900035    -0.187703304500     1.007825032230
         H            4.690046056668     0.452923900035    -0.461427304500     1.007825032230
         H            0.379327056668    -1.134808099965    -0.323530304500     1.007825032230
         H           -2.062099943332    -1.238470099965    -0.731006304500     1.007825032230
         H           -1.169583943332     1.507754900035     0.305892695500     1.007825032230
         H           -4.530297943332    -1.445568099965     0.302725695500     1.007825032230
         H           -5.490094943332     0.023396900035     0.530476695500     1.007825032230
         H           -4.099059943332    -0.302780099965     1.580938695500     1.007825032230
         H            3.608616056668    -1.646851799965     0.006051995500     1.007825032230

  Basis Set: AUG-CC-PVTZ
    Blend: AUG-CC-PVTZ
  Basis Set: (AUG-CC-PVTZ AUX)
    Blend: AUG-CC-PVTZ-JKFIT
	 Reference Energy          =    -386.0593211183274320 [Eh]
	 Singles Energy            =      -0.0000000000000000 [Eh]
	 Same-Spin Energy          =      -0.4003908557555164 [Eh]
	 Opposite-Spin Energy      =      -1.3787648914535955 [Eh]
	 Correlation Energy        =      -1.7791557472091117 [Eh]
	 Total Energy              =    -387.8384768655365633 [Eh]

	 ================> DF-SCS-MP2 Energies <==================
	-----------------------------------------------------------
	 SCS Same-Spin Scale       =       0.3333333333333333 [-]
	 SCS Opposite-Spin Scale   =       1.2000000000000000 [-]
	 SCS Same-Spin Energy      =      -0.1334636185851721 [Eh]
	 SCS Opposite-Spin Energy  =      -1.6545178697443146 [Eh]
	 SCS Correlation Energy    =      -1.7879814883294867 [Eh]
	 SCS Total Energy          =    -387.8473026066569105 [Eh]
	-----------------------------------------------------------

  Dipole Moment: [D]
     X:     1.2948      Y:     0.7651      Z:     0.3170     Total:     1.5370

*** Psi4 exiting successfully. Buy a developer a beer!
