                               Psi4 1.3.2 release

  ==> Input File <==

--------------------------------------------------------------------------
#psi4
#
memory 32 gb

molecule  {
0 1
  O        2.6462720    -1.3484412     0.0300501
  C        2.7508540     0.0254460     0.4069810
  C        1.3606810     0.5764810     0.3953890
  C       -3.5492030     0.3621160    -0.4101590
  C        3.6548747     0.9049857    -0.4508526
  C        0.2704120    -0.1024690    -0.0006590
  C       -2.1631840    -0.2004740    -0.4090490
  C       -1.0635270     0.4697970    -0.0176060
  C       -4.4702810    -0.3835230     0.5583970
  H        3.1361180     0.0688010     1.4404840
  H        1.2655190     1.6118880     0.7253080
  H       -3.5113520     1.4248880    -0.1442750
  H       -3.9713450     0.3050270    -1.4220020
  H        3.3060070     0.7827570    -1.5237190
  H        3.6990520     1.8899320    -0.1870900
  H        4.6948240     0.4527130    -0.4608140
  H        0.3841050    -1.1350190    -0.3229170
  H       -2.0573220    -1.2386810    -0.7303930
  H       -1.1648060     1.5075440     0.3065060
  H       -4.5255200    -1.4457790     0.3033390
  H       -5.4853170     0.0231860     0.5310900
  H       -4.0942820    -0.3029910     1.5815520
  H        3.6028580    -1.6773980    -0.0043180
units angstrom
no_reorient  #important for SAPT in psi4, default
symmetry c1  #important for SAPT in psi4, default
}

set PROPERTIES_ORIGIN ["COM"]
properties('MP2/aug-cc-pvtz', properties = ['dipole'])
--------------------------------------------------------------------------

    Molecular point group: c1
  Charge       = 0
  Multiplicity = 1
  Basis Set: AUG-CC-PVTZ
    Blend: AUG-CC-PVTZ
  Basis Set: (AUG-CC-PVTZ AUX)
    Blend: AUG-CC-PVTZ-JKFIT

    Orbital Energies [Eh]
    ---------------------

    Doubly Occupied:

       1A    -20.566989     2A    -11.286781     3A    -11.224883
       4A    -11.224851     5A    -11.222643     6A    -11.222372
       7A    -11.221718     8A    -11.220154     9A    -11.212247
      10A     -1.356042    11A     -1.096789    12A     -1.060971
      13A     -1.017190    14A     -0.962458    15A     -0.875629
      16A     -0.827682    17A     -0.751899    18A     -0.744949
      19A     -0.689861    20A     -0.640058    21A     -0.627126
      22A     -0.623928    23A     -0.588879    24A     -0.580920
      25A     -0.549261    26A     -0.535858    27A     -0.531227
      28A     -0.517728    29A     -0.500174    30A     -0.491773
      31A     -0.478392    32A     -0.466025    33A     -0.451150
      34A     -0.417163    35A     -0.296147

  @DF-RHF Final Energy:  -386.04885371478139

   => Energetics <=

    Nuclear Repulsion Energy =            417.9747601075178522
    One-Electron Energy =               -1351.8833927732905522
    Two-Electron Energy =                 547.8597789509914264
    Total Energy =                       -386.0488537147813304
  Basis Set: (AUG-CC-PVTZ AUX)
    Blend: AUG-CC-PVTZ-RI
    Molecular point group: c1

    Geometry (in Angstrom), charge = 0, multiplicity = 1:

       Center              X                  Y                   Z               Mass
    ------------   -----------------  -----------------  -----------------  -----------------
         O            2.653757789530    -1.352760800034     0.018603856899    15.994914619570
         C            2.758339789530     0.021126399966     0.395534756899    12.000000000000
         C            1.368166789530     0.572161399966     0.383942756899    12.000000000000
         C           -3.541717210470     0.357796399966    -0.421605243101    12.000000000000
         C            3.662360489530     0.900666099966    -0.462298843101    12.000000000000
         C            0.277897789530    -0.106788600034    -0.012105243101    12.000000000000
         C           -2.155698210470    -0.204793600034    -0.420495243101    12.000000000000
         C           -1.056041210470     0.465477399966    -0.029052243101    12.000000000000
         C           -4.462795210470    -0.387842600034     0.546950756899    12.000000000000
         H            3.143603789530     0.064481399966     1.429037756899     1.007825032230
         H            1.273004789530     1.607568399966     0.713861756899     1.007825032230
         H           -3.503866210470     1.420568399966    -0.155721243101     1.007825032230
         H           -3.963859210470     0.300707399966    -1.433448243101     1.007825032230
         H            3.313492789530     0.778437399966    -1.535165243101     1.007825032230
         H            3.706537789530     1.885612399966    -0.198536243101     1.007825032230
         H            4.702309789530     0.448393399966    -0.472260243101     1.007825032230
         H            0.391590789530    -1.139338600034    -0.334363243101     1.007825032230
         H           -2.049836210470    -1.243000600034    -0.741839243101     1.007825032230
         H           -1.157320210470     1.503224399966     0.295059756899     1.007825032230
         H           -4.518034210470    -1.450098600034     0.291892756899     1.007825032230
         H           -5.477831210470     0.018866399966     0.519643756899     1.007825032230
         H           -4.086796210470    -0.307310600034     1.570105756899     1.007825032230
         H            3.610343789530    -1.681717600034    -0.015764243101     1.007825032230

  Basis Set: AUG-CC-PVTZ
    Blend: AUG-CC-PVTZ
  Basis Set: (AUG-CC-PVTZ AUX)
    Blend: AUG-CC-PVTZ-JKFIT
	 Reference Energy          =    -386.0488537147813872 [Eh]
	 Singles Energy            =      -0.0000000000000000 [Eh]
	 Same-Spin Energy          =      -0.4012720469498966 [Eh]
	 Opposite-Spin Energy      =      -1.3804918669334896 [Eh]
	 Correlation Energy        =      -1.7817639138833861 [Eh]
	 Total Energy              =    -387.8306176286647542 [Eh]

	 ================> DF-SCS-MP2 Energies <==================
	-----------------------------------------------------------
	 SCS Same-Spin Scale       =       0.3333333333333333 [-]
	 SCS Opposite-Spin Scale   =       1.2000000000000000 [-]
	 SCS Same-Spin Energy      =      -0.1337573489832989 [Eh]
	 SCS Opposite-Spin Energy  =      -1.6565902403201875 [Eh]
	 SCS Correlation Energy    =      -1.7903475893034864 [Eh]
	 SCS Total Energy          =    -387.8392013040848951 [Eh]
	-----------------------------------------------------------

  Dipole Moment: [D]
     X:     1.3330      Y:     0.7655      Z:     0.1924     Total:     1.5492

*** Psi4 exiting successfully. Buy a developer a beer!
