                               Psi4 1.3.2 release

  ==> Input File <==

--------------------------------------------------------------------------
#psi4
#
memory 32 gb

molecule  {
0 1
  O        2.6932640    -1.3344870    -0.0264310
  C        2.7508540     0.0254460     0.4069810
  C        1.3765893     0.6134433     0.3621419
  C       -3.5492030     0.3621160    -0.4101590
  C        3.6296757     0.8724644    -0.5078710
  C        0.2704120    -0.1024690    -0.0006590
  C       -2.1631840    -0.2004740    -0.4090490
  C       -1.0635270     0.4697970    -0.0176060
  C       -4.4702810    -0.3835230     0.5583970
  H        3.1361180     0.0688010     1.4404840
  H        1.2655190     1.6118880     0.7253080
  H       -3.5113520     1.4248880    -0.1442750
  H       -3.9713450     0.3050270    -1.4220020
  H        3.3060070     0.7827570    -1.5237190
  H        3.6990520     1.8899320    -0.1870900
  H        4.6948240     0.4527130    -0.4608140
  H        0.3841050    -1.1350190    -0.3229170
  H       -2.0573220    -1.2386810    -0.7303930
  H       -1.1648060     1.5075440     0.3065060
  H       -4.5255200    -1.4457790     0.3033390
  H       -5.4853170     0.0231860     0.5310900
  H       -4.0942820    -0.3029910     1.5815520
  H        3.6028580    -1.6773980    -0.0043180
units angstrom
no_reorient  #important for SAPT in psi4, default
symmetry c1  #important for SAPT in psi4, default
}

set PROPERTIES_ORIGIN ["COM"]
properties('MP2/aug-cc-pvtz', properties = ['dipole'])
--------------------------------------------------------------------------

    Molecular point group: c1
  Charge       = 0
  Multiplicity = 1
  Basis Set: AUG-CC-PVTZ
    Blend: AUG-CC-PVTZ
  Basis Set: (AUG-CC-PVTZ AUX)
    Blend: AUG-CC-PVTZ-JKFIT

    Orbital Energies [Eh]
    ---------------------

    Doubly Occupied:

       1A    -20.560501     2A    -11.286813     3A    -11.225955
       4A    -11.225561     5A    -11.223193     6A    -11.223092
       7A    -11.222761     8A    -11.220405     9A    -11.212698
      10A     -1.361261    11A     -1.096670    12A     -1.061653
      13A     -1.016307    14A     -0.959700    15A     -0.875590
      16A     -0.827050    17A     -0.754457    18A     -0.750584
      19A     -0.696270    20A     -0.637435    21A     -0.625508
      22A     -0.619698    23A     -0.589504    24A     -0.582241
      25A     -0.552093    26A     -0.542759    27A     -0.527276
      28A     -0.518929    29A     -0.502918    30A     -0.489546
      31A     -0.478557    32A     -0.464790    33A     -0.455263
      34A     -0.416065    35A     -0.293971

  @DF-RHF Final Energy:  -386.05656671865398

   => Energetics <=

    Nuclear Repulsion Energy =            417.9313475382666070
    One-Electron Energy =               -1351.7816783354571726
    Two-Electron Energy =                 547.7937640785365829
    Total Energy =                       -386.0565667186539258
  Basis Set: (AUG-CC-PVTZ AUX)
    Blend: AUG-CC-PVTZ-RI
    Molecular point group: c1

    Geometry (in Angstrom), charge = 0, multiplicity = 1:

       Center              X                  Y                   Z               Mass
    ------------   -----------------  -----------------  -----------------  -----------------
         O            2.695673485313    -1.340999133324    -0.022123666327    15.994914619570
         C            2.753263485313     0.018933866676     0.411288333673    12.000000000000
         C            1.378998785313     0.606931166676     0.366449233673    12.000000000000
         C           -3.546793514687     0.355603866676    -0.405851666327    12.000000000000
         C            3.632085185313     0.865952266676    -0.503563666327    12.000000000000
         C            0.272821485313    -0.108981133324     0.003648333673    12.000000000000
         C           -2.160774514687    -0.206986133324    -0.404741666327    12.000000000000
         C           -1.061117514687     0.463284866676    -0.013298666327    12.000000000000
         C           -4.467871514687    -0.390035133324     0.562704333673    12.000000000000
         H            3.138527485313     0.062288866676     1.444791333673     1.007825032230
         H            1.267928485313     1.605375866676     0.729615333673     1.007825032230
         H           -3.508942514687     1.418375866676    -0.139967666327     1.007825032230
         H           -3.968935514687     0.298514866676    -1.417694666327     1.007825032230
         H            3.308416485313     0.776244866676    -1.519411666327     1.007825032230
         H            3.701461485313     1.883419866676    -0.182782666327     1.007825032230
         H            4.697233485313     0.446200866676    -0.456506666327     1.007825032230
         H            0.386514485313    -1.141531133324    -0.318609666327     1.007825032230
         H           -2.054912514687    -1.245193133324    -0.726085666327     1.007825032230
         H           -1.162396514687     1.501031866676     0.310813333673     1.007825032230
         H           -4.523110514687    -1.452291133324     0.307646333673     1.007825032230
         H           -5.482907514687     0.016673866676     0.535397333673     1.007825032230
         H           -4.091872514687    -0.309503133324     1.585859333673     1.007825032230
         H            3.605267485313    -1.683910133324    -0.000010666327     1.007825032230

  Basis Set: AUG-CC-PVTZ
    Blend: AUG-CC-PVTZ
  Basis Set: (AUG-CC-PVTZ AUX)
    Blend: AUG-CC-PVTZ-JKFIT
	 Reference Energy          =    -386.0565667186539827 [Eh]
	 Singles Energy            =      -0.0000000000000000 [Eh]
	 Same-Spin Energy          =      -0.4008118867351526 [Eh]
	 Opposite-Spin Energy      =      -1.3793021505944159 [Eh]
	 Correlation Energy        =      -1.7801140373295685 [Eh]
	 Total Energy              =    -387.8366807559835365 [Eh]

	 ================> DF-SCS-MP2 Energies <==================
	-----------------------------------------------------------
	 SCS Same-Spin Scale       =       0.3333333333333333 [-]
	 SCS Opposite-Spin Scale   =       1.2000000000000000 [-]
	 SCS Same-Spin Energy      =      -0.1336039622450508 [Eh]
	 SCS Opposite-Spin Energy  =      -1.6551625807132990 [Eh]
	 SCS Correlation Energy    =      -1.7887665429583499 [Eh]
	 SCS Total Energy          =    -387.8453332616123248 [Eh]
	-----------------------------------------------------------

  Dipole Moment: [D]
     X:     1.1780      Y:     0.7323      Z:     0.3634     Total:     1.4339

*** Psi4 exiting successfully. Buy a developer a beer!
