                               Psi4 1.3.2 release

  ==> Input File <==

--------------------------------------------------------------------------
#psi4
#
memory 32 gb

molecule  {
0 1
  O        2.6932640    -1.3344870    -0.0264310
  C        2.7321490    -0.0196594     0.3885344
  C        1.3606810     0.5764810     0.3953890
  C       -3.5492030     0.3621160    -0.4101590
  C        3.6709050     0.8409920    -0.4958550
  C        0.2977452    -0.1395427    -0.0095693
  C       -2.1631840    -0.2004740    -0.4090490
  C       -1.0635270     0.4697970    -0.0176060
  C       -4.4702810    -0.3835230     0.5583970
  H        3.1361180     0.0688010     1.4404840
  H        1.2655190     1.6118880     0.7253080
  H       -3.5113520     1.4248880    -0.1442750
  H       -3.9713450     0.3050270    -1.4220020
  H        3.3060070     0.7827570    -1.5237190
  H        3.6990520     1.8899320    -0.1870900
  H        4.6948240     0.4527130    -0.4608140
  H        0.3841050    -1.1350190    -0.3229170
  H       -2.0573220    -1.2386810    -0.7303930
  H       -1.1648060     1.5075440     0.3065060
  H       -4.5255200    -1.4457790     0.3033390
  H       -5.4853170     0.0231860     0.5310900
  H       -4.0942820    -0.3029910     1.5815520
  H        3.6028580    -1.6773980    -0.0043180
units angstrom
no_reorient  #important for SAPT in psi4, default
symmetry c1  #important for SAPT in psi4, default
}

set PROPERTIES_ORIGIN ["COM"]
properties('MP2/aug-cc-pvtz', properties = ['dipole'])
--------------------------------------------------------------------------

    Molecular point group: c1
  Charge       = 0
  Multiplicity = 1
  Basis Set: AUG-CC-PVTZ
    Blend: AUG-CC-PVTZ
  Basis Set: (AUG-CC-PVTZ AUX)
    Blend: AUG-CC-PVTZ-JKFIT

    Orbital Energies [Eh]
    ---------------------

    Doubly Occupied:

       1A    -20.564436     2A    -11.286623     3A    -11.225280
       4A    -11.223207     5A    -11.223087     6A    -11.222101
       7A    -11.220853     8A    -11.219237     9A    -11.212022
      10A     -1.381647    11A     -1.094293    12A     -1.059841
      13A     -1.009380    14A     -0.960603    15A     -0.873705
      16A     -0.827648    17A     -0.758239    18A     -0.748925
      19A     -0.698921    20A     -0.644097    21A     -0.624499
      22A     -0.620443    23A     -0.592297    24A     -0.580810
      25A     -0.548877    26A     -0.542534    27A     -0.531433
      28A     -0.520726    29A     -0.508719    30A     -0.490710
      31A     -0.478019    32A     -0.460095    33A     -0.447932
      34A     -0.410630    35A     -0.298315

  @DF-RHF Final Energy:  -386.05878128687993

   => Energetics <=

    Nuclear Repulsion Energy =            418.3123615400861581
    One-Electron Energy =               -1352.5219134332014619
    Two-Electron Energy =                 548.1507706062353691
    Total Energy =                       -386.0587812868799347
  Basis Set: (AUG-CC-PVTZ AUX)
    Blend: AUG-CC-PVTZ-RI
    Molecular point group: c1

    Geometry (in Angstrom), charge = 0, multiplicity = 1:

       Center              X                  Y                   Z               Mass
    ------------   -----------------  -----------------  -----------------  -----------------
         O            2.692442906604    -1.326666844622    -0.023827605992    15.994914619570
         C            2.731327906604    -0.011839244622     0.391137794008    12.000000000000
         C            1.359859906604     0.584301155378     0.397992394008    12.000000000000
         C           -3.550024093396     0.369936155378    -0.407555605992    12.000000000000
         C            3.670083906604     0.848812155378    -0.493251605992    12.000000000000
         C            0.296924106604    -0.131722544622    -0.006965905992    12.000000000000
         C           -2.164005093396    -0.192653844622    -0.406445605992    12.000000000000
         C           -1.064348093396     0.477617155378    -0.015002605992    12.000000000000
         C           -4.471102093396    -0.375702844622     0.561000394008    12.000000000000
         H            3.135296906604     0.076621155378     1.443087394008     1.007825032230
         H            1.264697906604     1.619708155378     0.727911394008     1.007825032230
         H           -3.512173093396     1.432708155378    -0.141671605992     1.007825032230
         H           -3.972166093396     0.312847155378    -1.419398605992     1.007825032230
         H            3.305185906604     0.790577155378    -1.521115605992     1.007825032230
         H            3.698230906604     1.897752155378    -0.184486605992     1.007825032230
         H            4.694002906604     0.460533155378    -0.458210605992     1.007825032230
         H            0.383283906604    -1.127198844622    -0.320313605992     1.007825032230
         H           -2.058143093396    -1.230860844622    -0.727789605992     1.007825032230
         H           -1.165627093396     1.515364155378     0.309109394008     1.007825032230
         H           -4.526341093396    -1.437958844622     0.305942394008     1.007825032230
         H           -5.486138093396     0.031006155378     0.533693394008     1.007825032230
         H           -4.095103093396    -0.295170844622     1.584155394008     1.007825032230
         H            3.602036906604    -1.669577844622    -0.001714605992     1.007825032230

  Basis Set: AUG-CC-PVTZ
    Blend: AUG-CC-PVTZ
  Basis Set: (AUG-CC-PVTZ AUX)
    Blend: AUG-CC-PVTZ-JKFIT
	 Reference Energy          =    -386.0587812868799347 [Eh]
	 Singles Energy            =      -0.0000000000000000 [Eh]
	 Same-Spin Energy          =      -0.3998763826710003 [Eh]
	 Opposite-Spin Energy      =      -1.3772607443432183 [Eh]
	 Correlation Energy        =      -1.7771371270142187 [Eh]
	 Total Energy              =    -387.8359184138941487 [Eh]

	 ================> DF-SCS-MP2 Energies <==================
	-----------------------------------------------------------
	 SCS Same-Spin Scale       =       0.3333333333333333 [-]
	 SCS Opposite-Spin Scale   =       1.2000000000000000 [-]
	 SCS Same-Spin Energy      =      -0.1332921275570001 [Eh]
	 SCS Opposite-Spin Energy  =      -1.6527128932118620 [Eh]
	 SCS Correlation Energy    =      -1.7860050207688620 [Eh]
	 SCS Total Energy          =    -387.8447863076488034 [Eh]
	-----------------------------------------------------------

  Dipole Moment: [D]
     X:     1.2470      Y:     0.5675      Z:     0.2831     Total:     1.3990

*** Psi4 exiting successfully. Buy a developer a beer!
