                               Psi4 1.4a3.dev225

  ==> Input File <==

--------------------------------------------------------------------------
#psi4
#
memory 32 gb

molecule  {
0 1
  O       -2.7161510     1.3794200    -0.1343610
  C       -2.7832390     0.0721360     0.4401970
  C       -1.3979030    -0.4954620     0.4743180
  C        3.5083460    -0.4405980    -0.4123350
  C       -3.7239960    -0.8239440    -0.3625680
  C       -0.3030690     0.1219220    -0.0067100
  C        2.1282810     0.1394430    -0.4544070
  C        1.0245920    -0.4684390     0.0236420
  C        4.4606410     0.4027870     0.4416180
  H       -3.1581590     0.1412460     1.4762970
  H       -1.3112260    -1.4900120     0.9147240
  H        3.4619600    -1.4629760    -0.0187660
  H        3.9104550    -0.5133060    -1.4317100
  H       -3.3684670    -0.8811940    -1.3941910
  H       -3.7626400    -1.8335820     0.0574350
  H       -4.7426360    -0.4191700    -0.3608330
  H       -0.4078810     1.1149080    -0.4388390
  H        2.0311270     1.1370710    -0.8883280
  H        1.1170930    -1.4649260     0.4609700
  H        4.5263310     1.4251690     0.0574090
  H        5.4690900    -0.0219830     0.4454750
  H        4.1044230     0.4539160     1.4740500
  H       -3.6408181     1.7396794    -0.1414774
units angstrom
no_reorient  #important for SAPT in psi4, default
symmetry c1  #important for SAPT in psi4, default
}

set PROPERTIES_ORIGIN ["COM"]
properties('MP2/aug-cc-pvtz', properties = ['dipole'])
--------------------------------------------------------------------------

    Molecular point group: c1
  Charge       = 0
  Multiplicity = 1
  Basis Set: AUG-CC-PVTZ
    Blend: AUG-CC-PVTZ
  Basis Set: (AUG-CC-PVTZ AUX)
    Blend: AUG-CC-PVTZ-JKFIT

    Orbital Energies [Eh]
    ---------------------

    Doubly Occupied:

       1A    -20.560612     2A    -11.286834     3A    -11.226482
       4A    -11.224286     5A    -11.223751     6A    -11.223564
       7A    -11.222425     8A    -11.220811     9A    -11.213119
      10A     -1.355991    11A     -1.096898    12A     -1.060115
      13A     -1.015262    14A     -0.962002    15A     -0.876002
      16A     -0.827976    17A     -0.752279    18A     -0.746640
      19A     -0.692654    20A     -0.636510    21A     -0.627256
      22A     -0.615515    23A     -0.589570    24A     -0.582448
      25A     -0.545898    26A     -0.543474    27A     -0.527241
      28A     -0.518220    29A     -0.500668    30A     -0.491907
      31A     -0.479224    32A     -0.467655    33A     -0.452382
      34A     -0.417818    35A     -0.297288

  @DF-RHF Final Energy:  -386.06073986785481

   => Energetics <=

    Nuclear Repulsion Energy =            417.3780145698582942
    One-Electron Energy =               -1350.7159550013745957
    Two-Electron Energy =                 547.2772005636614949
    Total Energy =                       -386.0607398678547497
  Basis Set: (AUG-CC-PVTZ AUX)
    Blend: AUG-CC-PVTZ-RI
    Molecular point group: c1

    Geometry (in Angstrom), charge = 0, multiplicity = 1:

       Center              X                  Y                   Z               Mass
    ------------   -----------------  -----------------  -----------------  -----------------
         O           -2.682694404319     1.363033210423    -0.132694472735    15.994914619570
         C           -2.749782404319     0.055749210423     0.441863527265    12.000000000000
         C           -1.364446404319    -0.511848789577     0.475984527265    12.000000000000
         C            3.541802595681    -0.456984789577    -0.410668472735    12.000000000000
         C           -3.690539404319    -0.840330789577    -0.360901472735    12.000000000000
         C           -0.269612404319     0.105535210423    -0.005043472735    12.000000000000
         C            2.161737595681     0.123056210423    -0.452740472735    12.000000000000
         C            1.058048595681    -0.484825789577     0.025308527265    12.000000000000
         C            4.494097595681     0.386400210423     0.443284527265    12.000000000000
         H           -3.124702404319     0.124859210423     1.477963527265     1.007825032230
         H           -1.277769404319    -1.506398789577     0.916390527265     1.007825032230
         H            3.495416595681    -1.479362789577    -0.017099472735     1.007825032230
         H            3.943911595681    -0.529692789577    -1.430043472735     1.007825032230
         H           -3.335010404319    -0.897580789577    -1.392524472735     1.007825032230
         H           -3.729183404319    -1.849968789577     0.059101527265     1.007825032230
         H           -4.709179404319    -0.435556789577    -0.359166472735     1.007825032230
         H           -0.374424404319     1.098521210423    -0.437172472735     1.007825032230
         H            2.064583595681     1.120684210423    -0.886661472735     1.007825032230
         H            1.150549595681    -1.481312789577     0.462636527265     1.007825032230
         H            4.559787595681     1.408782210423     0.059075527265     1.007825032230
         H            5.502546595681    -0.038369789577     0.447141527265     1.007825032230
         H            4.137879595681     0.437529210423     1.475716527265     1.007825032230
         H           -3.607361504319     1.723292610423    -0.139810872735     1.007825032230

  Basis Set: AUG-CC-PVTZ
    Blend: AUG-CC-PVTZ
  Basis Set: (AUG-CC-PVTZ AUX)
    Blend: AUG-CC-PVTZ-JKFIT
	 Reference Energy          =    -386.0607398678548066 [Eh]
	 Singles Energy            =      -0.0000000000000000 [Eh]
	 Same-Spin Energy          =      -0.4005083600201398 [Eh]
	 Opposite-Spin Energy      =      -1.3790494491388816 [Eh]
	 Correlation Energy        =      -1.7795578091590214 [Eh]
	 Total Energy              =    -387.8402976770138366 [Eh]

	 ================> DF-SCS-MP2 Energies <==================
	-----------------------------------------------------------
	 SCS Same-Spin Scale       =       0.3333333333333333 [-]
	 SCS Opposite-Spin Scale   =       1.2000000000000000 [-]
	 SCS Same-Spin Energy      =      -0.1335027866733799 [Eh]
	 SCS Opposite-Spin Energy  =      -1.6548593389666579 [Eh]
	 SCS Correlation Energy    =      -1.7883621256400379 [Eh]
	 SCS Total Energy          =    -387.8491019934948554 [Eh]
	-----------------------------------------------------------

  Dipole Moment: [D]
     X:    -1.2198      Y:    -0.6767      Z:     0.3901     Total:     1.4485

*** Psi4 exiting successfully. Buy a developer a beer!
