                               Psi4 1.3.2 release

  ==> Input File <==

--------------------------------------------------------------------------
#psi4
#
memory 32 gb

molecule  {
0 1
  O        2.6932640    -1.3344870    -0.0264310
  C        2.7508540     0.0254460     0.4069810
  C        1.3606810     0.5764810     0.3953890
  C       -3.5445607     0.3734105    -0.4055457
  C        3.6709050     0.8409920    -0.4958550
  C        0.2704120    -0.1024690    -0.0006590
  C       -2.1631840    -0.2004740    -0.4090490
  C       -1.0701583     0.4792047    -0.0152623
  C       -4.4702810    -0.3835230     0.5583970
  H        3.1361180     0.0688010     1.4404840
  H        1.2655190     1.6118880     0.7253080
  H       -3.5113520     1.4248880    -0.1442750
  H       -3.9713450     0.3050270    -1.4220020
  H        3.3060070     0.7827570    -1.5237190
  H        3.6990520     1.8899320    -0.1870900
  H        4.6948240     0.4527130    -0.4608140
  H        0.3841050    -1.1350190    -0.3229170
  H       -2.0573220    -1.2386810    -0.7303930
  H       -1.1648060     1.5075440     0.3065060
  H       -4.5255200    -1.4457790     0.3033390
  H       -5.4853170     0.0231860     0.5310900
  H       -4.0942820    -0.3029910     1.5815520
  H        3.6028580    -1.6773980    -0.0043180
units angstrom
no_reorient  #important for SAPT in psi4, default
symmetry c1  #important for SAPT in psi4, default
}

set PROPERTIES_ORIGIN ["COM"]
properties('MP2/aug-cc-pvtz', properties = ['dipole'])
--------------------------------------------------------------------------

    Molecular point group: c1
  Charge       = 0
  Multiplicity = 1
  Basis Set: AUG-CC-PVTZ
    Blend: AUG-CC-PVTZ
  Basis Set: (AUG-CC-PVTZ AUX)
    Blend: AUG-CC-PVTZ-JKFIT

    Orbital Energies [Eh]
    ---------------------

    Doubly Occupied:

       1A    -20.558559     2A    -11.286236     3A    -11.225920
       4A    -11.223637     5A    -11.222781     6A    -11.222584
       7A    -11.221595     8A    -11.220383     9A    -11.212859
      10A     -1.360442    11A     -1.097105    12A     -1.060940
      13A     -1.015035    14A     -0.962076    15A     -0.875809
      16A     -0.828457    17A     -0.753756    18A     -0.747796
      19A     -0.695140    20A     -0.637603    21A     -0.626740
      22A     -0.616716    23A     -0.590552    24A     -0.581622
      25A     -0.546460    26A     -0.543603    27A     -0.528565
      28A     -0.516669    29A     -0.500818    30A     -0.492533
      31A     -0.482755    32A     -0.466547    33A     -0.452651
      34A     -0.416767    35A     -0.297737

  @DF-RHF Final Energy:  -386.06256410381377

   => Energetics <=

    Nuclear Repulsion Energy =            417.9038906408640059
    One-Electron Energy =               -1351.7540182321872635
    Two-Electron Energy =                 547.7875634875094875
    Total Energy =                       -386.0625641038137701
  Basis Set: (AUG-CC-PVTZ AUX)
    Blend: AUG-CC-PVTZ-RI
    Molecular point group: c1

    Geometry (in Angstrom), charge = 0, multiplicity = 1:

       Center              X                  Y                   Z               Mass
    ------------   -----------------  -----------------  -----------------  -----------------
         O            2.693453230861    -1.336456946814    -0.027092889261    15.994914619570
         C            2.751043230861     0.023476053186     0.406319110739    12.000000000000
         C            1.360870230861     0.574511053186     0.394727110739    12.000000000000
         C           -3.544371469139     0.371440553186    -0.406207589261    12.000000000000
         C            3.671094230861     0.839022053186    -0.496516889261    12.000000000000
         C            0.270601230861    -0.104438946814    -0.001320889261    12.000000000000
         C           -2.162994769139    -0.202443946814    -0.409710889261    12.000000000000
         C           -1.069969069139     0.477234753186    -0.015924189261    12.000000000000
         C           -4.470091769139    -0.385492946814     0.557735110739    12.000000000000
         H            3.136307230861     0.066831053186     1.439822110739     1.007825032230
         H            1.265708230861     1.609918053186     0.724646110739     1.007825032230
         H           -3.511162769139     1.422918053186    -0.144936889261     1.007825032230
         H           -3.971155769139     0.303057053186    -1.422663889261     1.007825032230
         H            3.306196230861     0.780787053186    -1.524380889261     1.007825032230
         H            3.699241230861     1.887962053186    -0.187751889261     1.007825032230
         H            4.695013230861     0.450743053186    -0.461475889261     1.007825032230
         H            0.384294230861    -1.136988946814    -0.323578889261     1.007825032230
         H           -2.057132769139    -1.240650946814    -0.731054889261     1.007825032230
         H           -1.164616769139     1.505574053186     0.305844110739     1.007825032230
         H           -4.525330769139    -1.447748946814     0.302677110739     1.007825032230
         H           -5.485127769139     0.021216053186     0.530428110739     1.007825032230
         H           -4.094092769139    -0.304960946814     1.580890110739     1.007825032230
         H            3.603047230861    -1.679367946814    -0.004979889261     1.007825032230

  Basis Set: AUG-CC-PVTZ
    Blend: AUG-CC-PVTZ
  Basis Set: (AUG-CC-PVTZ AUX)
    Blend: AUG-CC-PVTZ-JKFIT
	 Reference Energy          =    -386.0625641038137701 [Eh]
	 Singles Energy            =      -0.0000000000000000 [Eh]
	 Same-Spin Energy          =      -0.4001857121889789 [Eh]
	 Opposite-Spin Energy      =      -1.3781441144174900 [Eh]
	 Correlation Energy        =      -1.7783298266064689 [Eh]
	 Total Energy              =    -387.8408939304202363 [Eh]

	 ================> DF-SCS-MP2 Energies <==================
	-----------------------------------------------------------
	 SCS Same-Spin Scale       =       0.3333333333333333 [-]
	 SCS Opposite-Spin Scale   =       1.2000000000000000 [-]
	 SCS Same-Spin Energy      =      -0.1333952373963263 [Eh]
	 SCS Opposite-Spin Energy  =      -1.6537729373009880 [Eh]
	 SCS Correlation Energy    =      -1.7871681746973143 [Eh]
	 SCS Total Energy          =    -387.8497322785111123 [Eh]
	-----------------------------------------------------------

  Dipole Moment: [D]
     X:     1.1953      Y:     0.7363      Z:     0.3102     Total:     1.4377

*** Psi4 exiting successfully. Buy a developer a beer!
