                               Psi4 1.4a3.dev225

  ==> Input File <==

--------------------------------------------------------------------------
#psi4
#
memory 32 gb

molecule  {
0 1
  O       -2.7161510     1.3794200    -0.1343610
  C       -2.7832390     0.0721360     0.4401970
  C       -1.3979030    -0.4954620     0.4743180
  C        3.5083460    -0.4405980    -0.4123350
  C       -3.7239960    -0.8239440    -0.3625680
  C       -0.3030690     0.1219220    -0.0067100
  C        2.1467114     0.1316967    -0.4538451
  C        1.0245920    -0.4684390     0.0236420
  C        4.4606410     0.4027870     0.4416180
  H       -3.1581590     0.1412460     1.4762970
  H       -1.3112260    -1.4900120     0.9147240
  H        3.4619600    -1.4629760    -0.0187660
  H        3.9104550    -0.5133060    -1.4317100
  H       -3.3684670    -0.8811940    -1.3941910
  H       -3.7626400    -1.8335820     0.0574350
  H       -4.7426360    -0.4191700    -0.3608330
  H       -0.4078810     1.1149080    -0.4388390
  H        2.0311270     1.1370710    -0.8883280
  H        1.1170930    -1.4649260     0.4609700
  H        4.5263310     1.4251690     0.0574090
  H        5.4690900    -0.0219830     0.4454750
  H        4.1044230     0.4539160     1.4740500
  H       -3.6221830     1.7324190    -0.1413340
units angstrom
no_reorient  #important for SAPT in psi4, default
symmetry c1  #important for SAPT in psi4, default
}

set PROPERTIES_ORIGIN ["COM"]
properties('MP2/aug-cc-pvtz', properties = ['dipole'])
--------------------------------------------------------------------------

    Molecular point group: c1
  Charge       = 0
  Multiplicity = 1
  Basis Set: AUG-CC-PVTZ
    Blend: AUG-CC-PVTZ
  Basis Set: (AUG-CC-PVTZ AUX)
    Blend: AUG-CC-PVTZ-JKFIT

    Orbital Energies [Eh]
    ---------------------

    Doubly Occupied:

       1A    -20.558882     2A    -11.287168     3A    -11.227983
       4A    -11.225335     5A    -11.224399     6A    -11.223037
       7A    -11.222848     8A    -11.221016     9A    -11.213502
      10A     -1.360213    11A     -1.097029    12A     -1.062266
      13A     -1.015762    14A     -0.960995    15A     -0.877841
      16A     -0.828985    17A     -0.751491    18A     -0.747675
      19A     -0.694683    20A     -0.636824    21A     -0.628284
      22A     -0.616665    23A     -0.590595    24A     -0.582821
      25A     -0.546332    26A     -0.542895    27A     -0.526530
      28A     -0.519486    29A     -0.501388    30A     -0.492925
      31A     -0.478080    32A     -0.470579    33A     -0.452857
      34A     -0.416529    35A     -0.295608

  @DF-RHF Final Energy:  -386.06104682116802

   => Energetics <=

    Nuclear Repulsion Energy =            417.4788616304132916
    One-Electron Energy =               -1350.8808019309333304
    Two-Electron Energy =                 547.3408934793519620
    Total Energy =                       -386.0610468211680200
  Basis Set: (AUG-CC-PVTZ AUX)
    Blend: AUG-CC-PVTZ-RI
    Molecular point group: c1

    Geometry (in Angstrom), charge = 0, multiplicity = 1:

       Center              X                  Y                   Z               Mass
    ------------   -----------------  -----------------  -----------------  -----------------
         O           -2.684597157882     1.363828367144    -0.132749088740    15.994914619570
         C           -2.751685157882     0.056544367144     0.441808911260    12.000000000000
         C           -1.366349157882    -0.511053632856     0.475929911260    12.000000000000
         C            3.539899842118    -0.456189632856    -0.410723088740    12.000000000000
         C           -3.692442157882    -0.839535632856    -0.360956088740    12.000000000000
         C           -0.271515157882     0.106330367144    -0.005098088740    12.000000000000
         C            2.178265242118     0.116105067144    -0.452233188740    12.000000000000
         C            1.056145842118    -0.484030632856     0.025253911260    12.000000000000
         C            4.492194842118     0.387195367144     0.443229911260    12.000000000000
         H           -3.126605157882     0.125654367144     1.477908911260     1.007825032230
         H           -1.279672157882    -1.505603632856     0.916335911260     1.007825032230
         H            3.493513842118    -1.478567632856    -0.017154088740     1.007825032230
         H            3.942008842118    -0.528897632856    -1.430098088740     1.007825032230
         H           -3.336913157882    -0.896785632856    -1.392579088740     1.007825032230
         H           -3.731086157882    -1.849173632856     0.059046911260     1.007825032230
         H           -4.711082157882    -0.434761632856    -0.359221088740     1.007825032230
         H           -0.376327157882     1.099316367144    -0.437227088740     1.007825032230
         H            2.062680842118     1.121479367144    -0.886716088740     1.007825032230
         H            1.148646842118    -1.480517632856     0.462581911260     1.007825032230
         H            4.557884842118     1.409577367144     0.059020911260     1.007825032230
         H            5.500643842118    -0.037574632856     0.447086911260     1.007825032230
         H            4.135976842118     0.438324367144     1.475661911260     1.007825032230
         H           -3.590629157882     1.716827367144    -0.139722088740     1.007825032230

  Basis Set: AUG-CC-PVTZ
    Blend: AUG-CC-PVTZ
  Basis Set: (AUG-CC-PVTZ AUX)
    Blend: AUG-CC-PVTZ-JKFIT
	 Reference Energy          =    -386.0610468211680200 [Eh]
	 Singles Energy            =      -0.0000000000000000 [Eh]
	 Same-Spin Energy          =      -0.4006265282000980 [Eh]
	 Opposite-Spin Energy      =      -1.3789127709494449 [Eh]
	 Correlation Energy        =      -1.7795392991495429 [Eh]
	 Total Energy              =    -387.8405861203175391 [Eh]

	 ================> DF-SCS-MP2 Energies <==================
	-----------------------------------------------------------
	 SCS Same-Spin Scale       =       0.3333333333333333 [-]
	 SCS Opposite-Spin Scale   =       1.2000000000000000 [-]
	 SCS Same-Spin Energy      =      -0.1335421760666993 [Eh]
	 SCS Opposite-Spin Energy  =      -1.6546953251393337 [Eh]
	 SCS Correlation Energy    =      -1.7882375012060330 [Eh]
	 SCS Total Energy          =    -387.8492843223740465 [Eh]
	-----------------------------------------------------------

  Dipole Moment: [D]
     X:    -1.1964      Y:    -0.6903      Z:     0.3911     Total:     1.4355

*** Psi4 exiting successfully. Buy a developer a beer!
