                               Psi4 1.3.2 release

  ==> Input File <==

--------------------------------------------------------------------------
#psi4
#
memory 32 gb

molecule  {
0 1
  O        2.6932640    -1.3344870    -0.0264310
  C        2.7508540     0.0254460     0.4069810
  C        1.3606810     0.5764810     0.3953890
  C       -3.5492030     0.3621160    -0.4101590
  C        3.6709050     0.8409920    -0.4958550
  C        0.2704120    -0.1024690    -0.0006590
  C       -2.1784008    -0.2354695    -0.3734136
  C       -1.0635270     0.4697970    -0.0176060
  C       -4.4293166    -0.4152206     0.5714778
  H        3.1361180     0.0688010     1.4404840
  H        1.2655190     1.6118880     0.7253080
  H       -3.5113520     1.4248880    -0.1442750
  H       -3.9713450     0.3050270    -1.4220020
  H        3.3060070     0.7827570    -1.5237190
  H        3.6990520     1.8899320    -0.1870900
  H        4.6948240     0.4527130    -0.4608140
  H        0.3841050    -1.1350190    -0.3229170
  H       -2.0573220    -1.2386810    -0.7303930
  H       -1.1648060     1.5075440     0.3065060
  H       -4.5255200    -1.4457790     0.3033390
  H       -5.4853170     0.0231860     0.5310900
  H       -4.0942820    -0.3029910     1.5815520
  H        3.6028580    -1.6773980    -0.0043180
units angstrom
no_reorient  #important for SAPT in psi4, default
symmetry c1  #important for SAPT in psi4, default
}

set PROPERTIES_ORIGIN ["COM"]
properties('MP2/aug-cc-pvtz', properties = ['dipole'])
--------------------------------------------------------------------------

    Molecular point group: c1
  Charge       = 0
  Multiplicity = 1
  Basis Set: AUG-CC-PVTZ
    Blend: AUG-CC-PVTZ
  Basis Set: (AUG-CC-PVTZ AUX)
    Blend: AUG-CC-PVTZ-JKFIT

    Orbital Energies [Eh]
    ---------------------

    Doubly Occupied:

       1A    -20.558502     2A    -11.286184     3A    -11.226861
       4A    -11.225275     5A    -11.223714     6A    -11.222921
       7A    -11.221297     8A    -11.220324     9A    -11.212472
      10A     -1.360385    11A     -1.096414    12A     -1.061745
      13A     -1.015628    14A     -0.959775    15A     -0.875830
      16A     -0.827374    17A     -0.757030    18A     -0.747475
      19A     -0.694916    20A     -0.637644    21A     -0.629038
      22A     -0.617218    23A     -0.589443    24A     -0.581798
      25A     -0.546683    26A     -0.542831    27A     -0.528746
      28A     -0.520169    29A     -0.497071    30A     -0.492900
      31A     -0.485717    32A     -0.463453    33A     -0.452714
      34A     -0.415770    35A     -0.294078

  @DF-RHF Final Energy:  -386.05677483886143

   => Energetics <=

    Nuclear Repulsion Energy =            418.1012362173337920
    One-Electron Energy =               -1352.1372309388550548
    Two-Electron Energy =                 547.9792198826598906
    Total Energy =                       -386.0567748388614291
  Basis Set: (AUG-CC-PVTZ AUX)
    Blend: AUG-CC-PVTZ-RI
    Molecular point group: c1

    Geometry (in Angstrom), charge = 0, multiplicity = 1:

       Center              X                  Y                   Z               Mass
    ------------   -----------------  -----------------  -----------------  -----------------
         O            2.690813838197    -1.328140479991    -0.031066661322    15.994914619570
         C            2.748403838197     0.031792520009     0.402345338678    12.000000000000
         C            1.358230838197     0.582827520009     0.390753338678    12.000000000000
         C           -3.551653161803     0.368462520009    -0.414794661322    12.000000000000
         C            3.668454838197     0.847338520009    -0.500490661322    12.000000000000
         C            0.267961838197    -0.096122479991    -0.005294661322    12.000000000000
         C           -2.180850961803    -0.229122979991    -0.378049261322    12.000000000000
         C           -1.065977161803     0.476143520009    -0.022241661322    12.000000000000
         C           -4.431766761803    -0.408874079991     0.566842138678    12.000000000000
         H            3.133667838197     0.075147520009     1.435848338678     1.007825032230
         H            1.263068838197     1.618234520009     0.720672338678     1.007825032230
         H           -3.513802161803     1.431234520009    -0.148910661322     1.007825032230
         H           -3.973795161803     0.311373520009    -1.426637661322     1.007825032230
         H            3.303556838197     0.789103520009    -1.528354661322     1.007825032230
         H            3.696601838197     1.896278520009    -0.191725661322     1.007825032230
         H            4.692373838197     0.459059520009    -0.465449661322     1.007825032230
         H            0.381654838197    -1.128672479991    -0.327552661322     1.007825032230
         H           -2.059772161803    -1.232334479991    -0.735028661322     1.007825032230
         H           -1.167256161803     1.513890520009     0.301870338678     1.007825032230
         H           -4.527970161803    -1.439432479991     0.298703338678     1.007825032230
         H           -5.487767161803     0.029532520009     0.526454338678     1.007825032230
         H           -4.096732161803    -0.296644479991     1.576916338678     1.007825032230
         H            3.600407838197    -1.671051479991    -0.008953661322     1.007825032230

  Basis Set: AUG-CC-PVTZ
    Blend: AUG-CC-PVTZ
  Basis Set: (AUG-CC-PVTZ AUX)
    Blend: AUG-CC-PVTZ-JKFIT
	 Reference Energy          =    -386.0567748388614291 [Eh]
	 Singles Energy            =      -0.0000000000000000 [Eh]
	 Same-Spin Energy          =      -0.4007608443679982 [Eh]
	 Opposite-Spin Energy      =      -1.3792151216464958 [Eh]
	 Correlation Energy        =      -1.7799759660144940 [Eh]
	 Total Energy              =    -387.8367508048759191 [Eh]

	 ================> DF-SCS-MP2 Energies <==================
	-----------------------------------------------------------
	 SCS Same-Spin Scale       =       0.3333333333333333 [-]
	 SCS Opposite-Spin Scale   =       1.2000000000000000 [-]
	 SCS Same-Spin Energy      =      -0.1335869481226661 [Eh]
	 SCS Opposite-Spin Energy  =      -1.6550581459757949 [Eh]
	 SCS Correlation Energy    =      -1.7886450940984611 [Eh]
	 SCS Total Energy          =    -387.8454199329598850 [Eh]
	-----------------------------------------------------------

  Dipole Moment: [D]
     X:     1.2180      Y:     0.7236      Z:     0.2553     Total:     1.4395

*** Psi4 exiting successfully. Buy a developer a beer!
