                               Psi4 1.3.2 release

  ==> Input File <==

--------------------------------------------------------------------------
#psi4
#
memory 32 gb

molecule  {
0 1
  O        2.6932640    -1.3344870    -0.0264310
  C        2.7508540     0.0254460     0.4069810
  C        1.3737835     0.5574797     0.3911990
  C       -3.5492030     0.3621160    -0.4101590
  C        3.6709050     0.8409920    -0.4958550
  C        0.2704120    -0.1024690    -0.0006590
  C       -2.1631840    -0.2004740    -0.4090490
  C       -1.0635270     0.4697970    -0.0176060
  C       -4.4702810    -0.3835230     0.5583970
  H        3.1361180     0.0688010     1.4404840
  H        1.2655190     1.6118880     0.7253080
  H       -3.5113520     1.4248880    -0.1442750
  H       -3.9713450     0.3050270    -1.4220020
  H        3.3060070     0.7827570    -1.5237190
  H        3.6990520     1.8899320    -0.1870900
  H        4.6948240     0.4527130    -0.4608140
  H        0.4027539    -1.1338330    -0.3195785
  H       -2.0573220    -1.2386810    -0.7303930
  H       -1.1648060     1.5075440     0.3065060
  H       -4.5255200    -1.4457790     0.3033390
  H       -5.4853170     0.0231860     0.5310900
  H       -4.0942820    -0.3029910     1.5815520
  H        3.6028580    -1.6773980    -0.0043180
units angstrom
no_reorient  #important for SAPT in psi4, default
symmetry c1  #important for SAPT in psi4, default
}

set PROPERTIES_ORIGIN ["COM"]
properties('MP2/aug-cc-pvtz', properties = ['dipole'])
--------------------------------------------------------------------------

    Molecular point group: c1
  Charge       = 0
  Multiplicity = 1
  Basis Set: AUG-CC-PVTZ
    Blend: AUG-CC-PVTZ
  Basis Set: (AUG-CC-PVTZ AUX)
    Blend: AUG-CC-PVTZ-JKFIT

    Orbital Energies [Eh]
    ---------------------

    Doubly Occupied:

       1A    -20.558686     2A    -11.285866     3A    -11.226398
       4A    -11.223983     5A    -11.223429     6A    -11.223346
       7A    -11.221571     8A    -11.220983     9A    -11.212938
      10A     -1.361284    11A     -1.097976    12A     -1.062715
      13A     -1.016797    14A     -0.962883    15A     -0.878207
      16A     -0.829755    17A     -0.752872    18A     -0.744418
      19A     -0.696398    20A     -0.637433    21A     -0.628874
      22A     -0.617355    23A     -0.589962    24A     -0.582242
      25A     -0.546386    26A     -0.542365    27A     -0.527979
      28A     -0.518332    29A     -0.498383    30A     -0.492932
      31A     -0.479583    32A     -0.470079    33A     -0.453680
      34A     -0.417967    35A     -0.297378

  @DF-RHF Final Energy:  -386.06146518458860

   => Energetics <=

    Nuclear Repulsion Energy =            418.2261101821936791
    One-Electron Energy =               -1352.3722791234993110
    Two-Electron Energy =                 548.0847037567169764
    Total Energy =                       -386.0614651845886556
  Basis Set: (AUG-CC-PVTZ AUX)
    Blend: AUG-CC-PVTZ-RI
    Molecular point group: c1

    Geometry (in Angstrom), charge = 0, multiplicity = 1:

       Center              X                  Y                   Z               Mass
    ------------   -----------------  -----------------  -----------------  -----------------
         O            2.691868094061    -1.332688272016    -0.026058830903    15.994914619570
         C            2.749458094061     0.027244727984     0.407353169097    12.000000000000
         C            1.372387594061     0.559278427984     0.391571169097    12.000000000000
         C           -3.550598905939     0.363914727984    -0.409786830903    12.000000000000
         C            3.669509094061     0.842790727984    -0.495482830903    12.000000000000
         C            0.269016094061    -0.100670272016    -0.000286830903    12.000000000000
         C           -2.164579905939    -0.198675272016    -0.408676830903    12.000000000000
         C           -1.064922905939     0.471595727984    -0.017233830903    12.000000000000
         C           -4.471676905939    -0.381724272016     0.558769169097    12.000000000000
         H            3.134722094061     0.070599727984     1.440856169097     1.007825032230
         H            1.264123094061     1.613686727984     0.725680169097     1.007825032230
         H           -3.512747905939     1.426686727984    -0.143902830903     1.007825032230
         H           -3.972740905939     0.306825727984    -1.421629830903     1.007825032230
         H            3.304611094061     0.784555727984    -1.523346830903     1.007825032230
         H            3.697656094061     1.891730727984    -0.186717830903     1.007825032230
         H            4.693428094061     0.454511727984    -0.460441830903     1.007825032230
         H            0.401357994061    -1.132034272016    -0.319206330903     1.007825032230
         H           -2.058717905939    -1.236882272016    -0.730020830903     1.007825032230
         H           -1.166201905939     1.509342727984     0.306878169097     1.007825032230
         H           -4.526915905939    -1.443980272016     0.303711169097     1.007825032230
         H           -5.486712905939     0.024984727984     0.531462169097     1.007825032230
         H           -4.095677905939    -0.301192272016     1.581924169097     1.007825032230
         H            3.601462094061    -1.675599272016    -0.003945830903     1.007825032230

  Basis Set: AUG-CC-PVTZ
    Blend: AUG-CC-PVTZ
  Basis Set: (AUG-CC-PVTZ AUX)
    Blend: AUG-CC-PVTZ-JKFIT
	 Reference Energy          =    -386.0614651845885987 [Eh]
	 Singles Energy            =      -0.0000000000000000 [Eh]
	 Same-Spin Energy          =      -0.4005960035528495 [Eh]
	 Opposite-Spin Energy      =      -1.3785980798372590 [Eh]
	 Correlation Energy        =      -1.7791940833901085 [Eh]
	 Total Energy              =    -387.8406592679787082 [Eh]

	 ================> DF-SCS-MP2 Energies <==================
	-----------------------------------------------------------
	 SCS Same-Spin Scale       =       0.3333333333333333 [-]
	 SCS Opposite-Spin Scale   =       1.2000000000000000 [-]
	 SCS Same-Spin Energy      =      -0.1335320011842832 [Eh]
	 SCS Opposite-Spin Energy  =      -1.6543176958047108 [Eh]
	 SCS Correlation Energy    =      -1.7878496969889939 [Eh]
	 SCS Total Energy          =    -387.8493148815775839 [Eh]
	-----------------------------------------------------------

  Dipole Moment: [D]
     X:     1.2164      Y:     0.7196      Z:     0.3051     Total:     1.4459

*** Psi4 exiting successfully. Buy a developer a beer!
