                               Psi4 1.3.2 release

  ==> Input File <==

--------------------------------------------------------------------------
#psi4
#
memory 32 gb

molecule  {
0 1
  O        2.6932640    -1.3344870    -0.0264310
  C        2.7508540     0.0254460     0.4069810
  C        1.3540050     0.5859045     0.3974388
  C       -3.5492030     0.3621160    -0.4101590
  C        3.6709050     0.8409920    -0.4958550
  C        0.2704120    -0.1024690    -0.0006590
  C       -2.1631840    -0.2004740    -0.4090490
  C       -1.0635270     0.4697970    -0.0176060
  C       -4.4702810    -0.3835230     0.5583970
  H        3.1361180     0.0688010     1.4404840
  H        1.2655190     1.6118880     0.7253080
  H       -3.5113520     1.4248880    -0.1442750
  H       -3.9713450     0.3050270    -1.4220020
  H        3.3060070     0.7827570    -1.5237190
  H        3.6990520     1.8899320    -0.1870900
  H        4.6948240     0.4527130    -0.4608140
  H        0.3747672    -1.1354941    -0.3245495
  H       -2.0573220    -1.2386810    -0.7303930
  H       -1.1648060     1.5075440     0.3065060
  H       -4.5255200    -1.4457790     0.3033390
  H       -5.4853170     0.0231860     0.5310900
  H       -4.0942820    -0.3029910     1.5815520
  H        3.6028580    -1.6773980    -0.0043180
units angstrom
no_reorient  #important for SAPT in psi4, default
symmetry c1  #important for SAPT in psi4, default
}

set PROPERTIES_ORIGIN ["COM"]
properties('MP2/aug-cc-pvtz', properties = ['dipole'])
--------------------------------------------------------------------------

    Molecular point group: c1
  Charge       = 0
  Multiplicity = 1
  Basis Set: AUG-CC-PVTZ
    Blend: AUG-CC-PVTZ
  Basis Set: (AUG-CC-PVTZ AUX)
    Blend: AUG-CC-PVTZ-JKFIT

    Orbital Energies [Eh]
    ---------------------

    Doubly Occupied:

       1A    -20.558687     2A    -11.286760     3A    -11.225672
       4A    -11.223666     5A    -11.223128     6A    -11.222703
       7A    -11.221783     8A    -11.220327     9A    -11.212723
      10A     -1.360255    11A     -1.097789    12A     -1.060652
      13A     -1.015788    14A     -0.962268    15A     -0.875840
      16A     -0.827949    17A     -0.752425    18A     -0.749685
      19A     -0.694714    20A     -0.637256    21A     -0.627664
      22A     -0.616392    23A     -0.590035    24A     -0.583084
      25A     -0.547169    26A     -0.543993    27A     -0.527075
      28A     -0.518954    29A     -0.501843    30A     -0.491786
      31A     -0.478899    32A     -0.466606    33A     -0.452592
      34A     -0.418448    35A     -0.297518

  @DF-RHF Final Energy:  -386.06260892041996

   => Energetics <=

    Nuclear Repulsion Energy =            417.8882328309770742
    One-Electron Energy =               -1351.7174256719576988
    Two-Electron Energy =                 547.7665839205606062
    Total Energy =                       -386.0626089204199616
  Basis Set: (AUG-CC-PVTZ AUX)
    Blend: AUG-CC-PVTZ-RI
    Molecular point group: c1

    Geometry (in Angstrom), charge = 0, multiplicity = 1:

       Center              X                  Y                   Z               Mass
    ------------   -----------------  -----------------  -----------------  -----------------
         O            2.693973869592    -1.335379877754    -0.026612877120    15.994914619570
         C            2.751563869592     0.024553122246     0.406799122880    12.000000000000
         C            1.354714869592     0.585011622246     0.397256922880    12.000000000000
         C           -3.548493130408     0.361223122246    -0.410340877120    12.000000000000
         C            3.671614869592     0.840099122246    -0.496036877120    12.000000000000
         C            0.271121869592    -0.103361877754    -0.000840877120    12.000000000000
         C           -2.162474130408    -0.201366877754    -0.409230877120    12.000000000000
         C           -1.062817130408     0.468904122246    -0.017787877120    12.000000000000
         C           -4.469571130408    -0.384415877754     0.558215122880    12.000000000000
         H            3.136827869592     0.067908122246     1.440302122880     1.007825032230
         H            1.266228869592     1.610995122246     0.725126122880     1.007825032230
         H           -3.510642130408     1.423995122246    -0.144456877120     1.007825032230
         H           -3.970635130408     0.304134122246    -1.422183877120     1.007825032230
         H            3.306716869592     0.781864122246    -1.523900877120     1.007825032230
         H            3.699761869592     1.889039122246    -0.187271877120     1.007825032230
         H            4.695533869592     0.451820122246    -0.460995877120     1.007825032230
         H            0.375477069592    -1.136386977754    -0.324731377120     1.007825032230
         H           -2.056612130408    -1.239573877754    -0.730574877120     1.007825032230
         H           -1.164096130408     1.506651122246     0.306324122880     1.007825032230
         H           -4.524810130408    -1.446671877754     0.303157122880     1.007825032230
         H           -5.484607130408     0.022293122246     0.530908122880     1.007825032230
         H           -4.093572130408    -0.303883877754     1.581370122880     1.007825032230
         H            3.603567869592    -1.678290877754    -0.004499877120     1.007825032230

  Basis Set: AUG-CC-PVTZ
    Blend: AUG-CC-PVTZ
  Basis Set: (AUG-CC-PVTZ AUX)
    Blend: AUG-CC-PVTZ-JKFIT
	 Reference Energy          =    -386.0626089204199616 [Eh]
	 Singles Energy            =      -0.0000000000000000 [Eh]
	 Same-Spin Energy          =      -0.4002420725721865 [Eh]
	 Opposite-Spin Energy      =      -1.3782171015433753 [Eh]
	 Correlation Energy        =      -1.7784591741155618 [Eh]
	 Total Energy              =    -387.8410680945355011 [Eh]

	 ================> DF-SCS-MP2 Energies <==================
	-----------------------------------------------------------
	 SCS Same-Spin Scale       =       0.3333333333333333 [-]
	 SCS Opposite-Spin Scale   =       1.2000000000000000 [-]
	 SCS Same-Spin Energy      =      -0.1334140241907288 [Eh]
	 SCS Opposite-Spin Energy  =      -1.6538605218520503 [Eh]
	 SCS Correlation Energy    =      -1.7872745460427792 [Eh]
	 SCS Total Energy          =    -387.8498834664627566 [Eh]
	-----------------------------------------------------------

  Dipole Moment: [D]
     X:     1.1995      Y:     0.7328      Z:     0.3112     Total:     1.4396

*** Psi4 exiting successfully. Buy a developer a beer!
