                               Psi4 1.3.2 release

  ==> Input File <==

--------------------------------------------------------------------------
#psi4
#
memory 32 gb

molecule  {
0 1
  O        2.6932640    -1.3344870    -0.0264310
  C        2.7508540     0.0254460     0.4069810
  C        1.3606810     0.5764810     0.3953890
  C       -3.5492030     0.3621160    -0.4101590
  C        3.6709050     0.8409920    -0.4958550
  C        0.2704120    -0.1024690    -0.0006590
  C       -2.1631840    -0.2004740    -0.4090490
  C       -1.0726197     0.4477855    -0.0262477
  C       -4.4702810    -0.3835230     0.5583970
  H        3.1361180     0.0688010     1.4404840
  H        1.2655190     1.6118880     0.7253080
  H       -3.5113520     1.4248880    -0.1442750
  H       -3.9713450     0.3050270    -1.4220020
  H        3.3060070     0.7827570    -1.5237190
  H        3.6990520     1.8899320    -0.1870900
  H        4.6948240     0.4527130    -0.4608140
  H        0.3654106    -1.1359134    -0.3260877
  H       -2.0573220    -1.2386810    -0.7303930
  H       -1.1648060     1.5075440     0.3065060
  H       -4.5255200    -1.4457790     0.3033390
  H       -5.4853170     0.0231860     0.5310900
  H       -4.0942820    -0.3029910     1.5815520
  H        3.6028580    -1.6773980    -0.0043180
units angstrom
no_reorient  #important for SAPT in psi4, default
symmetry c1  #important for SAPT in psi4, default
}

set PROPERTIES_ORIGIN ["COM"]
properties('MP2/aug-cc-pvtz', properties = ['dipole'])
--------------------------------------------------------------------------

    Molecular point group: c1
  Charge       = 0
  Multiplicity = 1
  Basis Set: AUG-CC-PVTZ
    Blend: AUG-CC-PVTZ
  Basis Set: (AUG-CC-PVTZ AUX)
    Blend: AUG-CC-PVTZ-JKFIT

    Orbital Energies [Eh]
    ---------------------

    Doubly Occupied:

       1A    -20.558640     2A    -11.286871     3A    -11.224331
       4A    -11.223639     5A    -11.223142     6A    -11.222491
       7A    -11.221349     8A    -11.220760     9A    -11.212864
      10A     -1.360538    11A     -1.099625    12A     -1.061934
      13A     -1.016499    14A     -0.964596    15A     -0.876835
      16A     -0.829513    17A     -0.752141    18A     -0.746235
      19A     -0.695182    20A     -0.637422    21A     -0.628785
      22A     -0.616649    23A     -0.590995    24A     -0.582690
      25A     -0.546613    26A     -0.543722    27A     -0.526077
      28A     -0.519810    29A     -0.500333    30A     -0.491196
      31A     -0.479106    32A     -0.465436    33A     -0.453108
      34A     -0.420052    35A     -0.300803

  @DF-RHF Final Energy:  -386.06236215566514

   => Energetics <=

    Nuclear Repulsion Energy =            418.1751361493954846
    One-Electron Energy =               -1352.2750311627919473
    Two-Electron Energy =                 548.0375328577313212
    Total Energy =                       -386.0623621556651415
  Basis Set: (AUG-CC-PVTZ AUX)
    Blend: AUG-CC-PVTZ-RI
    Molecular point group: c1

    Geometry (in Angstrom), charge = 0, multiplicity = 1:

       Center              X                  Y                   Z               Mass
    ------------   -----------------  -----------------  -----------------  -----------------
         O            2.694278618640    -1.332385197266    -0.025583189262    15.994914619570
         C            2.751868618640     0.027547802734     0.407828810738    12.000000000000
         C            1.361695618640     0.578582802734     0.396236810738    12.000000000000
         C           -3.548188381360     0.364217802734    -0.409311189262    12.000000000000
         C            3.671919618640     0.843093802734    -0.495007189262    12.000000000000
         C            0.271426618640    -0.100367197266     0.000188810738    12.000000000000
         C           -2.162169381360    -0.198372197266    -0.408201189262    12.000000000000
         C           -1.071605081360     0.449887302734    -0.025399889262    12.000000000000
         C           -4.469266381360    -0.381421197266     0.559244810738    12.000000000000
         H            3.137132618640     0.070902802734     1.441331810738     1.007825032230
         H            1.266533618640     1.613989802734     0.726155810738     1.007825032230
         H           -3.510337381360     1.426989802734    -0.143427189262     1.007825032230
         H           -3.970330381360     0.307128802734    -1.421154189262     1.007825032230
         H            3.307021618640     0.784858802734    -1.522871189262     1.007825032230
         H            3.700066618640     1.892033802734    -0.186242189262     1.007825032230
         H            4.695838618640     0.454814802734    -0.459966189262     1.007825032230
         H            0.366425218640    -1.133811597266    -0.325239889262     1.007825032230
         H           -2.056307381360    -1.236579197266    -0.729545189262     1.007825032230
         H           -1.163791381360     1.509645802734     0.307353810738     1.007825032230
         H           -4.524505381360    -1.443677197266     0.304186810738     1.007825032230
         H           -5.484302381360     0.025287802734     0.531937810738     1.007825032230
         H           -4.093267381360    -0.300889197266     1.582399810738     1.007825032230
         H            3.603872618640    -1.675296197266    -0.003470189262     1.007825032230

  Basis Set: AUG-CC-PVTZ
    Blend: AUG-CC-PVTZ
  Basis Set: (AUG-CC-PVTZ AUX)
    Blend: AUG-CC-PVTZ-JKFIT
	 Reference Energy          =    -386.0623621556651415 [Eh]
	 Singles Energy            =      -0.0000000000000000 [Eh]
	 Same-Spin Energy          =      -0.4001564930375382 [Eh]
	 Opposite-Spin Energy      =      -1.3778998326940368 [Eh]
	 Correlation Energy        =      -1.7780563257315749 [Eh]
	 Total Energy              =    -387.8404184813967390 [Eh]

	 ================> DF-SCS-MP2 Energies <==================
	-----------------------------------------------------------
	 SCS Same-Spin Scale       =       0.3333333333333333 [-]
	 SCS Opposite-Spin Scale   =       1.2000000000000000 [-]
	 SCS Same-Spin Energy      =      -0.1333854976791794 [Eh]
	 SCS Opposite-Spin Energy  =      -1.6534797992328440 [Eh]
	 SCS Correlation Energy    =      -1.7868652969120236 [Eh]
	 SCS Total Energy          =    -387.8492274525771677 [Eh]
	-----------------------------------------------------------

  Dipole Moment: [D]
     X:     1.2086      Y:     0.7194      Z:     0.3066     Total:     1.4395

*** Psi4 exiting successfully. Buy a developer a beer!
