                               Psi4 1.3.2 release

  ==> Input File <==

--------------------------------------------------------------------------
#psi4
#
memory 32 gb

molecule  {
0 1
  O        2.6932640    -1.3344870    -0.0264310
  C        2.7508540     0.0254460     0.4069810
  C        1.3585497     0.5675507     0.3440046
  C       -3.5492030     0.3621160    -0.4101590
  C        3.6709050     0.8409920    -0.4958550
  C        0.2704120    -0.1024690    -0.0006590
  C       -2.1631840    -0.2004740    -0.4090490
  C       -1.0635270     0.4697970    -0.0176060
  C       -4.4702810    -0.3835230     0.5583970
  H        3.1691473     0.0533005     1.4281036
  H        1.2655190     1.6118880     0.7253080
  H       -3.5113520     1.4248880    -0.1442750
  H       -3.9713450     0.3050270    -1.4220020
  H        3.3060070     0.7827570    -1.5237190
  H        3.6990520     1.8899320    -0.1870900
  H        4.6948240     0.4527130    -0.4608140
  H        0.3841050    -1.1350190    -0.3229170
  H       -2.0573220    -1.2386810    -0.7303930
  H       -1.1648060     1.5075440     0.3065060
  H       -4.5255200    -1.4457790     0.3033390
  H       -5.4853170     0.0231860     0.5310900
  H       -4.0942820    -0.3029910     1.5815520
  H        3.6028580    -1.6773980    -0.0043180
units angstrom
no_reorient  #important for SAPT in psi4, default
symmetry c1  #important for SAPT in psi4, default
}

set PROPERTIES_ORIGIN ["COM"]
properties('MP2/aug-cc-pvtz', properties = ['dipole'])
--------------------------------------------------------------------------

    Molecular point group: c1
  Charge       = 0
  Multiplicity = 1
  Basis Set: AUG-CC-PVTZ
    Blend: AUG-CC-PVTZ
  Basis Set: (AUG-CC-PVTZ AUX)
    Blend: AUG-CC-PVTZ-JKFIT

    Orbital Energies [Eh]
    ---------------------

    Doubly Occupied:

       1A    -20.557527     2A    -11.286544     3A    -11.226514
       4A    -11.223673     5A    -11.223453     6A    -11.222385
       7A    -11.219724     8A    -11.219547     9A    -11.213076
      10A     -1.360312    11A     -1.099468    12A     -1.062292
      13A     -1.016769    14A     -0.964146    15A     -0.875568
      16A     -0.829448    17A     -0.753421    18A     -0.744114
      19A     -0.696736    20A     -0.637328    21A     -0.630170
      22A     -0.616355    23A     -0.589756    24A     -0.582765
      25A     -0.544996    26A     -0.542835    27A     -0.526261
      28A     -0.518508    29A     -0.497757    30A     -0.494049
      31A     -0.479515    32A     -0.467529    33A     -0.452022
      34A     -0.420296    35A     -0.300811

  @DF-RHF Final Energy:  -386.06123585035942

   => Energetics <=

    Nuclear Repulsion Energy =            418.3465618075020416
    One-Electron Energy =               -1352.6242531814191352
    Two-Electron Energy =                 548.2164555235577836
    Total Energy =                       -386.0612358503593669
  Basis Set: (AUG-CC-PVTZ AUX)
    Blend: AUG-CC-PVTZ-RI
    Molecular point group: c1

    Geometry (in Angstrom), charge = 0, multiplicity = 1:

       Center              X                  Y                   Z               Mass
    ------------   -----------------  -----------------  -----------------  -----------------
         O            2.693202802335    -1.333513262055    -0.021442224341    15.994914619570
         C            2.750792802335     0.026419737945     0.411969775659    12.000000000000
         C            1.358488502335     0.568524437945     0.348993375659    12.000000000000
         C           -3.549264197665     0.363089737945    -0.405170224341    12.000000000000
         C            3.670843802335     0.841965737945    -0.490866224341    12.000000000000
         C            0.270350802335    -0.101495262055     0.004329775659    12.000000000000
         C           -2.163245197665    -0.199500262055    -0.404060224341    12.000000000000
         C           -1.063588197665     0.470770737945    -0.012617224341    12.000000000000
         C           -4.470342197665    -0.382549262055     0.563385775659    12.000000000000
         H            3.169086102335     0.054274237945     1.433092375659     1.007825032230
         H            1.265457802335     1.612861737945     0.730296775659     1.007825032230
         H           -3.511413197665     1.425861737945    -0.139286224341     1.007825032230
         H           -3.971406197665     0.306000737945    -1.417013224341     1.007825032230
         H            3.305945802335     0.783730737945    -1.518730224341     1.007825032230
         H            3.698990802335     1.890905737945    -0.182101224341     1.007825032230
         H            4.694762802335     0.453686737945    -0.455825224341     1.007825032230
         H            0.384043802335    -1.134045262055    -0.317928224341     1.007825032230
         H           -2.057383197665    -1.237707262055    -0.725404224341     1.007825032230
         H           -1.164867197665     1.508517737945     0.311494775659     1.007825032230
         H           -4.525581197665    -1.444805262055     0.308327775659     1.007825032230
         H           -5.485378197665     0.024159737945     0.536078775659     1.007825032230
         H           -4.094343197665    -0.302017262055     1.586540775659     1.007825032230
         H            3.602796802335    -1.676424262055     0.000670775659     1.007825032230

  Basis Set: AUG-CC-PVTZ
    Blend: AUG-CC-PVTZ
  Basis Set: (AUG-CC-PVTZ AUX)
    Blend: AUG-CC-PVTZ-JKFIT
	 Reference Energy          =    -386.0612358503594237 [Eh]
	 Singles Energy            =      -0.0000000000000000 [Eh]
	 Same-Spin Energy          =      -0.4002370243517093 [Eh]
	 Opposite-Spin Energy      =      -1.3781120208720283 [Eh]
	 Correlation Energy        =      -1.7783490452237376 [Eh]
	 Total Energy              =    -387.8395848955831866 [Eh]

	 ================> DF-SCS-MP2 Energies <==================
	-----------------------------------------------------------
	 SCS Same-Spin Scale       =       0.3333333333333333 [-]
	 SCS Opposite-Spin Scale   =       1.2000000000000000 [-]
	 SCS Same-Spin Energy      =      -0.1334123414505697 [Eh]
	 SCS Opposite-Spin Energy  =      -1.6537344250464339 [Eh]
	 SCS Correlation Energy    =      -1.7871467664970035 [Eh]
	 SCS Total Energy          =    -387.8483826168564406 [Eh]
	-----------------------------------------------------------

  Dipole Moment: [D]
     X:     1.1648      Y:     0.6978      Z:     0.3462     Total:     1.4012

*** Psi4 exiting successfully. Buy a developer a beer!
