                               Psi4 1.3.2 release

  ==> Input File <==

--------------------------------------------------------------------------
#psi4
#
memory 32 gb

molecule  {
0 1
  O        2.6932640    -1.3344870    -0.0264310
  C        2.7508540     0.0254460     0.4069810
  C        1.3606810     0.5764810     0.3953890
  C       -3.5667131     0.3165182    -0.4286077
  C        3.6709050     0.8409920    -0.4958550
  C        0.2704120    -0.1024690    -0.0006590
  C       -2.1631840    -0.2004740    -0.4090490
  C       -1.0378444     0.4316632    -0.0272773
  C       -4.4702810    -0.3835230     0.5583970
  H        3.1361180     0.0688010     1.4404840
  H        1.2655190     1.6118880     0.7253080
  H       -3.5113520     1.4248880    -0.1442750
  H       -3.9713450     0.3050270    -1.4220020
  H        3.3060070     0.7827570    -1.5237190
  H        3.6990520     1.8899320    -0.1870900
  H        4.6948240     0.4527130    -0.4608140
  H        0.3841050    -1.1350190    -0.3229170
  H       -2.0573220    -1.2386810    -0.7303930
  H       -1.1648060     1.5075440     0.3065060
  H       -4.5255200    -1.4457790     0.3033390
  H       -5.4853170     0.0231860     0.5310900
  H       -4.0942820    -0.3029910     1.5815520
  H        3.6028580    -1.6773980    -0.0043180
units angstrom
no_reorient  #important for SAPT in psi4, default
symmetry c1  #important for SAPT in psi4, default
}

set PROPERTIES_ORIGIN ["COM"]
properties('MP2/aug-cc-pvtz', properties = ['dipole'])
--------------------------------------------------------------------------

    Molecular point group: c1
  Charge       = 0
  Multiplicity = 1
  Basis Set: AUG-CC-PVTZ
    Blend: AUG-CC-PVTZ
  Basis Set: (AUG-CC-PVTZ AUX)
    Blend: AUG-CC-PVTZ-JKFIT

    Orbital Energies [Eh]
    ---------------------

    Doubly Occupied:

       1A    -20.559219     2A    -11.287435     3A    -11.226615
       4A    -11.225792     5A    -11.224980     6A    -11.224774
       7A    -11.221223     8A    -11.220666     9A    -11.212791
      10A     -1.361178    11A     -1.101280    12A     -1.063080
      13A     -1.020546    14A     -0.964042    15A     -0.880111
      16A     -0.829345    17A     -0.753855    18A     -0.744122
      19A     -0.695245    20A     -0.637254    21A     -0.632212
      22A     -0.616723    23A     -0.593728    24A     -0.582277
      25A     -0.547062    26A     -0.544843    27A     -0.527674
      28A     -0.523519    29A     -0.501546    30A     -0.488474
      31A     -0.474599    32A     -0.460191    33A     -0.454307
      34A     -0.424279    35A     -0.296398

  @DF-RHF Final Energy:  -386.05540398930145

   => Energetics <=

    Nuclear Repulsion Energy =            418.3908022092692249
    One-Electron Energy =               -1352.6496460157179627
    Two-Electron Energy =                 548.2034398171473413
    Total Energy =                       -386.0554039893014533
  Basis Set: (AUG-CC-PVTZ AUX)
    Blend: AUG-CC-PVTZ-RI
    Molecular point group: c1

    Geometry (in Angstrom), charge = 0, multiplicity = 1:

       Center              X                  Y                   Z               Mass
    ------------   -----------------  -----------------  -----------------  -----------------
         O            2.692486270651    -1.326519109964    -0.023754990007    15.994914619570
         C            2.750076270651     0.033413890036     0.409657009993    12.000000000000
         C            1.359903270651     0.584448890036     0.398065009993    12.000000000000
         C           -3.567490829349     0.324486090036    -0.425931690007    12.000000000000
         C            3.670127270651     0.848959890036    -0.493178990007    12.000000000000
         C            0.269634270651    -0.094501109964     0.002017009993    12.000000000000
         C           -2.163961729349    -0.192506109964    -0.406372990007    12.000000000000
         C           -1.038622129349     0.439631090036    -0.024601290007    12.000000000000
         C           -4.471058729349    -0.375555109964     0.561073009993    12.000000000000
         H            3.135340270651     0.076768890036     1.443160009993     1.007825032230
         H            1.264741270651     1.619855890036     0.727984009993     1.007825032230
         H           -3.512129729349     1.432855890036    -0.141598990007     1.007825032230
         H           -3.972122729349     0.312994890036    -1.419325990007     1.007825032230
         H            3.305229270651     0.790724890036    -1.521042990007     1.007825032230
         H            3.698274270651     1.897899890036    -0.184413990007     1.007825032230
         H            4.694046270651     0.460680890036    -0.458137990007     1.007825032230
         H            0.383327270651    -1.127051109964    -0.320240990007     1.007825032230
         H           -2.058099729349    -1.230713109964    -0.727716990007     1.007825032230
         H           -1.165583729349     1.515511890036     0.309182009993     1.007825032230
         H           -4.526297729349    -1.437811109964     0.306015009993     1.007825032230
         H           -5.486094729349     0.031153890036     0.533766009993     1.007825032230
         H           -4.095059729349    -0.295023109964     1.584228009993     1.007825032230
         H            3.602080270651    -1.669430109964    -0.001641990007     1.007825032230

  Basis Set: AUG-CC-PVTZ
    Blend: AUG-CC-PVTZ
  Basis Set: (AUG-CC-PVTZ AUX)
    Blend: AUG-CC-PVTZ-JKFIT
	 Reference Energy          =    -386.0554039893014533 [Eh]
	 Singles Energy            =      -0.0000000000000000 [Eh]
	 Same-Spin Energy          =      -0.4011870807036445 [Eh]
	 Opposite-Spin Energy      =      -1.3794733088034079 [Eh]
	 Correlation Energy        =      -1.7806603895070525 [Eh]
	 Total Energy              =    -387.8360643788084872 [Eh]

	 ================> DF-SCS-MP2 Energies <==================
	-----------------------------------------------------------
	 SCS Same-Spin Scale       =       0.3333333333333333 [-]
	 SCS Opposite-Spin Scale   =       1.2000000000000000 [-]
	 SCS Same-Spin Energy      =      -0.1337290269012148 [Eh]
	 SCS Opposite-Spin Energy  =      -1.6553679705640894 [Eh]
	 SCS Correlation Energy    =      -1.7890969974653042 [Eh]
	 SCS Total Energy          =    -387.8445009867667750 [Eh]
	-----------------------------------------------------------

  Dipole Moment: [D]
     X:     1.2487      Y:     0.6871      Z:     0.3063     Total:     1.4577

*** Psi4 exiting successfully. Buy a developer a beer!
