                               Psi4 1.4a3.dev225

  ==> Input File <==

--------------------------------------------------------------------------
#psi4
#
memory 32 gb

molecule  {
0 1
  O       -2.7161510     1.3794200    -0.1343610
  C       -2.7832390     0.0721360     0.4401970
  C       -1.3979030    -0.4954620     0.4743180
  C        3.5083460    -0.4405980    -0.4123350
  C       -3.7239960    -0.8239440    -0.3625680
  C       -0.3030690     0.1219220    -0.0067100
  C        2.1282810     0.1394430    -0.4544070
  C        1.0245920    -0.4684390     0.0236420
  C        4.4606410     0.4027870     0.4416180
  H       -3.1581590     0.1412460     1.4762970
  H       -1.3112260    -1.4900120     0.9147240
  H        3.4619600    -1.4629760    -0.0187660
  H        3.9104550    -0.5133060    -1.4317100
  H       -3.3684670    -0.8811940    -1.3941910
  H       -3.7626400    -1.8335820     0.0574350
  H       -4.7426360    -0.4191700    -0.3608330
  H       -0.4078810     1.1149080    -0.4388390
  H        2.0311270     1.1370710    -0.8883280
  H        1.1170930    -1.4649260     0.4609700
  H        4.5263310     1.4251690     0.0574090
  H        5.4690900    -0.0219830     0.4454750
  H        4.1044230     0.4539160     1.4740500
  H       -3.6035479     1.7251586    -0.1411906
units angstrom
no_reorient  #important for SAPT in psi4, default
symmetry c1  #important for SAPT in psi4, default
}

set PROPERTIES_ORIGIN ["COM"]
properties('MP2/aug-cc-pvtz', properties = ['dipole'])
--------------------------------------------------------------------------

    Molecular point group: c1
  Charge       = 0
  Multiplicity = 1
  Basis Set: AUG-CC-PVTZ
    Blend: AUG-CC-PVTZ
  Basis Set: (AUG-CC-PVTZ AUX)
    Blend: AUG-CC-PVTZ-JKFIT

    Orbital Energies [Eh]
    ---------------------

    Doubly Occupied:

       1A    -20.556946     2A    -11.287239     3A    -11.226562
       4A    -11.224361     5A    -11.223812     6A    -11.223626
       7A    -11.222501     8A    -11.221074     9A    -11.213168
      10A     -1.364578    11A     -1.097283    12A     -1.061174
      13A     -1.015983    14A     -0.962131    15A     -0.876794
      16A     -0.828900    17A     -0.752597    18A     -0.749131
      19A     -0.696991    20A     -0.637248    21A     -0.627450
      22A     -0.617464    23A     -0.589938    24A     -0.583076
      25A     -0.546945    26A     -0.543733    27A     -0.527622
      28A     -0.518357    29A     -0.500852    30A     -0.492948
      31A     -0.479370    32A     -0.468001    33A     -0.453328
      34A     -0.417968    35A     -0.297382

  @DF-RHF Final Energy:  -386.06326700069064

   => Energetics <=

    Nuclear Repulsion Energy =            417.6286713690606121
    One-Electron Energy =               -1351.1708061834588079
    Two-Electron Energy =                 547.4788678137075522
    Total Energy =                       -386.0632670006906437
  Basis Set: (AUG-CC-PVTZ AUX)
    Blend: AUG-CC-PVTZ-RI
    Molecular point group: c1

    Geometry (in Angstrom), charge = 0, multiplicity = 1:

       Center              X                  Y                   Z               Mass
    ------------   -----------------  -----------------  -----------------  -----------------
         O           -2.682992267210     1.363149260444    -0.132696764836    15.994914619570
         C           -2.750080267210     0.055865260444     0.441861235164    12.000000000000
         C           -1.364744267210    -0.511732739556     0.475982235164    12.000000000000
         C            3.541504732790    -0.456868739556    -0.410670764836    12.000000000000
         C           -3.690837267210    -0.840214739556    -0.360903764836    12.000000000000
         C           -0.269910267210     0.105651260444    -0.005045764836    12.000000000000
         C            2.161439732790     0.123172260444    -0.452742764836    12.000000000000
         C            1.057750732790    -0.484709739556     0.025306235164    12.000000000000
         C            4.493799732790     0.386516260444     0.443282235164    12.000000000000
         H           -3.125000267210     0.124975260444     1.477961235164     1.007825032230
         H           -1.278067267210    -1.506282739556     0.916388235164     1.007825032230
         H            3.495118732790    -1.479246739556    -0.017101764836     1.007825032230
         H            3.943613732790    -0.529576739556    -1.430045764836     1.007825032230
         H           -3.335308267210    -0.897464739556    -1.392526764836     1.007825032230
         H           -3.729481267210    -1.849852739556     0.059099235164     1.007825032230
         H           -4.709477267210    -0.435440739556    -0.359168764836     1.007825032230
         H           -0.374722267210     1.098637260444    -0.437174764836     1.007825032230
         H            2.064285732790     1.120800260444    -0.886663764836     1.007825032230
         H            1.150251732790    -1.481196739556     0.462634235164     1.007825032230
         H            4.559489732790     1.408898260444     0.059073235164     1.007825032230
         H            5.502248732790    -0.038253739556     0.447139235164     1.007825032230
         H            4.137581732790     0.437645260444     1.475714235164     1.007825032230
         H           -3.570389167210     1.708887860444    -0.139526364836     1.007825032230

  Basis Set: AUG-CC-PVTZ
    Blend: AUG-CC-PVTZ
  Basis Set: (AUG-CC-PVTZ AUX)
    Blend: AUG-CC-PVTZ-JKFIT
	 Reference Energy          =    -386.0632670006906437 [Eh]
	 Singles Energy            =      -0.0000000000000000 [Eh]
	 Same-Spin Energy          =      -0.4000296446222409 [Eh]
	 Opposite-Spin Energy      =      -1.3777864783454237 [Eh]
	 Correlation Energy        =      -1.7778161229676646 [Eh]
	 Total Energy              =    -387.8410831236583363 [Eh]

	 ================> DF-SCS-MP2 Energies <==================
	-----------------------------------------------------------
	 SCS Same-Spin Scale       =       0.3333333333333333 [-]
	 SCS Opposite-Spin Scale   =       1.2000000000000000 [-]
	 SCS Same-Spin Energy      =      -0.1333432148740803 [Eh]
	 SCS Opposite-Spin Energy  =      -1.6533437740145083 [Eh]
	 SCS Correlation Energy    =      -1.7866869888885886 [Eh]
	 SCS Total Energy          =    -387.8499539895792054 [Eh]
	-----------------------------------------------------------

  Dipole Moment: [D]
     X:    -1.1973      Y:    -0.6954      Z:     0.3921     Total:     1.4391

*** Psi4 exiting successfully. Buy a developer a beer!
