                               Psi4 1.3.2 release

  ==> Input File <==

--------------------------------------------------------------------------
#psi4
#
memory 32 gb

molecule  {
0 1
  O        2.6932640    -1.3344870    -0.0264310
  C        2.7508540     0.0254460     0.4069810
  C        1.3606810     0.5764810     0.3953890
  C       -3.5492030     0.3621160    -0.4101590
  C        3.6709050     0.8409920    -0.4958550
  C        0.2704120    -0.1024690    -0.0006590
  C       -2.1631840    -0.2004740    -0.4090490
  C       -1.0257738     0.4117233    -0.0305668
  C       -4.4702810    -0.3835230     0.5583970
  H        3.1361180     0.0688010     1.4404840
  H        1.2655190     1.6118880     0.7253080
  H       -3.5113520     1.4248880    -0.1442750
  H       -3.9713450     0.3050270    -1.4220020
  H        3.3060070     0.7827570    -1.5237190
  H        3.6990520     1.8899320    -0.1870900
  H        4.6948240     0.4527130    -0.4608140
  H        0.3841050    -1.1350190    -0.3229170
  H       -2.0012218    -1.2345393    -0.7202077
  H       -1.1648060     1.5075440     0.3065060
  H       -4.5255200    -1.4457790     0.3033390
  H       -5.4853170     0.0231860     0.5310900
  H       -4.0942820    -0.3029910     1.5815520
  H        3.6028580    -1.6773980    -0.0043180
units angstrom
no_reorient  #important for SAPT in psi4, default
symmetry c1  #important for SAPT in psi4, default
}

set PROPERTIES_ORIGIN ["COM"]
properties('MP2/aug-cc-pvtz', properties = ['dipole'])
--------------------------------------------------------------------------

    Molecular point group: c1
  Charge       = 0
  Multiplicity = 1
  Basis Set: AUG-CC-PVTZ
    Blend: AUG-CC-PVTZ
  Basis Set: (AUG-CC-PVTZ AUX)
    Blend: AUG-CC-PVTZ-JKFIT

    Orbital Energies [Eh]
    ---------------------

    Doubly Occupied:

       1A    -20.559247     2A    -11.287529     3A    -11.226597
       4A    -11.225833     5A    -11.225265     6A    -11.223650
       7A    -11.221272     8A    -11.219194     9A    -11.213671
      10A     -1.361219    11A     -1.103047    12A     -1.062138
      13A     -1.020499    14A     -0.963349    15A     -0.881066
      16A     -0.830234    17A     -0.756345    18A     -0.742429
      19A     -0.694615    20A     -0.637401    21A     -0.631962
      22A     -0.616778    23A     -0.592304    24A     -0.584051
      25A     -0.547066    26A     -0.543414    27A     -0.522551
      28A     -0.519930    29A     -0.499967    30A     -0.488774
      31A     -0.478404    32A     -0.467523    33A     -0.454506
      34A     -0.425354    35A     -0.294235

  @DF-RHF Final Energy:  -386.05430402893171

   => Energetics <=

    Nuclear Repulsion Energy =            418.6065359734772642
    One-Electron Energy =               -1353.0788388842656786
    Two-Electron Energy =                 548.4179988818566471
    Total Energy =                       -386.0543040289317105
  Basis Set: (AUG-CC-PVTZ AUX)
    Blend: AUG-CC-PVTZ-RI
    Molecular point group: c1

    Geometry (in Angstrom), charge = 0, multiplicity = 1:

       Center              X                  Y                   Z               Mass
    ------------   -----------------  -----------------  -----------------  -----------------
         O            2.689223042933    -1.328993795604    -0.025278928118    15.994914619570
         C            2.746813042933     0.030939204396     0.408133071882    12.000000000000
         C            1.356640042933     0.581974204396     0.396541071882    12.000000000000
         C           -3.553243957067     0.367609204396    -0.409006928118    12.000000000000
         C            3.666864042933     0.846485204396    -0.494702928118    12.000000000000
         C            0.266371042933    -0.096975795604     0.000493071882    12.000000000000
         C           -2.167224957067    -0.194980795604    -0.407896928118    12.000000000000
         C           -1.029814757067     0.417216504396    -0.029414728118    12.000000000000
         C           -4.474321957067    -0.378029795604     0.559549071882    12.000000000000
         H            3.132077042933     0.074294204396     1.441636071882     1.007825032230
         H            1.261478042933     1.617381204396     0.726460071882     1.007825032230
         H           -3.515392957067     1.430381204396    -0.143122928118     1.007825032230
         H           -3.975385957067     0.310520204396    -1.420849928118     1.007825032230
         H            3.301966042933     0.788250204396    -1.522566928118     1.007825032230
         H            3.695011042933     1.895425204396    -0.185937928118     1.007825032230
         H            4.690783042933     0.458206204396    -0.459661928118     1.007825032230
         H            0.380064042933    -1.129525795604    -0.321764928118     1.007825032230
         H           -2.005262757067    -1.229046095604    -0.719055628118     1.007825032230
         H           -1.168846957067     1.513037204396     0.307658071882     1.007825032230
         H           -4.529560957067    -1.440285795604     0.304491071882     1.007825032230
         H           -5.489357957067     0.028679204396     0.532242071882     1.007825032230
         H           -4.098322957067    -0.297497795604     1.582704071882     1.007825032230
         H            3.598817042933    -1.671904795604    -0.003165928118     1.007825032230

  Basis Set: AUG-CC-PVTZ
    Blend: AUG-CC-PVTZ
  Basis Set: (AUG-CC-PVTZ AUX)
    Blend: AUG-CC-PVTZ-JKFIT
	 Reference Energy          =    -386.0543040289317105 [Eh]
	 Singles Energy            =      -0.0000000000000000 [Eh]
	 Same-Spin Energy          =      -0.4015000783435375 [Eh]
	 Opposite-Spin Energy      =      -1.3797018052483074 [Eh]
	 Correlation Energy        =      -1.7812018835918448 [Eh]
	 Total Energy              =    -387.8355059125235584 [Eh]

	 ================> DF-SCS-MP2 Energies <==================
	-----------------------------------------------------------
	 SCS Same-Spin Scale       =       0.3333333333333333 [-]
	 SCS Opposite-Spin Scale   =       1.2000000000000000 [-]
	 SCS Same-Spin Energy      =      -0.1338333594478458 [Eh]
	 SCS Opposite-Spin Energy  =      -1.6556421662979688 [Eh]
	 SCS Correlation Energy    =      -1.7894755257458146 [Eh]
	 SCS Total Energy          =    -387.8437795546775533 [Eh]
	-----------------------------------------------------------

  Dipole Moment: [D]
     X:     1.2378      Y:     0.7028      Z:     0.3111     Total:     1.4570

*** Psi4 exiting successfully. Buy a developer a beer!
