                               Psi4 1.4a3.dev225

  ==> Input File <==

--------------------------------------------------------------------------
#psi4
#
memory 32 gb

molecule  {
0 1
  O       -2.7161510     1.3794200    -0.1343610
  C       -2.7832390     0.0721360     0.4401970
  C       -1.3979030    -0.4954620     0.4743180
  C        3.5083460    -0.4405980    -0.4123350
  C       -3.7239960    -0.8239440    -0.3625680
  C       -0.3030690     0.1219220    -0.0067100
  C        2.1282810     0.1394430    -0.4544070
  C        1.0245920    -0.4684390     0.0236420
  C        4.4606410     0.4027870     0.4416180
  H       -3.1649509     0.1424980     1.4950667
  H       -1.3112260    -1.4900120     0.9147240
  H        3.4619600    -1.4629760    -0.0187660
  H        3.9104550    -0.5133060    -1.4317100
  H       -3.3684670    -0.8811940    -1.3941910
  H       -3.7626400    -1.8335820     0.0574350
  H       -4.7426360    -0.4191700    -0.3608330
  H       -0.4078810     1.1149080    -0.4388390
  H        2.0311270     1.1370710    -0.8883280
  H        1.1170930    -1.4649260     0.4609700
  H        4.5263310     1.4251690     0.0574090
  H        5.4690900    -0.0219830     0.4454750
  H        4.1044230     0.4539160     1.4740500
  H       -3.6221830     1.7324190    -0.1413340
units angstrom
no_reorient  #important for SAPT in psi4, default
symmetry c1  #important for SAPT in psi4, default
}

set PROPERTIES_ORIGIN ["COM"]
properties('MP2/aug-cc-pvtz', properties = ['dipole'])
--------------------------------------------------------------------------

    Molecular point group: c1
  Charge       = 0
  Multiplicity = 1
  Basis Set: AUG-CC-PVTZ
    Blend: AUG-CC-PVTZ
  Basis Set: (AUG-CC-PVTZ AUX)
    Blend: AUG-CC-PVTZ-JKFIT

    Orbital Energies [Eh]
    ---------------------

    Doubly Occupied:

       1A    -20.559208     2A    -11.289535     3A    -11.226613
       4A    -11.224457     5A    -11.223869     6A    -11.223673
       7A    -11.222612     8A    -11.221170     9A    -11.213186
      10A     -1.360354    11A     -1.097138    12A     -1.060481
      13A     -1.015370    14A     -0.962146    15A     -0.876089
      16A     -0.827661    17A     -0.751989    18A     -0.747912
      19A     -0.693087    20A     -0.637013    21A     -0.627106
      22A     -0.616376    23A     -0.589858    24A     -0.582858
      25A     -0.546480    26A     -0.543684    27A     -0.527439
      28A     -0.518313    29A     -0.500848    30A     -0.492046
      31A     -0.479325    32A     -0.467853    33A     -0.452249
      34A     -0.417699    35A     -0.297343

  @DF-RHF Final Energy:  -386.06176481270722

   => Energetics <=

    Nuclear Repulsion Energy =            417.3996425973461442
    One-Electron Energy =               -1350.7367316468425997
    Two-Electron Energy =                 547.2753242367891744
    Total Energy =                       -386.0617648127072243
  Basis Set: (AUG-CC-PVTZ AUX)
    Blend: AUG-CC-PVTZ-RI
    Molecular point group: c1

    Geometry (in Angstrom), charge = 0, multiplicity = 1:

       Center              X                  Y                   Z               Mass
    ------------   -----------------  -----------------  -----------------  -----------------
         O           -2.682789054999     1.363081229468    -0.132845625952    15.994914619570
         C           -2.749877054999     0.055797229468     0.441712374048    12.000000000000
         C           -1.364541054999    -0.511800770532     0.475833374048    12.000000000000
         C            3.541707945001    -0.456936770532    -0.410819625952    12.000000000000
         C           -3.690634054999    -0.840282770532    -0.361052625952    12.000000000000
         C           -0.269707054999     0.105583229468    -0.005194625952    12.000000000000
         C            2.161642945001     0.123104229468    -0.452891625952    12.000000000000
         C            1.057953945001    -0.484777770532     0.025157374048    12.000000000000
         C            4.494002945001     0.386448229468     0.443133374048    12.000000000000
         H           -3.131588954999     0.126159229468     1.496582074048     1.007825032230
         H           -1.277864054999    -1.506350770532     0.916239374048     1.007825032230
         H            3.495321945001    -1.479314770532    -0.017250625952     1.007825032230
         H            3.943816945001    -0.529644770532    -1.430194625952     1.007825032230
         H           -3.335105054999    -0.897532770532    -1.392675625952     1.007825032230
         H           -3.729278054999    -1.849920770532     0.058950374048     1.007825032230
         H           -4.709274054999    -0.435508770532    -0.359317625952     1.007825032230
         H           -0.374519054999     1.098569229468    -0.437323625952     1.007825032230
         H            2.064488945001     1.120732229468    -0.886812625952     1.007825032230
         H            1.150454945001    -1.481264770532     0.462485374048     1.007825032230
         H            4.559692945001     1.408830229468     0.058924374048     1.007825032230
         H            5.502451945001    -0.038321770532     0.446990374048     1.007825032230
         H            4.137784945001     0.437577229468     1.475565374048     1.007825032230
         H           -3.588821054999     1.716080229468    -0.139818625952     1.007825032230

  Basis Set: AUG-CC-PVTZ
    Blend: AUG-CC-PVTZ
  Basis Set: (AUG-CC-PVTZ AUX)
    Blend: AUG-CC-PVTZ-JKFIT
	 Reference Energy          =    -386.0617648127072243 [Eh]
	 Singles Energy            =      -0.0000000000000000 [Eh]
	 Same-Spin Energy          =      -0.4002981061543091 [Eh]
	 Opposite-Spin Energy      =      -1.3785645864920171 [Eh]
	 Correlation Energy        =      -1.7788626926463262 [Eh]
	 Total Energy              =    -387.8406275053535524 [Eh]

	 ================> DF-SCS-MP2 Energies <==================
	-----------------------------------------------------------
	 SCS Same-Spin Scale       =       0.3333333333333333 [-]
	 SCS Opposite-Spin Scale   =       1.2000000000000000 [-]
	 SCS Same-Spin Energy      =      -0.1334327020514364 [Eh]
	 SCS Opposite-Spin Energy  =      -1.6542775037904205 [Eh]
	 SCS Correlation Energy    =      -1.7877102058418568 [Eh]
	 SCS Total Energy          =    -387.8494750185490716 [Eh]
	-----------------------------------------------------------

  Dipole Moment: [D]
     X:    -1.1994      Y:    -0.6830      Z:     0.3743     Total:     1.4301

*** Psi4 exiting successfully. Buy a developer a beer!
