                               Psi4 1.3.2 release

  ==> Input File <==

--------------------------------------------------------------------------
#psi4
#
memory 32 gb

molecule  {
0 1
  O        2.6932640    -1.3344870    -0.0264310
  C        2.7508540     0.0254460     0.4069810
  C        1.3606810     0.5764810     0.3953890
  C       -3.5492030     0.3621160    -0.4101590
  C        3.6709050     0.8409920    -0.4958550
  C        0.2795109    -0.0804441     0.0079420
  C       -2.1631840    -0.2004740    -0.4090490
  C       -1.0635270     0.4697970    -0.0176060
  C       -4.4702810    -0.3835230     0.5583970
  H        3.1361180     0.0688010     1.4404840
  H        1.2655190     1.6118880     0.7253080
  H       -3.5113520     1.4248880    -0.1442750
  H       -3.9713450     0.3050270    -1.4220020
  H        3.3060070     0.7827570    -1.5237190
  H        3.6990520     1.8899320    -0.1870900
  H        4.6948240     0.4527130    -0.4608140
  H        0.3841050    -1.1350190    -0.3229170
  H       -2.0573220    -1.2386810    -0.7303930
  H       -1.1460161     1.5082338     0.3096085
  H       -4.5255200    -1.4457790     0.3033390
  H       -5.4853170     0.0231860     0.5310900
  H       -4.0942820    -0.3029910     1.5815520
  H        3.6028580    -1.6773980    -0.0043180
units angstrom
no_reorient  #important for SAPT in psi4, default
symmetry c1  #important for SAPT in psi4, default
}

set PROPERTIES_ORIGIN ["COM"]
properties('MP2/aug-cc-pvtz', properties = ['dipole'])
--------------------------------------------------------------------------

    Molecular point group: c1
  Charge       = 0
  Multiplicity = 1
  Basis Set: AUG-CC-PVTZ
    Blend: AUG-CC-PVTZ
  Basis Set: (AUG-CC-PVTZ AUX)
    Blend: AUG-CC-PVTZ-JKFIT

    Orbital Energies [Eh]
    ---------------------

    Doubly Occupied:

       1A    -20.558597     2A    -11.286752     3A    -11.226779
       4A    -11.223546     5A    -11.223343     6A    -11.221365
       7A    -11.220665     8A    -11.219262     9A    -11.212933
      10A     -1.360534    11A     -1.098963    12A     -1.062871
      13A     -1.016261    14A     -0.964289    15A     -0.876642
      16A     -0.829529    17A     -0.753834    18A     -0.744719
      19A     -0.694779    20A     -0.637194    21A     -0.629343
      22A     -0.616947    23A     -0.590633    24A     -0.583115
      25A     -0.546241    26A     -0.543814    27A     -0.527800
      28A     -0.518817    29A     -0.497288    30A     -0.491977
      31A     -0.479360    32A     -0.465821    33A     -0.453491
      34A     -0.419814    35A     -0.300677

  @DF-RHF Final Energy:  -386.06234245420188

   => Energetics <=

    Nuclear Repulsion Energy =            418.1878061508483029
    One-Electron Energy =               -1352.3043106156962949
    Two-Electron Energy =                 548.0541620106461096
    Total Energy =                       -386.0623424542019393
  Basis Set: (AUG-CC-PVTZ AUX)
    Blend: AUG-CC-PVTZ-RI
    Molecular point group: c1

    Geometry (in Angstrom), charge = 0, multiplicity = 1:

       Center              X                  Y                   Z               Mass
    ------------   -----------------  -----------------  -----------------  -----------------
         O            2.692247946564    -1.336588326759    -0.027274126121    15.994914619570
         C            2.749837946564     0.023344673241     0.406137873879    12.000000000000
         C            1.359664946564     0.574379673241     0.394545873879    12.000000000000
         C           -3.550219053436     0.360014673241    -0.411002126121    12.000000000000
         C            3.669888946564     0.838890673241    -0.496698126121    12.000000000000
         C            0.278494846564    -0.082545426759     0.007098873879    12.000000000000
         C           -2.164200053436    -0.202575326759    -0.409892126121    12.000000000000
         C           -1.064543053436     0.467695673241    -0.018449126121    12.000000000000
         C           -4.471297053436    -0.385624326759     0.557553873879    12.000000000000
         H            3.135101946564     0.066699673241     1.439640873879     1.007825032230
         H            1.264502946564     1.609786673241     0.724464873879     1.007825032230
         H           -3.512368053436     1.422786673241    -0.145118126121     1.007825032230
         H           -3.972361053436     0.302925673241    -1.422845126121     1.007825032230
         H            3.304990946564     0.780655673241    -1.524562126121     1.007825032230
         H            3.698035946564     1.887830673241    -0.187933126121     1.007825032230
         H            4.693807946564     0.450611673241    -0.461657126121     1.007825032230
         H            0.383088946564    -1.137120326759    -0.323760126121     1.007825032230
         H           -2.058338053436    -1.240782326759    -0.731236126121     1.007825032230
         H           -1.147032153436     1.506132473241     0.308765373879     1.007825032230
         H           -4.526536053436    -1.447880326759     0.302495873879     1.007825032230
         H           -5.486333053436     0.021084673241     0.530246873879     1.007825032230
         H           -4.095298053436    -0.305092326759     1.580708873879     1.007825032230
         H            3.601841946564    -1.679499326759    -0.005161126121     1.007825032230

  Basis Set: AUG-CC-PVTZ
    Blend: AUG-CC-PVTZ
  Basis Set: (AUG-CC-PVTZ AUX)
    Blend: AUG-CC-PVTZ-JKFIT
	 Reference Energy          =    -386.0623424542018824 [Eh]
	 Singles Energy            =      -0.0000000000000000 [Eh]
	 Same-Spin Energy          =      -0.4001747274834798 [Eh]
	 Opposite-Spin Energy      =      -1.3778915234282598 [Eh]
	 Correlation Energy        =      -1.7780662509117395 [Eh]
	 Total Energy              =    -387.8404087051136457 [Eh]

	 ================> DF-SCS-MP2 Energies <==================
	-----------------------------------------------------------
	 SCS Same-Spin Scale       =       0.3333333333333333 [-]
	 SCS Opposite-Spin Scale   =       1.2000000000000000 [-]
	 SCS Same-Spin Energy      =      -0.1333915758278266 [Eh]
	 SCS Opposite-Spin Energy  =      -1.6534698281139117 [Eh]
	 SCS Correlation Energy    =      -1.7868614039417383 [Eh]
	 SCS Total Energy          =    -387.8492038581435963 [Eh]
	-----------------------------------------------------------

  Dipole Moment: [D]
     X:     1.2023      Y:     0.7306      Z:     0.3096     Total:     1.4406

*** Psi4 exiting successfully. Buy a developer a beer!
