                               Psi4 1.3.2 release

  ==> Input File <==

--------------------------------------------------------------------------
#psi4
#
memory 32 gb

molecule  {
0 1
  O        2.6932640    -1.3344870    -0.0264310
  C        2.7508540     0.0254460     0.4069810
  C        1.3472321     0.5952453     0.3995494
  C       -3.5492030     0.3621160    -0.4101590
  C        3.6709050     0.8409920    -0.4958550
  C        0.2704120    -0.1024690    -0.0006590
  C       -2.1631840    -0.2004740    -0.4090490
  C       -1.0540431     0.4916019    -0.0088617
  C       -4.4702810    -0.3835230     0.5583970
  H        3.1361180     0.0688010     1.4404840
  H        1.2655190     1.6118880     0.7253080
  H       -3.5113520     1.4248880    -0.1442750
  H       -3.9713450     0.3050270    -1.4220020
  H        3.3060070     0.7827570    -1.5237190
  H        3.6990520     1.8899320    -0.1870900
  H        4.6948240     0.4527130    -0.4608140
  H        0.3841050    -1.1350190    -0.3229170
  H       -2.0573220    -1.2386810    -0.7303930
  H       -1.1648060     1.5075440     0.3065060
  H       -4.5255200    -1.4457790     0.3033390
  H       -5.4853170     0.0231860     0.5310900
  H       -4.0942820    -0.3029910     1.5815520
  H        3.6028580    -1.6773980    -0.0043180
units angstrom
no_reorient  #important for SAPT in psi4, default
symmetry c1  #important for SAPT in psi4, default
}

set PROPERTIES_ORIGIN ["COM"]
properties('MP2/aug-cc-pvtz', properties = ['dipole'])
--------------------------------------------------------------------------

    Molecular point group: c1
  Charge       = 0
  Multiplicity = 1
  Basis Set: AUG-CC-PVTZ
    Blend: AUG-CC-PVTZ
  Basis Set: (AUG-CC-PVTZ AUX)
    Blend: AUG-CC-PVTZ-JKFIT

    Orbital Energies [Eh]
    ---------------------

    Doubly Occupied:

       1A    -20.558754     2A    -11.286651     3A    -11.228370
       4A    -11.224063     5A    -11.223085     6A    -11.222894
       7A    -11.220933     8A    -11.219913     9A    -11.212594
      10A     -1.360007    11A     -1.096208    12A     -1.059470
      13A     -1.015113    14A     -0.959956    15A     -0.874955
      16A     -0.826472    17A     -0.754578    18A     -0.751633
      19A     -0.694293    20A     -0.637048    21A     -0.626660
      22A     -0.616141    23A     -0.590532    24A     -0.582274
      25A     -0.548097    26A     -0.544043    27A     -0.528136
      28A     -0.518095    29A     -0.504274    30A     -0.492170
      31A     -0.479217    32A     -0.465508    33A     -0.452090
      34A     -0.417047    35A     -0.294203

  @DF-RHF Final Energy:  -386.06051459558597

   => Energetics <=

    Nuclear Repulsion Energy =            417.6084895511343120
    One-Electron Energy =               -1351.1670524974747423
    Two-Electron Energy =                 547.4980483507545159
    Total Energy =                       -386.0605145955859143
  Basis Set: (AUG-CC-PVTZ AUX)
    Blend: AUG-CC-PVTZ-RI
    Molecular point group: c1

    Geometry (in Angstrom), charge = 0, multiplicity = 1:

       Center              X                  Y                   Z               Mass
    ------------   -----------------  -----------------  -----------------  -----------------
         O            2.693641265440    -1.338347474639    -0.027658867635    15.994914619570
         C            2.751231265440     0.021585525361     0.405753132365    12.000000000000
         C            1.347609365440     0.591384825361     0.398321532365    12.000000000000
         C           -3.548825734560     0.358255525361    -0.411386867635    12.000000000000
         C            3.671282265440     0.837131525361    -0.497082867635    12.000000000000
         C            0.270789265440    -0.106329474639    -0.001886867635    12.000000000000
         C           -2.162806734560    -0.204334474639    -0.410276867635    12.000000000000
         C           -1.053665834560     0.487741425361    -0.010089567635    12.000000000000
         C           -4.469903734560    -0.387383474639     0.557169132365    12.000000000000
         H            3.136495265440     0.064940525361     1.439256132365     1.007825032230
         H            1.265896265440     1.608027525361     0.724080132365     1.007825032230
         H           -3.510974734560     1.421027525361    -0.145502867635     1.007825032230
         H           -3.970967734560     0.301166525361    -1.423229867635     1.007825032230
         H            3.306384265440     0.778896525361    -1.524946867635     1.007825032230
         H            3.699429265440     1.886071525361    -0.188317867635     1.007825032230
         H            4.695201265440     0.448852525361    -0.462041867635     1.007825032230
         H            0.384482265440    -1.138879474639    -0.324144867635     1.007825032230
         H           -2.056944734560    -1.242541474639    -0.731620867635     1.007825032230
         H           -1.164428734560     1.503683525361     0.305278132365     1.007825032230
         H           -4.525142734560    -1.449639474639     0.302111132365     1.007825032230
         H           -5.484939734560     0.019325525361     0.529862132365     1.007825032230
         H           -4.093904734560    -0.306851474639     1.580324132365     1.007825032230
         H            3.603235265440    -1.681258474639    -0.005545867635     1.007825032230

  Basis Set: AUG-CC-PVTZ
    Blend: AUG-CC-PVTZ
  Basis Set: (AUG-CC-PVTZ AUX)
    Blend: AUG-CC-PVTZ-JKFIT
	 Reference Energy          =    -386.0605145955859712 [Eh]
	 Singles Energy            =      -0.0000000000000000 [Eh]
	 Same-Spin Energy          =      -0.4003914828424109 [Eh]
	 Opposite-Spin Energy      =      -1.3786739860178701 [Eh]
	 Correlation Energy        =      -1.7790654688602809 [Eh]
	 Total Energy              =    -387.8395800644462383 [Eh]

	 ================> DF-SCS-MP2 Energies <==================
	-----------------------------------------------------------
	 SCS Same-Spin Scale       =       0.3333333333333333 [-]
	 SCS Opposite-Spin Scale   =       1.2000000000000000 [-]
	 SCS Same-Spin Energy      =      -0.1334638276141370 [Eh]
	 SCS Opposite-Spin Energy  =      -1.6544087832214440 [Eh]
	 SCS Correlation Energy    =      -1.7878726108355809 [Eh]
	 SCS Total Energy          =    -387.8483872064215348 [Eh]
	-----------------------------------------------------------

  Dipole Moment: [D]
     X:     1.1928      Y:     0.7432      Z:     0.3150     Total:     1.4402

*** Psi4 exiting successfully. Buy a developer a beer!
