                               Psi4 1.3.2 release

  ==> Input File <==

--------------------------------------------------------------------------
#psi4
#
memory 32 gb

molecule  {
0 1
  O        2.6932640    -1.3344870    -0.0264310
  C        2.7508540     0.0254460     0.4069810
  C        1.3606810     0.5764810     0.3953890
  C       -3.5492030     0.3621160    -0.4101590
  C        3.6709050     0.8409920    -0.4958550
  C        0.2976352    -0.1397906    -0.0088415
  C       -2.1631840    -0.2004740    -0.4090490
  C       -1.0635270     0.4697970    -0.0176060
  C       -4.4702810    -0.3835230     0.5583970
  H        3.1361180     0.0688010     1.4404840
  H        1.3030908     1.6126895     0.7314326
  H       -3.5113520     1.4248880    -0.1442750
  H       -3.9713450     0.3050270    -1.4220020
  H        3.3060070     0.7827570    -1.5237190
  H        3.6990520     1.8899320    -0.1870900
  H        4.6948240     0.4527130    -0.4608140
  H        0.3841050    -1.1350190    -0.3229170
  H       -2.0573220    -1.2386810    -0.7303930
  H       -1.1648060     1.5075440     0.3065060
  H       -4.5255200    -1.4457790     0.3033390
  H       -5.4853170     0.0231860     0.5310900
  H       -4.0942820    -0.3029910     1.5815520
  H        3.6028580    -1.6773980    -0.0043180
units angstrom
no_reorient  #important for SAPT in psi4, default
symmetry c1  #important for SAPT in psi4, default
}

set PROPERTIES_ORIGIN ["COM"]
properties('MP2/aug-cc-pvtz', properties = ['dipole'])
--------------------------------------------------------------------------

    Molecular point group: c1
  Charge       = 0
  Multiplicity = 1
  Basis Set: AUG-CC-PVTZ
    Blend: AUG-CC-PVTZ
  Basis Set: (AUG-CC-PVTZ AUX)
    Blend: AUG-CC-PVTZ-JKFIT

    Orbital Energies [Eh]
    ---------------------

    Doubly Occupied:

       1A    -20.558271     2A    -11.284577     3A    -11.225795
       4A    -11.224137     5A    -11.223678     6A    -11.222482
       7A    -11.222434     8A    -11.220273     9A    -11.212258
      10A     -1.360315    11A     -1.094620    12A     -1.061437
      13A     -1.013568    14A     -0.962173    15A     -0.874374
      16A     -0.827915    17A     -0.754329    18A     -0.748932
      19A     -0.694740    20A     -0.638959    21A     -0.625499
      22A     -0.616142    23A     -0.590168    24A     -0.580138
      25A     -0.549115    26A     -0.544286    27A     -0.527088
      28A     -0.520242    29A     -0.506469    30A     -0.492149
      31A     -0.478458    32A     -0.462283    33A     -0.452118
      34A     -0.413965    35A     -0.299820

  @DF-RHF Final Energy:  -386.06042834235291

   => Energetics <=

    Nuclear Repulsion Energy =            417.8124151089261318
    One-Electron Energy =               -1351.5792744164009491
    Two-Electron Energy =                 547.7064309651218537
    Total Energy =                       -386.0604283423529068
  Basis Set: (AUG-CC-PVTZ AUX)
    Blend: AUG-CC-PVTZ-RI
    Molecular point group: c1

    Geometry (in Angstrom), charge = 0, multiplicity = 1:

       Center              X                  Y                   Z               Mass
    ------------   -----------------  -----------------  -----------------  -----------------
         O            2.690373148008    -1.330941854007    -0.025701174268    15.994914619570
         C            2.747963148008     0.028991145993     0.407710825732    12.000000000000
         C            1.357790148008     0.580026145993     0.396118825732    12.000000000000
         C           -3.552093851992     0.365661145993    -0.409429174268    12.000000000000
         C            3.668014148008     0.844537145993    -0.495125174268    12.000000000000
         C            0.294744348008    -0.136245454007    -0.008111674268    12.000000000000
         C           -2.166074851992    -0.196928854007    -0.408319174268    12.000000000000
         C           -1.066417851992     0.473342145993    -0.016876174268    12.000000000000
         C           -4.473171851992    -0.379977854007     0.559126825732    12.000000000000
         H            3.133227148008     0.072346145993     1.441213825732     1.007825032230
         H            1.300199948008     1.616234645993     0.732162425732     1.007825032230
         H           -3.514242851992     1.428433145993    -0.143545174268     1.007825032230
         H           -3.974235851992     0.308572145993    -1.421272174268     1.007825032230
         H            3.303116148008     0.786302145993    -1.522989174268     1.007825032230
         H            3.696161148008     1.893477145993    -0.186360174268     1.007825032230
         H            4.691933148008     0.456258145993    -0.460084174268     1.007825032230
         H            0.381214148008    -1.131473854007    -0.322187174268     1.007825032230
         H           -2.060212851992    -1.235135854007    -0.729663174268     1.007825032230
         H           -1.167696851992     1.511089145993     0.307235825732     1.007825032230
         H           -4.528410851992    -1.442233854007     0.304068825732     1.007825032230
         H           -5.488207851992     0.026731145993     0.531819825732     1.007825032230
         H           -4.097172851992    -0.299445854007     1.582281825732     1.007825032230
         H            3.599967148008    -1.673852854007    -0.003588174268     1.007825032230

  Basis Set: AUG-CC-PVTZ
    Blend: AUG-CC-PVTZ
  Basis Set: (AUG-CC-PVTZ AUX)
    Blend: AUG-CC-PVTZ-JKFIT
	 Reference Energy          =    -386.0604283423529068 [Eh]
	 Singles Energy            =      -0.0000000000000000 [Eh]
	 Same-Spin Energy          =      -0.3998657624164294 [Eh]
	 Opposite-Spin Energy      =      -1.3779958268331622 [Eh]
	 Correlation Energy        =      -1.7778615892495917 [Eh]
	 Total Energy              =    -387.8382899316025032 [Eh]

	 ================> DF-SCS-MP2 Energies <==================
	-----------------------------------------------------------
	 SCS Same-Spin Scale       =       0.3333333333333333 [-]
	 SCS Opposite-Spin Scale   =       1.2000000000000000 [-]
	 SCS Same-Spin Energy      =      -0.1332885874721431 [Eh]
	 SCS Opposite-Spin Energy  =      -1.6535949921997946 [Eh]
	 SCS Correlation Energy    =      -1.7868835796719376 [Eh]
	 SCS Total Energy          =    -387.8473119220248577 [Eh]
	-----------------------------------------------------------

  Dipole Moment: [D]
     X:     1.2352      Y:     0.7333      Z:     0.3171     Total:     1.4710

*** Psi4 exiting successfully. Buy a developer a beer!
