                               Psi4 1.3.2 release

  ==> Input File <==

--------------------------------------------------------------------------
#psi4
#
memory 32 gb

molecule  {
0 1
  O        2.6932640    -1.3344870    -0.0264310
  C        2.7508540     0.0254460     0.4069810
  C        1.3606810     0.5764810     0.3953890
  C       -3.5492030     0.3621160    -0.4101590
  C        3.6709050     0.8409920    -0.4958550
  C        0.2704120    -0.1024690    -0.0006590
  C       -2.1631840    -0.2004740    -0.4090490
  C       -1.0635270     0.4697970    -0.0176060
  C       -4.4702810    -0.3835230     0.5583970
  H        3.1361180     0.0688010     1.4404840
  H        1.2655190     1.6118880     0.7253080
  H       -3.5113520     1.4248880    -0.1442750
  H       -3.9713450     0.3050270    -1.4220020
  H        3.3060070     0.7827570    -1.5237190
  H        3.6990520     1.8899320    -0.1870900
  H        4.6948240     0.4527130    -0.4608140
  H        0.4050116    -1.3248908    -0.3821758
  H       -2.0573220    -1.2386810    -0.7303930
  H       -1.1648060     1.5075440     0.3065060
  H       -4.5255200    -1.4457790     0.3033390
  H       -5.4853170     0.0231860     0.5310900
  H       -4.0942820    -0.3029910     1.5815520
  H        3.6028580    -1.6773980    -0.0043180
units angstrom
no_reorient  #important for SAPT in psi4, default
symmetry c1  #important for SAPT in psi4, default
}

set PROPERTIES_ORIGIN ["COM"]
properties('MP2/aug-cc-pvtz', properties = ['dipole'])
--------------------------------------------------------------------------

    Molecular point group: c1
  Charge       = 0
  Multiplicity = 1
  Basis Set: AUG-CC-PVTZ
    Blend: AUG-CC-PVTZ
  Basis Set: (AUG-CC-PVTZ AUX)
    Blend: AUG-CC-PVTZ-JKFIT

    Orbital Energies [Eh]
    ---------------------

    Doubly Occupied:

       1A    -20.558108     2A    -11.286712     3A    -11.242675
       4A    -11.226477     5A    -11.224451     6A    -11.223878
       7A    -11.223370     8A    -11.220548     9A    -11.212953
      10A     -1.360166    11A     -1.096147    12A     -1.060880
      13A     -1.015030    14A     -0.962079    15A     -0.875727
      16A     -0.827952    17A     -0.752987    18A     -0.732062
      19A     -0.694292    20A     -0.630808    21A     -0.626874
      22A     -0.615300    23A     -0.588335    24A     -0.582142
      25A     -0.545863    26A     -0.541258    27A     -0.527702
      28A     -0.517837    29A     -0.494813    30A     -0.479949
      31A     -0.479229    32A     -0.461241    33A     -0.452836
      34A     -0.418986    35A     -0.298053

  @DF-RHF Final Energy:  -386.04010152356261

   => Energetics <=

    Nuclear Repulsion Energy =            417.1988025144239032
    One-Electron Energy =               -1350.3623684439883164
    Two-Electron Energy =                 547.1234644060017445
    Total Energy =                       -386.0401015235626119
  Basis Set: (AUG-CC-PVTZ AUX)
    Blend: AUG-CC-PVTZ-RI
    Molecular point group: c1

    Geometry (in Angstrom), charge = 0, multiplicity = 1:

       Center              X                  Y                   Z               Mass
    ------------   -----------------  -----------------  -----------------  -----------------
         O            2.693096873973    -1.332969489390    -0.025957271249    15.994914619570
         C            2.750686873973     0.026963510610     0.407454728751    12.000000000000
         C            1.360513873973     0.577998510610     0.395862728751    12.000000000000
         C           -3.549370126027     0.363633510610    -0.409685271249    12.000000000000
         C            3.670737873973     0.842509510610    -0.495381271249    12.000000000000
         C            0.270244873973    -0.100951489390    -0.000185271249    12.000000000000
         C           -2.163351126027    -0.198956489390    -0.408575271249    12.000000000000
         C           -1.063694126027     0.471314510610    -0.017132271249    12.000000000000
         C           -4.470448126027    -0.382005489390     0.558870728751    12.000000000000
         H            3.135950873973     0.070318510610     1.440957728751     1.007825032230
         H            1.265351873973     1.613405510610     0.725781728751     1.007825032230
         H           -3.511519126027     1.426405510610    -0.143801271249     1.007825032230
         H           -3.971512126027     0.306544510610    -1.421528271249     1.007825032230
         H            3.305839873973     0.784274510610    -1.523245271249     1.007825032230
         H            3.698884873973     1.891449510610    -0.186616271249     1.007825032230
         H            4.694656873973     0.454230510610    -0.460340271249     1.007825032230
         H            0.404844473973    -1.323373289390    -0.381702071249     1.007825032230
         H           -2.057489126027    -1.237163489390    -0.729919271249     1.007825032230
         H           -1.164973126027     1.509061510610     0.306979728751     1.007825032230
         H           -4.525687126027    -1.444261489390     0.303812728751     1.007825032230
         H           -5.485484126027     0.024703510610     0.531563728751     1.007825032230
         H           -4.094449126027    -0.301473489390     1.582025728751     1.007825032230
         H            3.602690873973    -1.675880489390    -0.003844271249     1.007825032230

  Basis Set: AUG-CC-PVTZ
    Blend: AUG-CC-PVTZ
  Basis Set: (AUG-CC-PVTZ AUX)
    Blend: AUG-CC-PVTZ-JKFIT
	 Reference Energy          =    -386.0401015235626119 [Eh]
	 Singles Energy            =      -0.0000000000000000 [Eh]
	 Same-Spin Energy          =      -0.4011907801224169 [Eh]
	 Opposite-Spin Energy      =      -1.3806800970734896 [Eh]
	 Correlation Energy        =      -1.7818708771959066 [Eh]
	 Total Energy              =    -387.8219724007585114 [Eh]

	 ================> DF-SCS-MP2 Energies <==================
	-----------------------------------------------------------
	 SCS Same-Spin Scale       =       0.3333333333333333 [-]
	 SCS Opposite-Spin Scale   =       1.2000000000000000 [-]
	 SCS Same-Spin Energy      =      -0.1337302600408056 [Eh]
	 SCS Opposite-Spin Energy  =      -1.6568161164881874 [Eh]
	 SCS Correlation Energy    =      -1.7905463765289931 [Eh]
	 SCS Total Energy          =    -387.8306479000916056 [Eh]
	-----------------------------------------------------------

  Dipole Moment: [D]
     X:     1.1996      Y:     0.7622      Z:     0.3198     Total:     1.4568

*** Psi4 exiting successfully. Buy a developer a beer!
