                               Psi4 1.3.2 release

  ==> Input File <==

--------------------------------------------------------------------------
#psi4
#
memory 32 gb

molecule  {
0 1
  O        2.6932640    -1.3344870    -0.0264310
  C        2.7508540     0.0254460     0.4069810
  C        1.3606810     0.5764810     0.3953890
  C       -3.5492030     0.3621160    -0.4101590
  C        3.6709050     0.8409920    -0.4958550
  C        0.1892948    -0.1529836    -0.0301254
  C       -2.1631840    -0.2004740    -0.4090490
  C       -1.0635270     0.4697970    -0.0176060
  C       -4.4702810    -0.3835230     0.5583970
  H        3.1361180     0.0688010     1.4404840
  H        1.2655190     1.6118880     0.7253080
  H       -3.5113520     1.4248880    -0.1442750
  H       -3.9713450     0.3050270    -1.4220020
  H        3.3060070     0.7827570    -1.5237190
  H        3.6990520     1.8899320    -0.1870900
  H        4.6948240     0.4527130    -0.4608140
  H        0.3841050    -1.1350190    -0.3229170
  H       -2.0573220    -1.2386810    -0.7303930
  H       -1.1648060     1.5075440     0.3065060
  H       -4.5255200    -1.4457790     0.3033390
  H       -5.4853170     0.0231860     0.5310900
  H       -4.0942820    -0.3029910     1.5815520
  H        3.6028580    -1.6773980    -0.0043180
units angstrom
no_reorient  #important for SAPT in psi4, default
symmetry c1  #important for SAPT in psi4, default
}

set PROPERTIES_ORIGIN ["COM"]
properties('MP2/aug-cc-pvtz', properties = ['dipole'])
--------------------------------------------------------------------------

    Molecular point group: c1
  Charge       = 0
  Multiplicity = 1
  Basis Set: AUG-CC-PVTZ
    Blend: AUG-CC-PVTZ
  Basis Set: (AUG-CC-PVTZ AUX)
    Blend: AUG-CC-PVTZ-JKFIT

    Orbital Energies [Eh]
    ---------------------

    Doubly Occupied:

       1A    -20.558856     2A    -11.286802     3A    -11.234242
       4A    -11.229512     5A    -11.225377     6A    -11.222988
       7A    -11.220899     8A    -11.220267     9A    -11.212982
      10A     -1.360477    11A     -1.100671    12A     -1.054738
      13A     -1.020061    14A     -0.953379    15A     -0.880428
      16A     -0.825034    17A     -0.756208    18A     -0.751917
      19A     -0.696440    20A     -0.640268    21A     -0.625477
      22A     -0.616559    23A     -0.589800    24A     -0.582828
      25A     -0.546309    26A     -0.542361    27A     -0.526897
      28A     -0.516941    29A     -0.510199    30A     -0.492027
      31A     -0.479463    32A     -0.470519    33A     -0.451726
      34A     -0.419550    35A     -0.279052

  @DF-RHF Final Energy:  -386.04353757423337

   => Energetics <=

    Nuclear Repulsion Energy =            417.4831102084889380
    One-Electron Energy =               -1350.8507855858922539
    Two-Electron Energy =                 547.3241378031699469
    Total Energy =                       -386.0435375742333690
  Basis Set: (AUG-CC-PVTZ AUX)
    Blend: AUG-CC-PVTZ-RI
    Molecular point group: c1

    Geometry (in Angstrom), charge = 0, multiplicity = 1:

       Center              X                  Y                   Z               Mass
    ------------   -----------------  -----------------  -----------------  -----------------
         O            2.700983007063    -1.329680013107    -0.023626867660    15.994914619570
         C            2.758573007063     0.030252986893     0.409785132340    12.000000000000
         C            1.368400007063     0.581287986893     0.398193132340    12.000000000000
         C           -3.541483992937     0.366922986893    -0.407354867660    12.000000000000
         C            3.678624007063     0.845798986893    -0.493050867660    12.000000000000
         C            0.197013807063    -0.148176613107    -0.027321267660    12.000000000000
         C           -2.155464992937    -0.195667013107    -0.406244867660    12.000000000000
         C           -1.055807992937     0.474603986893    -0.014801867660    12.000000000000
         C           -4.462561992937    -0.378716013107     0.561201132340    12.000000000000
         H            3.143837007063     0.073607986893     1.443288132340     1.007825032230
         H            1.273238007063     1.616694986893     0.728112132340     1.007825032230
         H           -3.503632992937     1.429694986893    -0.141470867660     1.007825032230
         H           -3.963625992937     0.309833986893    -1.419197867660     1.007825032230
         H            3.313726007063     0.787563986893    -1.520914867660     1.007825032230
         H            3.706771007063     1.894738986893    -0.184285867660     1.007825032230
         H            4.702543007063     0.457519986893    -0.458009867660     1.007825032230
         H            0.391824007063    -1.130212013107    -0.320112867660     1.007825032230
         H           -2.049602992937    -1.233874013107    -0.727588867660     1.007825032230
         H           -1.157086992937     1.512350986893     0.309310132340     1.007825032230
         H           -4.517800992937    -1.440972013107     0.306143132340     1.007825032230
         H           -5.477597992937     0.027992986893     0.533894132340     1.007825032230
         H           -4.086562992937    -0.298184013107     1.584356132340     1.007825032230
         H            3.610577007063    -1.672591013107    -0.001513867660     1.007825032230

  Basis Set: AUG-CC-PVTZ
    Blend: AUG-CC-PVTZ
  Basis Set: (AUG-CC-PVTZ AUX)
    Blend: AUG-CC-PVTZ-JKFIT
	 Reference Energy          =    -386.0435375742333690 [Eh]
	 Singles Energy            =      -0.0000000000000000 [Eh]
	 Same-Spin Energy          =      -0.4025738404690571 [Eh]
	 Opposite-Spin Energy      =      -1.3822984728706995 [Eh]
	 Correlation Energy        =      -1.7848723133397566 [Eh]
	 Total Energy              =    -387.8284098875731161 [Eh]

	 ================> DF-SCS-MP2 Energies <==================
	-----------------------------------------------------------
	 SCS Same-Spin Scale       =       0.3333333333333333 [-]
	 SCS Opposite-Spin Scale   =       1.2000000000000000 [-]
	 SCS Same-Spin Energy      =      -0.1341912801563524 [Eh]
	 SCS Opposite-Spin Energy  =      -1.6587581674448393 [Eh]
	 SCS Correlation Energy    =      -1.7929494476011916 [Eh]
	 SCS Total Energy          =    -387.8364870218345573 [Eh]
	-----------------------------------------------------------

  Dipole Moment: [D]
     X:     1.1697      Y:     0.7291      Z:     0.3022     Total:     1.4111

*** Psi4 exiting successfully. Buy a developer a beer!
