                               Psi4 1.3.2 release

  ==> Input File <==

--------------------------------------------------------------------------
#psi4
#
memory 32 gb

molecule  {
0 1
  O        2.6932640    -1.3344870    -0.0264310
  C        2.7508540     0.0254460     0.4069810
  C        1.3606810     0.5764810     0.3953890
  C       -3.5492030     0.3621160    -0.4101590
  C        3.6709050     0.8409920    -0.4958550
  C        0.2704120    -0.1024690    -0.0006590
  C       -2.1631840    -0.2004740    -0.4090490
  C       -1.0588281     0.4807378    -0.0132830
  C       -4.4702810    -0.3835230     0.5583970
  H        3.1361180     0.0688010     1.4404840
  H        1.2655190     1.6118880     0.7253080
  H       -3.5113520     1.4248880    -0.1442750
  H       -3.9713450     0.3050270    -1.4220020
  H        3.3060070     0.7827570    -1.5237190
  H        3.6990520     1.8899320    -0.1870900
  H        4.6948240     0.4527130    -0.4608140
  H        0.3934396    -1.1344539    -0.3212948
  H       -2.0573220    -1.2386810    -0.7303930
  H       -1.1648060     1.5075440     0.3065060
  H       -4.5255200    -1.4457790     0.3033390
  H       -5.4853170     0.0231860     0.5310900
  H       -4.0942820    -0.3029910     1.5815520
  H        3.6028580    -1.6773980    -0.0043180
units angstrom
no_reorient  #important for SAPT in psi4, default
symmetry c1  #important for SAPT in psi4, default
}

set PROPERTIES_ORIGIN ["COM"]
properties('MP2/aug-cc-pvtz', properties = ['dipole'])
--------------------------------------------------------------------------

    Molecular point group: c1
  Charge       = 0
  Multiplicity = 1
  Basis Set: AUG-CC-PVTZ
    Blend: AUG-CC-PVTZ
  Basis Set: (AUG-CC-PVTZ AUX)
    Blend: AUG-CC-PVTZ-JKFIT

    Orbital Energies [Eh]
    ---------------------

    Doubly Occupied:

       1A    -20.558717     2A    -11.286273     3A    -11.227349
       4A    -11.223990     5A    -11.223152     6A    -11.222974
       7A    -11.221387     8A    -11.220442     9A    -11.212762
      10A     -1.360616    11A     -1.097025    12A     -1.061006
      13A     -1.015967    14A     -0.961405    15A     -0.876505
      16A     -0.828107    17A     -0.753528    18A     -0.748059
      19A     -0.695320    20A     -0.637256    21A     -0.627612
      22A     -0.616744    23A     -0.589848    24A     -0.582580
      25A     -0.546512    26A     -0.543714    27A     -0.528128
      28A     -0.518197    29A     -0.500967    30A     -0.492927
      31A     -0.479237    32A     -0.468535    33A     -0.452894
      34A     -0.417447    35A     -0.295787

  @DF-RHF Final Energy:  -386.06192419011734

   => Energetics <=

    Nuclear Repulsion Energy =            417.9134722600654754
    One-Electron Energy =               -1351.7648570405183364
    Two-Electron Energy =                 547.7894605903355796
    Total Energy =                       -386.0619241901173382
  Basis Set: (AUG-CC-PVTZ AUX)
    Blend: AUG-CC-PVTZ-RI
    Molecular point group: c1

    Geometry (in Angstrom), charge = 0, multiplicity = 1:

       Center              X                  Y                   Z               Mass
    ------------   -----------------  -----------------  -----------------  -----------------
         O            2.692742213662    -1.335532576071    -0.026855204528    15.994914619570
         C            2.750332213662     0.024400423929     0.406556795472    12.000000000000
         C            1.360159213662     0.575435423929     0.394964795472    12.000000000000
         C           -3.549724786338     0.361070423929    -0.410583204528    12.000000000000
         C            3.670383213662     0.839946423929    -0.496279204528    12.000000000000
         C            0.269890213662    -0.103514576071    -0.001083204528    12.000000000000
         C           -2.163705786338    -0.201519576071    -0.409473204528    12.000000000000
         C           -1.059349886338     0.479692223929    -0.013707204528    12.000000000000
         C           -4.470802786338    -0.384568576071     0.557972795472    12.000000000000
         H            3.135596213662     0.067755423929     1.440059795472     1.007825032230
         H            1.264997213662     1.610842423929     0.724883795472     1.007825032230
         H           -3.511873786338     1.423842423929    -0.144699204528     1.007825032230
         H           -3.971866786338     0.303981423929    -1.422426204528     1.007825032230
         H            3.305485213662     0.781711423929    -1.524143204528     1.007825032230
         H            3.698530213662     1.888886423929    -0.187514204528     1.007825032230
         H            4.694302213662     0.451667423929    -0.461238204528     1.007825032230
         H            0.392917813662    -1.135499476071    -0.321719004528     1.007825032230
         H           -2.057843786338    -1.239726576071    -0.730817204528     1.007825032230
         H           -1.165327786338     1.506498423929     0.306081795472     1.007825032230
         H           -4.526041786338    -1.446824576071     0.302914795472     1.007825032230
         H           -5.485838786338     0.022140423929     0.530665795472     1.007825032230
         H           -4.094803786338    -0.304036576071     1.581127795472     1.007825032230
         H            3.602336213662    -1.678443576071    -0.004742204528     1.007825032230

  Basis Set: AUG-CC-PVTZ
    Blend: AUG-CC-PVTZ
  Basis Set: (AUG-CC-PVTZ AUX)
    Blend: AUG-CC-PVTZ-JKFIT
	 Reference Energy          =    -386.0619241901173382 [Eh]
	 Singles Energy            =      -0.0000000000000000 [Eh]
	 Same-Spin Energy          =      -0.4004662486333617 [Eh]
	 Opposite-Spin Energy      =      -1.3785770150059946 [Eh]
	 Correlation Energy        =      -1.7790432636393563 [Eh]
	 Total Energy              =    -387.8409674537567184 [Eh]

	 ================> DF-SCS-MP2 Energies <==================
	-----------------------------------------------------------
	 SCS Same-Spin Scale       =       0.3333333333333333 [-]
	 SCS Opposite-Spin Scale   =       1.2000000000000000 [-]
	 SCS Same-Spin Energy      =      -0.1334887495444539 [Eh]
	 SCS Opposite-Spin Energy  =      -1.6542924180071934 [Eh]
	 SCS Correlation Energy    =      -1.7877811675516473 [Eh]
	 SCS Total Energy          =    -387.8497053576689950 [Eh]
	-----------------------------------------------------------

  Dipole Moment: [D]
     X:     1.2048      Y:     0.7326      Z:     0.3106     Total:     1.4439

*** Psi4 exiting successfully. Buy a developer a beer!
