                               Psi4 1.3.2 release

  ==> Input File <==

--------------------------------------------------------------------------
#psi4
#
memory 32 gb

molecule  {
0 1
  O        2.6932640    -1.3344870    -0.0264310
  C        2.7508540     0.0254460     0.4069810
  C        1.3606810     0.5764810     0.3953890
  C       -3.5492030     0.3621160    -0.4101590
  C        3.6709050     0.8409920    -0.4958550
  C        0.2704120    -0.1024690    -0.0006590
  C       -2.1631840    -0.2004740    -0.4090490
  C       -1.0506024     0.4506355    -0.0218087
  C       -4.4702810    -0.3835230     0.5583970
  H        3.1361180     0.0688010     1.4404840
  H        1.2655190     1.6118880     0.7253080
  H       -3.5113520     1.4248880    -0.1442750
  H       -3.9713450     0.3050270    -1.4220020
  H        3.3060070     0.7827570    -1.5237190
  H        3.6990520     1.8899320    -0.1870900
  H        4.6948240     0.4527130    -0.4608140
  H        0.3841050    -1.1350190    -0.3229170
  H       -2.0385821    -1.2376162    -0.7270944
  H       -1.1648060     1.5075440     0.3065060
  H       -4.5255200    -1.4457790     0.3033390
  H       -5.4853170     0.0231860     0.5310900
  H       -4.0942820    -0.3029910     1.5815520
  H        3.6028580    -1.6773980    -0.0043180
units angstrom
no_reorient  #important for SAPT in psi4, default
symmetry c1  #important for SAPT in psi4, default
}

set PROPERTIES_ORIGIN ["COM"]
properties('MP2/aug-cc-pvtz', properties = ['dipole'])
--------------------------------------------------------------------------

    Molecular point group: c1
  Charge       = 0
  Multiplicity = 1
  Basis Set: AUG-CC-PVTZ
    Blend: AUG-CC-PVTZ
  Basis Set: (AUG-CC-PVTZ AUX)
    Blend: AUG-CC-PVTZ-JKFIT

    Orbital Energies [Eh]
    ---------------------

    Doubly Occupied:

       1A    -20.558867     2A    -11.286813     3A    -11.225841
       4A    -11.224223     5A    -11.223766     6A    -11.223201
       7A    -11.221162     8A    -11.220780     9A    -11.213062
      10A     -1.360789    11A     -1.099378    12A     -1.061568
      13A     -1.017558    14A     -0.962699    15A     -0.877999
      16A     -0.829029    17A     -0.752654    18A     -0.746820
      19A     -0.695219    20A     -0.637167    21A     -0.629373
      22A     -0.616678    23A     -0.589920    24A     -0.583847
      25A     -0.546682    26A     -0.543461    27A     -0.525166
      28A     -0.519248    29A     -0.500078    30A     -0.491295
      31A     -0.478359    32A     -0.469924    33A     -0.453428
      34A     -0.420579    35A     -0.296347

  @DF-RHF Final Energy:  -386.06132356899354

   => Energetics <=

    Nuclear Repulsion Energy =            418.1984528121317339
    One-Electron Energy =               -1352.3135940294887405
    Two-Electron Energy =                 548.0538176483634061
    Total Energy =                       -386.0613235689935436
  Basis Set: (AUG-CC-PVTZ AUX)
    Blend: AUG-CC-PVTZ-RI
    Molecular point group: c1

    Geometry (in Angstrom), charge = 0, multiplicity = 1:

       Center              X                  Y                   Z               Mass
    ------------   -----------------  -----------------  -----------------  -----------------
         O            2.691884295612    -1.332672058883    -0.026057303501    15.994914619570
         C            2.749474295612     0.027260941117     0.407354696499    12.000000000000
         C            1.359301295612     0.578295941117     0.395762696499    12.000000000000
         C           -3.550582704388     0.363930941117    -0.409785303501    12.000000000000
         C            3.669525295612     0.842806941117    -0.495481303501    12.000000000000
         C            0.269032295612    -0.100654058883    -0.000285303501    12.000000000000
         C           -2.164563704388    -0.198659058883    -0.408675303501    12.000000000000
         C           -1.051982104388     0.452450441117    -0.021435003501    12.000000000000
         C           -4.471660704388    -0.381708058883     0.558770696499    12.000000000000
         H            3.134738295612     0.070615941117     1.440857696499     1.007825032230
         H            1.264139295612     1.613702941117     0.725681696499     1.007825032230
         H           -3.512731704388     1.426702941117    -0.143901303501     1.007825032230
         H           -3.972724704388     0.306841941117    -1.421628303501     1.007825032230
         H            3.304627295612     0.784571941117    -1.523345303501     1.007825032230
         H            3.697672295612     1.891746941117    -0.186716303501     1.007825032230
         H            4.693444295612     0.454527941117    -0.460440303501     1.007825032230
         H            0.382725295612    -1.133204058883    -0.322543303501     1.007825032230
         H           -2.039961804388    -1.235801258883    -0.726720703501     1.007825032230
         H           -1.166185704388     1.509358941117     0.306879696499     1.007825032230
         H           -4.526899704388    -1.443964058883     0.303712696499     1.007825032230
         H           -5.486696704388     0.025000941117     0.531463696499     1.007825032230
         H           -4.095661704388    -0.301176058883     1.581925696499     1.007825032230
         H            3.601478295612    -1.675583058883    -0.003944303501     1.007825032230

  Basis Set: AUG-CC-PVTZ
    Blend: AUG-CC-PVTZ
  Basis Set: (AUG-CC-PVTZ AUX)
    Blend: AUG-CC-PVTZ-JKFIT
	 Reference Energy          =    -386.0613235689935436 [Eh]
	 Singles Energy            =      -0.0000000000000000 [Eh]
	 Same-Spin Energy          =      -0.4006845683556445 [Eh]
	 Opposite-Spin Energy      =      -1.3786786559144115 [Eh]
	 Correlation Energy        =      -1.7793632242700559 [Eh]
	 Total Energy              =    -387.8406867932636146 [Eh]

	 ================> DF-SCS-MP2 Energies <==================
	-----------------------------------------------------------
	 SCS Same-Spin Scale       =       0.3333333333333333 [-]
	 SCS Opposite-Spin Scale   =       1.2000000000000000 [-]
	 SCS Same-Spin Energy      =      -0.1335615227852148 [Eh]
	 SCS Opposite-Spin Energy  =      -1.6544143870972938 [Eh]
	 SCS Correlation Energy    =      -1.7879759098825088 [Eh]
	 SCS Total Energy          =    -387.8492994788760484 [Eh]
	-----------------------------------------------------------

  Dipole Moment: [D]
     X:     1.2166      Y:     0.7225      Z:     0.3107     Total:     1.4486

*** Psi4 exiting successfully. Buy a developer a beer!
