                               Psi4 1.3.2 release

  ==> Input File <==

--------------------------------------------------------------------------
#psi4
#
memory 32 gb

molecule  {
0 1
  O        2.6932640    -1.3344870    -0.0264310
  C        2.7589171     0.2158476     0.4676622
  C        1.3606810     0.5764810     0.3953890
  C       -3.5492030     0.3621160    -0.4101590
  C        3.6709050     0.8409920    -0.4958550
  C        0.2704120    -0.1024690    -0.0006590
  C       -2.1631840    -0.2004740    -0.4090490
  C       -1.0635270     0.4697970    -0.0176060
  C       -4.4702810    -0.3835230     0.5583970
  H        3.1361180     0.0688010     1.4404840
  H        1.2655190     1.6118880     0.7253080
  H       -3.5113520     1.4248880    -0.1442750
  H       -3.9713450     0.3050270    -1.4220020
  H        3.3060070     0.7827570    -1.5237190
  H        3.6990520     1.8899320    -0.1870900
  H        4.6948240     0.4527130    -0.4608140
  H        0.3841050    -1.1350190    -0.3229170
  H       -2.0573220    -1.2386810    -0.7303930
  H       -1.1648060     1.5075440     0.3065060
  H       -4.5255200    -1.4457790     0.3033390
  H       -5.4853170     0.0231860     0.5310900
  H       -4.0942820    -0.3029910     1.5815520
  H        3.6028580    -1.6773980    -0.0043180
units angstrom
no_reorient  #important for SAPT in psi4, default
symmetry c1  #important for SAPT in psi4, default
}

set PROPERTIES_ORIGIN ["COM"]
properties('MP2/aug-cc-pvtz', properties = ['dipole'])
--------------------------------------------------------------------------

    Molecular point group: c1
  Charge       = 0
  Multiplicity = 1
  Basis Set: AUG-CC-PVTZ
    Blend: AUG-CC-PVTZ
  Basis Set: (AUG-CC-PVTZ AUX)
    Blend: AUG-CC-PVTZ-JKFIT

    Orbital Energies [Eh]
    ---------------------

    Doubly Occupied:

       1A    -20.529981     2A    -11.292082     3A    -11.230796
       4A    -11.229861     5A    -11.226276     6A    -11.226027
       7A    -11.225474     8A    -11.224806     9A    -11.214524
      10A     -1.292778    11A     -1.103609    12A     -1.074206
      13A     -1.028538    14A     -0.969309    15A     -0.885453
      16A     -0.833464    17A     -0.756346    18A     -0.746641
      19A     -0.678447    20A     -0.640199    21A     -0.624700
      22A     -0.603301    23A     -0.592235    24A     -0.577248
      25A     -0.561582    26A     -0.544715    27A     -0.521213
      28A     -0.520069    29A     -0.503381    30A     -0.482334
      31A     -0.476582    32A     -0.457272    33A     -0.444214
      34A     -0.424789    35A     -0.302682

  @DF-RHF Final Energy:  -386.02867121640315

   => Energetics <=

    Nuclear Repulsion Energy =            416.7827499324807263
    One-Electron Energy =               -1349.5325707433341904
    Two-Electron Energy =                 546.7211495944502531
    Total Energy =                       -386.0286712164031542
  Basis Set: (AUG-CC-PVTZ AUX)
    Blend: AUG-CC-PVTZ-RI
    Molecular point group: c1

    Geometry (in Angstrom), charge = 0, multiplicity = 1:

       Center              X                  Y                   Z               Mass
    ------------   -----------------  -----------------  -----------------  -----------------
         O            2.692496681068    -1.352605405942    -0.032205241149    15.994914619570
         C            2.758149781068     0.197729194058     0.461887958851    12.000000000000
         C            1.359913681068     0.558362594058     0.389614758851    12.000000000000
         C           -3.549970318932     0.343997594058    -0.415933241149    12.000000000000
         C            3.670137681068     0.822873594058    -0.501629241149    12.000000000000
         C            0.269644681068    -0.120587405942    -0.006433241149    12.000000000000
         C           -2.163951318932    -0.218592405942    -0.414823241149    12.000000000000
         C           -1.064294318932     0.451678594058    -0.023380241149    12.000000000000
         C           -4.471048318932    -0.401641405942     0.552622758851    12.000000000000
         H            3.135350681068     0.050682594058     1.434709758851     1.007825032230
         H            1.264751681068     1.593769594058     0.719533758851     1.007825032230
         H           -3.512119318932     1.406769594058    -0.150049241149     1.007825032230
         H           -3.972112318932     0.286908594058    -1.427776241149     1.007825032230
         H            3.305239681068     0.764638594058    -1.529493241149     1.007825032230
         H            3.698284681068     1.871813594058    -0.192864241149     1.007825032230
         H            4.694056681068     0.434594594058    -0.466588241149     1.007825032230
         H            0.383337681068    -1.153137405942    -0.328691241149     1.007825032230
         H           -2.058089318932    -1.256799405942    -0.736167241149     1.007825032230
         H           -1.165573318932     1.489425594058     0.300731758851     1.007825032230
         H           -4.526287318932    -1.463897405942     0.297564758851     1.007825032230
         H           -5.486084318932     0.005067594058     0.525315758851     1.007825032230
         H           -4.095049318932    -0.321109405942     1.575777758851     1.007825032230
         H            3.602090681068    -1.695516405942    -0.010092241149     1.007825032230

  Basis Set: AUG-CC-PVTZ
    Blend: AUG-CC-PVTZ
  Basis Set: (AUG-CC-PVTZ AUX)
    Blend: AUG-CC-PVTZ-JKFIT
	 Reference Energy          =    -386.0286712164031542 [Eh]
	 Singles Energy            =      -0.0000000000000000 [Eh]
	 Same-Spin Energy          =      -0.4022056393785933 [Eh]
	 Opposite-Spin Energy      =      -1.3837902928447030 [Eh]
	 Correlation Energy        =      -1.7859959322232963 [Eh]
	 Total Energy              =    -387.8146671486264268 [Eh]

	 ================> DF-SCS-MP2 Energies <==================
	-----------------------------------------------------------
	 SCS Same-Spin Scale       =       0.3333333333333333 [-]
	 SCS Opposite-Spin Scale   =       1.2000000000000000 [-]
	 SCS Same-Spin Energy      =      -0.1340685464595311 [Eh]
	 SCS Opposite-Spin Energy  =      -1.6605483514136437 [Eh]
	 SCS Correlation Energy    =      -1.7946168978731747 [Eh]
	 SCS Total Energy          =    -387.8232881142763517 [Eh]
	-----------------------------------------------------------

  Dipole Moment: [D]
     X:     1.0122      Y:     1.3274      Z:     0.3787     Total:     1.7117

*** Psi4 exiting successfully. Buy a developer a beer!
