                               Psi4 1.3.2 release

  ==> Input File <==

--------------------------------------------------------------------------
#psi4
#
memory 32 gb

molecule  {
0 1
  O        2.6932640    -1.3344870    -0.0264310
  C        2.7508540     0.0254460     0.4069810
  C        1.3606810     0.5764810     0.3953890
  C       -3.5492030     0.3621160    -0.4101590
  C        3.6709050     0.8409920    -0.4958550
  C        0.2704120    -0.1024690    -0.0006590
  C       -2.1631840    -0.2004740    -0.4090490
  C       -1.0380167     0.4312756    -0.0261294
  C       -4.4702810    -0.3835230     0.5583970
  H        3.1361180     0.0688010     1.4404840
  H        1.2655190     1.6118880     0.7253080
  H       -3.5113520     1.4248880    -0.1442750
  H       -3.9713450     0.3050270    -1.4220020
  H        3.3060070     0.7827570    -1.5237190
  H        3.6990520     1.8899320    -0.1870900
  H        4.6948240     0.4527130    -0.4608140
  H        0.3841050    -1.1350190    -0.3229170
  H       -2.0198801    -1.2362355    -0.7236990
  H       -1.1648060     1.5075440     0.3065060
  H       -4.5255200    -1.4457790     0.3033390
  H       -5.4853170     0.0231860     0.5310900
  H       -4.0942820    -0.3029910     1.5815520
  H        3.6028580    -1.6773980    -0.0043180
units angstrom
no_reorient  #important for SAPT in psi4, default
symmetry c1  #important for SAPT in psi4, default
}

set PROPERTIES_ORIGIN ["COM"]
properties('MP2/aug-cc-pvtz', properties = ['dipole'])
--------------------------------------------------------------------------

    Molecular point group: c1
  Charge       = 0
  Multiplicity = 1
  Basis Set: AUG-CC-PVTZ
    Blend: AUG-CC-PVTZ
  Basis Set: (AUG-CC-PVTZ AUX)
    Blend: AUG-CC-PVTZ-JKFIT

    Orbital Energies [Eh]
    ---------------------

    Doubly Occupied:

       1A    -20.559054     2A    -11.287166     3A    -11.225982
       4A    -11.225177     5A    -11.224438     6A    -11.223383
       7A    -11.221022     8A    -11.220229     9A    -11.213356
      10A     -1.361000    11A     -1.101118    12A     -1.061843
      13A     -1.019017    14A     -0.962995    15A     -0.879491
      16A     -0.829593    17A     -0.754275    18A     -0.744632
      19A     -0.695009    20A     -0.637191    21A     -0.630714
      22A     -0.616703    23A     -0.590770    24A     -0.584206
      25A     -0.546863    26A     -0.543385    27A     -0.523452
      28A     -0.519719    29A     -0.499854    30A     -0.489931
      31A     -0.477818    32A     -0.470222    33A     -0.453939
      34A     -0.422941    35A     -0.295269

  @DF-RHF Final Energy:  -386.05855649396926

   => Energetics <=

    Nuclear Repulsion Energy =            418.4010338317596052
    One-Electron Energy =               -1352.6956678769151949
    Two-Electron Energy =                 548.2360775511863267
    Total Energy =                       -386.0585564939692631
  Basis Set: (AUG-CC-PVTZ AUX)
    Blend: AUG-CC-PVTZ-RI
    Molecular point group: c1

    Geometry (in Angstrom), charge = 0, multiplicity = 1:

       Center              X                  Y                   Z               Mass
    ------------   -----------------  -----------------  -----------------  -----------------
         O            2.690537184361    -1.330840820823    -0.025673285133    15.994914619570
         C            2.748127184361     0.029092179177     0.407738714867    12.000000000000
         C            1.357954184361     0.580127179177     0.396146714867    12.000000000000
         C           -3.551929815639     0.365762179177    -0.409401285133    12.000000000000
         C            3.668178184361     0.844638179177    -0.495097285133    12.000000000000
         C            0.267685184361    -0.098822820823     0.000098714867    12.000000000000
         C           -2.165910815639    -0.196827820823    -0.408291285133    12.000000000000
         C           -1.040743515639     0.434921779177    -0.025371685133    12.000000000000
         C           -4.473007815639    -0.379876820823     0.559154714867    12.000000000000
         H            3.133391184361     0.072447179177     1.441241714867     1.007825032230
         H            1.262792184361     1.615534179177     0.726065714867     1.007825032230
         H           -3.514078815639     1.428534179177    -0.143517285133     1.007825032230
         H           -3.974071815639     0.308673179177    -1.421244285133     1.007825032230
         H            3.303280184361     0.786403179177    -1.522961285133     1.007825032230
         H            3.696325184361     1.893578179177    -0.186332285133     1.007825032230
         H            4.692097184361     0.456359179177    -0.460056285133     1.007825032230
         H            0.381378184361    -1.131372820823    -0.322159285133     1.007825032230
         H           -2.022606915639    -1.232589320823    -0.722941285133     1.007825032230
         H           -1.167532815639     1.511190179177     0.307263714867     1.007825032230
         H           -4.528246815639    -1.442132820823     0.304096714867     1.007825032230
         H           -5.488043815639     0.026832179177     0.531847714867     1.007825032230
         H           -4.097008815639    -0.299344820823     1.582309714867     1.007825032230
         H            3.600131184361    -1.673751820823    -0.003560285133     1.007825032230

  Basis Set: AUG-CC-PVTZ
    Blend: AUG-CC-PVTZ
  Basis Set: (AUG-CC-PVTZ AUX)
    Blend: AUG-CC-PVTZ-JKFIT
	 Reference Energy          =    -386.0585564939692631 [Eh]
	 Singles Energy            =      -0.0000000000000000 [Eh]
	 Same-Spin Energy          =      -0.4010686179479426 [Eh]
	 Opposite-Spin Energy      =      -1.3791401837069306 [Eh]
	 Correlation Energy        =      -1.7802088016548732 [Eh]
	 Total Energy              =    -387.8387652956241141 [Eh]

	 ================> DF-SCS-MP2 Energies <==================
	-----------------------------------------------------------
	 SCS Same-Spin Scale       =       0.3333333333333333 [-]
	 SCS Opposite-Spin Scale   =       1.2000000000000000 [-]
	 SCS Same-Spin Energy      =      -0.1336895393159808 [Eh]
	 SCS Opposite-Spin Energy  =      -1.6549682204483167 [Eh]
	 SCS Correlation Energy    =      -1.7886577597642976 [Eh]
	 SCS Total Energy          =    -387.8472142537335685 [Eh]
	-----------------------------------------------------------

  Dipole Moment: [D]
     X:     1.2272      Y:     0.7139      Z:     0.3113     Total:     1.4535

*** Psi4 exiting successfully. Buy a developer a beer!
