                               Psi4 1.3.2 release

  ==> Input File <==

--------------------------------------------------------------------------
#psi4
#
memory 32 gb

molecule  {
0 1
  O        2.6932640    -1.3344870    -0.0264310
  C        2.7508540     0.0254460     0.4069810
  C        1.4536415     0.5396334     0.3961642
  C       -3.5492030     0.3621160    -0.4101590
  C        3.6709050     0.8409920    -0.4958550
  C        0.2704120    -0.1024690    -0.0006590
  C       -2.1631840    -0.2004740    -0.4090490
  C       -1.0635270     0.4697970    -0.0176060
  C       -4.4702810    -0.3835230     0.5583970
  H        3.1361180     0.0688010     1.4404840
  H        1.2655190     1.6118880     0.7253080
  H       -3.5113520     1.4248880    -0.1442750
  H       -3.9713450     0.3050270    -1.4220020
  H        3.3060070     0.7827570    -1.5237190
  H        3.6990520     1.8899320    -0.1870900
  H        4.6948240     0.4527130    -0.4608140
  H        0.3841050    -1.1350190    -0.3229170
  H       -2.0573220    -1.2386810    -0.7303930
  H       -1.1648060     1.5075440     0.3065060
  H       -4.5255200    -1.4457790     0.3033390
  H       -5.4853170     0.0231860     0.5310900
  H       -4.0942820    -0.3029910     1.5815520
  H        3.6028580    -1.6773980    -0.0043180
units angstrom
no_reorient  #important for SAPT in psi4, default
symmetry c1  #important for SAPT in psi4, default
}

set PROPERTIES_ORIGIN ["COM"]
properties('MP2/aug-cc-pvtz', properties = ['dipole'])
--------------------------------------------------------------------------

    Molecular point group: c1
  Charge       = 0
  Multiplicity = 1
  Basis Set: AUG-CC-PVTZ
    Blend: AUG-CC-PVTZ
  Basis Set: (AUG-CC-PVTZ AUX)
    Blend: AUG-CC-PVTZ-JKFIT

    Orbital Energies [Eh]
    ---------------------

    Doubly Occupied:

       1A    -20.559340     2A    -11.282074     3A    -11.230819
       4A    -11.228945     5A    -11.227915     6A    -11.225492
       7A    -11.224165     8A    -11.221954     9A    -11.213414
      10A     -1.363621    11A     -1.096999    12A     -1.069537
      13A     -1.017884    14A     -0.959211    15A     -0.885760
      16A     -0.829990    17A     -0.753326    18A     -0.741978
      19A     -0.700459    20A     -0.638918    21A     -0.629642
      22A     -0.618816    23A     -0.591531    24A     -0.579256
      25A     -0.548578    26A     -0.539071    27A     -0.531574
      28A     -0.518171    29A     -0.504807    30A     -0.484303
      31A     -0.481562    32A     -0.475035    33A     -0.456086
      34A     -0.412205    35A     -0.288516

  @DF-RHF Final Energy:  -386.04490907839761

   => Energetics <=

    Nuclear Repulsion Energy =            418.3957851629540983
    One-Electron Energy =               -1352.6194811889424727
    Two-Electron Energy =                 548.1787869475907655
    Total Energy =                       -386.0449090783976089
  Basis Set: (AUG-CC-PVTZ AUX)
    Blend: AUG-CC-PVTZ-RI
    Molecular point group: c1

    Geometry (in Angstrom), charge = 0, multiplicity = 1:

       Center              X                  Y                   Z               Mass
    ------------   -----------------  -----------------  -----------------  -----------------
         O            2.684417912410    -1.330980553892    -0.026504634120    15.994914619570
         C            2.742007912410     0.028952446108     0.406907365880    12.000000000000
         C            1.444795412410     0.543139846108     0.396090565880    12.000000000000
         C           -3.558049087590     0.365622446108    -0.410232634120    12.000000000000
         C            3.662058912410     0.844498446108    -0.495928634120    12.000000000000
         C            0.261565912410    -0.098962553892    -0.000732634120    12.000000000000
         C           -2.172030087590    -0.196967553892    -0.409122634120    12.000000000000
         C           -1.072373087590     0.473303446108    -0.017679634120    12.000000000000
         C           -4.479127087590    -0.380016553892     0.558323365880    12.000000000000
         H            3.127271912410     0.072307446108     1.440410365880     1.007825032230
         H            1.256672912410     1.615394446108     0.725234365880     1.007825032230
         H           -3.520198087590     1.428394446108    -0.144348634120     1.007825032230
         H           -3.980191087590     0.308533446108    -1.422075634120     1.007825032230
         H            3.297160912410     0.786263446108    -1.523792634120     1.007825032230
         H            3.690205912410     1.893438446108    -0.187163634120     1.007825032230
         H            4.685977912410     0.456219446108    -0.460887634120     1.007825032230
         H            0.375258912410    -1.131512553892    -0.322990634120     1.007825032230
         H           -2.066168087590    -1.235174553892    -0.730466634120     1.007825032230
         H           -1.173652087590     1.511050446108     0.306432365880     1.007825032230
         H           -4.534366087590    -1.442272553892     0.303265365880     1.007825032230
         H           -5.494163087590     0.026692446108     0.531016365880     1.007825032230
         H           -4.103128087590    -0.299484553892     1.581478365880     1.007825032230
         H            3.594011912410    -1.673891553892    -0.004391634120     1.007825032230

  Basis Set: AUG-CC-PVTZ
    Blend: AUG-CC-PVTZ
  Basis Set: (AUG-CC-PVTZ AUX)
    Blend: AUG-CC-PVTZ-JKFIT
	 Reference Energy          =    -386.0449090783976089 [Eh]
	 Singles Energy            =      -0.0000000000000000 [Eh]
	 Same-Spin Energy          =      -0.4025766484677400 [Eh]
	 Opposite-Spin Energy      =      -1.3816517792112055 [Eh]
	 Correlation Energy        =      -1.7842284276789455 [Eh]
	 Total Energy              =    -387.8291375060765631 [Eh]

	 ================> DF-SCS-MP2 Energies <==================
	-----------------------------------------------------------
	 SCS Same-Spin Scale       =       0.3333333333333333 [-]
	 SCS Opposite-Spin Scale   =       1.2000000000000000 [-]
	 SCS Same-Spin Energy      =      -0.1341922161559133 [Eh]
	 SCS Opposite-Spin Energy  =      -1.6579821350534465 [Eh]
	 SCS Correlation Energy    =      -1.7921743512093598 [Eh]
	 SCS Total Energy          =    -387.8370834296069916 [Eh]
	-----------------------------------------------------------

  Dipole Moment: [D]
     X:     1.2238      Y:     0.7261      Z:     0.3091     Total:     1.4562

*** Psi4 exiting successfully. Buy a developer a beer!
