                               Psi4 1.3.2 release

  ==> Input File <==

--------------------------------------------------------------------------
#psi4
#
memory 32 gb

molecule  {
0 1
  O        2.6932640    -1.3344870    -0.0264310
  C        2.7508540     0.0254460     0.4069810
  C        1.3606810     0.5764810     0.3953890
  C       -3.5492030     0.3621160    -0.4101590
  C        3.6709050     0.8409920    -0.4958550
  C        0.2704120    -0.1024690    -0.0006590
  C       -2.1829914    -0.2468759    -0.4224895
  C       -1.0635270     0.4697970    -0.0176060
  C       -4.4702810    -0.3835230     0.5583970
  H        3.1361180     0.0688010     1.4404840
  H        1.2655190     1.6118880     0.7253080
  H       -3.5494260     1.4264217    -0.1477382
  H       -3.9713450     0.3050270    -1.4220020
  H        3.3060070     0.7827570    -1.5237190
  H        3.6990520     1.8899320    -0.1870900
  H        4.6948240     0.4527130    -0.4608140
  H        0.3841050    -1.1350190    -0.3229170
  H       -2.0573220    -1.2386810    -0.7303930
  H       -1.1648060     1.5075440     0.3065060
  H       -4.5255200    -1.4457790     0.3033390
  H       -5.4853170     0.0231860     0.5310900
  H       -4.0942820    -0.3029910     1.5815520
  H        3.6028580    -1.6773980    -0.0043180
units angstrom
no_reorient  #important for SAPT in psi4, default
symmetry c1  #important for SAPT in psi4, default
}

set PROPERTIES_ORIGIN ["COM"]
properties('MP2/aug-cc-pvtz', properties = ['dipole'])
--------------------------------------------------------------------------

    Molecular point group: c1
  Charge       = 0
  Multiplicity = 1
  Basis Set: AUG-CC-PVTZ
    Blend: AUG-CC-PVTZ
  Basis Set: (AUG-CC-PVTZ AUX)
    Blend: AUG-CC-PVTZ-JKFIT

    Orbital Energies [Eh]
    ---------------------

    Doubly Occupied:

       1A    -20.558585     2A    -11.286271     3A    -11.229871
       4A    -11.228186     5A    -11.223301     6A    -11.223073
       7A    -11.221442     8A    -11.220375     9A    -11.211873
      10A     -1.360470    11A     -1.094350    12A     -1.060867
      13A     -1.015073    14A     -0.958523    15A     -0.876659
      16A     -0.825834    17A     -0.761892    18A     -0.747205
      19A     -0.694691    20A     -0.637506    21A     -0.626576
      22A     -0.616459    23A     -0.591354    24A     -0.580168
      25A     -0.548400    26A     -0.545157    27A     -0.529432
      28A     -0.515529    29A     -0.499767    30A     -0.493391
      31A     -0.484621    32A     -0.466138    33A     -0.452624
      34A     -0.414428    35A     -0.291408

  @DF-RHF Final Energy:  -386.05660944872380

   => Energetics <=

    Nuclear Repulsion Energy =            417.4791826826138390
    One-Electron Energy =               -1350.8885780066216284
    Two-Electron Energy =                 547.3527858752840984
    Total Energy =                       -386.0566094487237478
  Basis Set: (AUG-CC-PVTZ AUX)
    Blend: AUG-CC-PVTZ-RI
    Molecular point group: c1

    Geometry (in Angstrom), charge = 0, multiplicity = 1:

       Center              X                  Y                   Z               Mass
    ------------   -----------------  -----------------  -----------------  -----------------
         O            2.695453102397    -1.330083631656    -0.025124201638    15.994914619570
         C            2.753043102397     0.029849368344     0.408287798362    12.000000000000
         C            1.362870102397     0.580884368344     0.396695798362    12.000000000000
         C           -3.547013897603     0.366519368344    -0.408852201638    12.000000000000
         C            3.673094102397     0.845395368344    -0.494548201638    12.000000000000
         C            0.272601102397    -0.098065631656     0.000647798362    12.000000000000
         C           -2.180802297603    -0.242472531656    -0.421182701638    12.000000000000
         C           -1.061337897603     0.474200368344    -0.016299201638    12.000000000000
         C           -4.468091897603    -0.379119631656     0.559703798362    12.000000000000
         H            3.138307102397     0.073204368344     1.441790798362     1.007825032230
         H            1.267708102397     1.616291368344     0.726614798362     1.007825032230
         H           -3.547236897603     1.430825068344    -0.146431401638     1.007825032230
         H           -3.969155897603     0.309430368344    -1.420695201638     1.007825032230
         H            3.308196102397     0.787160368344    -1.522412201638     1.007825032230
         H            3.701241102397     1.894335368344    -0.185783201638     1.007825032230
         H            4.697013102397     0.457116368344    -0.459507201638     1.007825032230
         H            0.386294102397    -1.130615631656    -0.321610201638     1.007825032230
         H           -2.055132897603    -1.234277631656    -0.729086201638     1.007825032230
         H           -1.162616897603     1.511947368344     0.307812798362     1.007825032230
         H           -4.523330897603    -1.441375631656     0.304645798362     1.007825032230
         H           -5.483127897603     0.027589368344     0.532396798362     1.007825032230
         H           -4.092092897603    -0.298587631656     1.582858798362     1.007825032230
         H            3.605047102397    -1.672994631656    -0.003011201638     1.007825032230

  Basis Set: AUG-CC-PVTZ
    Blend: AUG-CC-PVTZ
  Basis Set: (AUG-CC-PVTZ AUX)
    Blend: AUG-CC-PVTZ-JKFIT
	 Reference Energy          =    -386.0566094487238047 [Eh]
	 Singles Energy            =      -0.0000000000000000 [Eh]
	 Same-Spin Energy          =      -0.4008618194736602 [Eh]
	 Opposite-Spin Energy      =      -1.3795181414102147 [Eh]
	 Correlation Energy        =      -1.7803799608838748 [Eh]
	 Total Energy              =    -387.8369894096076678 [Eh]

	 ================> DF-SCS-MP2 Energies <==================
	-----------------------------------------------------------
	 SCS Same-Spin Scale       =       0.3333333333333333 [-]
	 SCS Opposite-Spin Scale   =       1.2000000000000000 [-]
	 SCS Same-Spin Energy      =      -0.1336206064912200 [Eh]
	 SCS Opposite-Spin Energy  =      -1.6554217696922575 [Eh]
	 SCS Correlation Energy    =      -1.7890423761834775 [Eh]
	 SCS Total Energy          =    -387.8456518249072928 [Eh]
	-----------------------------------------------------------

  Dipole Moment: [D]
     X:     1.2080      Y:     0.7271      Z:     0.2934     Total:     1.4401

*** Psi4 exiting successfully. Buy a developer a beer!
