                               Psi4 1.3.2 release

  ==> Input File <==

--------------------------------------------------------------------------
#psi4
#
memory 32 gb

molecule  {
0 1
  O        2.6932640    -1.3344870    -0.0264310
  C        2.7508540     0.0254460     0.4069810
  C        1.3684246     0.5950489     0.3787612
  C       -3.5492030     0.3621160    -0.4101590
  C        3.6504274     0.8568548    -0.5020015
  C        0.2704120    -0.1024690    -0.0006590
  C       -2.1631840    -0.2004740    -0.4090490
  C       -1.0635270     0.4697970    -0.0176060
  C       -4.4702810    -0.3835230     0.5583970
  H        3.1361180     0.0688010     1.4404840
  H        1.2655190     1.6118880     0.7253080
  H       -3.5113520     1.4248880    -0.1442750
  H       -3.9713450     0.3050270    -1.4220020
  H        3.3060070     0.7827570    -1.5237190
  H        3.6990520     1.8899320    -0.1870900
  H        4.6948240     0.4527130    -0.4608140
  H        0.3841050    -1.1350190    -0.3229170
  H       -2.0573220    -1.2386810    -0.7303930
  H       -1.1648060     1.5075440     0.3065060
  H       -4.5255200    -1.4457790     0.3033390
  H       -5.4853170     0.0231860     0.5310900
  H       -4.0942820    -0.3029910     1.5815520
  H        3.6028580    -1.6773980    -0.0043180
units angstrom
no_reorient  #important for SAPT in psi4, default
symmetry c1  #important for SAPT in psi4, default
}

set PROPERTIES_ORIGIN ["COM"]
properties('MP2/aug-cc-pvtz', properties = ['dipole'])
--------------------------------------------------------------------------

    Molecular point group: c1
  Charge       = 0
  Multiplicity = 1
  Basis Set: AUG-CC-PVTZ
    Blend: AUG-CC-PVTZ
  Basis Set: (AUG-CC-PVTZ AUX)
    Blend: AUG-CC-PVTZ-JKFIT

    Orbital Energies [Eh]
    ---------------------

    Doubly Occupied:

       1A    -20.559590     2A    -11.286593     3A    -11.225699
       4A    -11.224495     5A    -11.223162     6A    -11.222903
       7A    -11.222422     8A    -11.220340     9A    -11.212715
      10A     -1.360908    11A     -1.097200    12A     -1.061403
      13A     -1.016190    14A     -0.961063    15A     -0.876023
      16A     -0.827737    17A     -0.752837    18A     -0.749873
      19A     -0.695743    20A     -0.637311    21A     -0.626638
      22A     -0.618054    23A     -0.589403    24A     -0.582656
      25A     -0.548530    26A     -0.543464    27A     -0.527622
      28A     -0.518945    29A     -0.501884    30A     -0.491199
      31A     -0.478841    32A     -0.466722    33A     -0.454106
      34A     -0.417251    35A     -0.295720

  @DF-RHF Final Energy:  -386.06082449797839

   => Energetics <=

    Nuclear Repulsion Energy =            417.9660725899348677
    One-Electron Energy =               -1351.8633067061109614
    Two-Electron Energy =                 547.8364096181977629
    Total Energy =                       -386.0608244979783876
  Basis Set: (AUG-CC-PVTZ AUX)
    Blend: AUG-CC-PVTZ-RI
    Molecular point group: c1

    Geometry (in Angstrom), charge = 0, multiplicity = 1:

       Center              X                  Y                   Z               Mass
    ------------   -----------------  -----------------  -----------------  -----------------
         O            2.694475716464    -1.337763339890    -0.024263682541    15.994914619570
         C            2.752065716464     0.022169660110     0.409148317459    12.000000000000
         C            1.369636316464     0.591772560110     0.380928517459    12.000000000000
         C           -3.547991283536     0.358839660110    -0.407991682541    12.000000000000
         C            3.651639116464     0.853578460110    -0.499834182541    12.000000000000
         C            0.271623716464    -0.105745339890     0.001508317459    12.000000000000
         C           -2.161972283536    -0.203750339890    -0.406881682541    12.000000000000
         C           -1.062315283536     0.466520660110    -0.015438682541    12.000000000000
         C           -4.469069283536    -0.386799339890     0.560564317459    12.000000000000
         H            3.137329716464     0.065524660110     1.442651317459     1.007825032230
         H            1.266730716464     1.608611660110     0.727475317459     1.007825032230
         H           -3.510140283536     1.421611660110    -0.142107682541     1.007825032230
         H           -3.970133283536     0.301750660110    -1.419834682541     1.007825032230
         H            3.307218716464     0.779480660110    -1.521551682541     1.007825032230
         H            3.700263716464     1.886655660110    -0.184922682541     1.007825032230
         H            4.696035716464     0.449436660110    -0.458646682541     1.007825032230
         H            0.385316716464    -1.138295339890    -0.320749682541     1.007825032230
         H           -2.056110283536    -1.241957339890    -0.728225682541     1.007825032230
         H           -1.163594283536     1.504267660110     0.308673317459     1.007825032230
         H           -4.524308283536    -1.449055339890     0.305506317459     1.007825032230
         H           -5.484105283536     0.019909660110     0.533257317459     1.007825032230
         H           -4.093070283536    -0.306267339890     1.583719317459     1.007825032230
         H            3.604069716464    -1.680674339890    -0.002150682541     1.007825032230

  Basis Set: AUG-CC-PVTZ
    Blend: AUG-CC-PVTZ
  Basis Set: (AUG-CC-PVTZ AUX)
    Blend: AUG-CC-PVTZ-JKFIT
	 Reference Energy          =    -386.0608244979783876 [Eh]
	 Singles Energy            =      -0.0000000000000000 [Eh]
	 Same-Spin Energy          =      -0.4005411439635318 [Eh]
	 Opposite-Spin Energy      =      -1.3787244117830313 [Eh]
	 Correlation Energy        =      -1.7792655557465631 [Eh]
	 Total Energy              =    -387.8400900537249640 [Eh]

	 ================> DF-SCS-MP2 Energies <==================
	-----------------------------------------------------------
	 SCS Same-Spin Scale       =       0.3333333333333333 [-]
	 SCS Opposite-Spin Scale   =       1.2000000000000000 [-]
	 SCS Same-Spin Energy      =      -0.1335137146545106 [Eh]
	 SCS Opposite-Spin Energy  =      -1.6544692941396375 [Eh]
	 SCS Correlation Energy    =      -1.7879830087941482 [Eh]
	 SCS Total Energy          =    -387.8488075067725163 [Eh]
	-----------------------------------------------------------

  Dipole Moment: [D]
     X:     1.1968      Y:     0.7318      Z:     0.3365     Total:     1.4426

*** Psi4 exiting successfully. Buy a developer a beer!
