                               Psi4 1.3.2 release

  ==> Input File <==

--------------------------------------------------------------------------
#psi4
#
memory 32 gb

molecule  {
0 1
  O        2.6932640    -1.3344870    -0.0264310
  C        2.7508540     0.0254460     0.4069810
  C        1.3606810     0.5764810     0.3953890
  C       -3.5492030     0.3621160    -0.4101590
  C        3.6709050     0.8409920    -0.4958550
  C        0.2704120    -0.1024690    -0.0006590
  C       -2.1631840    -0.2004740    -0.4090490
  C       -1.0635270     0.4697970    -0.0176060
  C       -4.4702810    -0.3835230     0.5583970
  H        3.1361180     0.0688010     1.4404840
  H        1.2655190     1.6118880     0.7253080
  H       -3.5113520     1.4248880    -0.1442750
  H       -3.9713450     0.3050270    -1.4220020
  H        3.3060070     0.7827570    -1.5237190
  H        3.6990520     1.8899320    -0.1870900
  H        4.6948240     0.4527130    -0.4608140
  H        0.3841050    -1.1350190    -0.3229170
  H       -2.0379324    -1.4288385    -0.7892502
  H       -1.1648060     1.5075440     0.3065060
  H       -4.5255200    -1.4457790     0.3033390
  H       -5.4853170     0.0231860     0.5310900
  H       -4.0942820    -0.3029910     1.5815520
  H        3.6028580    -1.6773980    -0.0043180
units angstrom
no_reorient  #important for SAPT in psi4, default
symmetry c1  #important for SAPT in psi4, default
}

set PROPERTIES_ORIGIN ["COM"]
properties('MP2/aug-cc-pvtz', properties = ['dipole'])
--------------------------------------------------------------------------

    Molecular point group: c1
  Charge       = 0
  Multiplicity = 1
  Basis Set: AUG-CC-PVTZ
    Blend: AUG-CC-PVTZ
  Basis Set: (AUG-CC-PVTZ AUX)
    Blend: AUG-CC-PVTZ-JKFIT

    Orbital Energies [Eh]
    ---------------------

    Doubly Occupied:

       1A    -20.558741     2A    -11.286691     3A    -11.247812
       4A    -11.226330     5A    -11.226115     6A    -11.223775
       7A    -11.222149     8A    -11.220711     9A    -11.213130
      10A     -1.360653    11A     -1.096837    12A     -1.060934
      13A     -1.016825    14A     -0.961558    15A     -0.876113
      16A     -0.829500    17A     -0.748865    18A     -0.734702
      19A     -0.692081    20A     -0.635761    21A     -0.626043
      22A     -0.616459    23A     -0.590134    24A     -0.581842
      25A     -0.546196    26A     -0.538863    27A     -0.520183
      28A     -0.519928    29A     -0.501383    30A     -0.492389
      31A     -0.474228    32A     -0.460495    33A     -0.453128
      34A     -0.419342    35A     -0.298888

  @DF-RHF Final Energy:  -386.04139177005874

   => Energetics <=

    Nuclear Repulsion Energy =            417.1920558974733240
    One-Electron Energy =               -1350.3093302915165168
    Two-Electron Energy =                 547.0758826239845121
    Total Energy =                       -386.0413917700586808
  Basis Set: (AUG-CC-PVTZ AUX)
    Blend: AUG-CC-PVTZ-RI
    Molecular point group: c1

    Geometry (in Angstrom), charge = 0, multiplicity = 1:

       Center              X                  Y                   Z               Mass
    ------------   -----------------  -----------------  -----------------  -----------------
         O            2.693108997814    -1.332967206080    -0.025960480830    15.994914619570
         C            2.750698997814     0.026965793920     0.407451519170    12.000000000000
         C            1.360525997814     0.578000793920     0.395859519170    12.000000000000
         C           -3.549358002186     0.363635793920    -0.409688480830    12.000000000000
         C            3.670749997814     0.842511793920    -0.495384480830    12.000000000000
         C            0.270256997814    -0.100949206080    -0.000188480830    12.000000000000
         C           -2.163339002186    -0.198954206080    -0.408578480830    12.000000000000
         C           -1.063682002186     0.471316793920    -0.017135480830    12.000000000000
         C           -4.470436002186    -0.382003206080     0.558867519170    12.000000000000
         H            3.135962997814     0.070320793920     1.440954519170     1.007825032230
         H            1.265363997814     1.613407793920     0.725778519170     1.007825032230
         H           -3.511507002186     1.426407793920    -0.143804480830     1.007825032230
         H           -3.971500002186     0.306546793920    -1.421531480830     1.007825032230
         H            3.305851997814     0.784276793920    -1.523248480830     1.007825032230
         H            3.698896997814     1.891451793920    -0.186619480830     1.007825032230
         H            4.694668997814     0.454232793920    -0.460343480830     1.007825032230
         H            0.383949997814    -1.133499206080    -0.322446480830     1.007825032230
         H           -2.038087402186    -1.427318706080    -0.788779680830     1.007825032230
         H           -1.164961002186     1.509063793920     0.306976519170     1.007825032230
         H           -4.525675002186    -1.444259206080     0.303809519170     1.007825032230
         H           -5.485472002186     0.024705793920     0.531560519170     1.007825032230
         H           -4.094437002186    -0.301471206080     1.582022519170     1.007825032230
         H            3.602702997814    -1.675878206080    -0.003847480830     1.007825032230

  Basis Set: AUG-CC-PVTZ
    Blend: AUG-CC-PVTZ
  Basis Set: (AUG-CC-PVTZ AUX)
    Blend: AUG-CC-PVTZ-JKFIT
	 Reference Energy          =    -386.0413917700587376 [Eh]
	 Singles Energy            =      -0.0000000000000000 [Eh]
	 Same-Spin Energy          =      -0.4008191863556561 [Eh]
	 Opposite-Spin Energy      =      -1.3803192164692684 [Eh]
	 Correlation Energy        =      -1.7811384028249244 [Eh]
	 Total Energy              =    -387.8225301728836598 [Eh]

	 ================> DF-SCS-MP2 Energies <==================
	-----------------------------------------------------------
	 SCS Same-Spin Scale       =       0.3333333333333333 [-]
	 SCS Opposite-Spin Scale   =       1.2000000000000000 [-]
	 SCS Same-Spin Energy      =      -0.1336063954518854 [Eh]
	 SCS Opposite-Spin Energy  =      -1.6563830597631219 [Eh]
	 SCS Correlation Energy    =      -1.7899894552150073 [Eh]
	 SCS Total Energy          =    -387.8313812252737307 [Eh]
	-----------------------------------------------------------

  Dipole Moment: [D]
     X:     1.1792      Y:     0.8494      Z:     0.3481     Total:     1.4944

*** Psi4 exiting successfully. Buy a developer a beer!
