                               Psi4 1.3.2 release

  ==> Input File <==

--------------------------------------------------------------------------
#psi4
#
memory 32 gb

molecule  {
0 1
  O        2.6932640    -1.3344870    -0.0264310
  C        2.7508540     0.0254460     0.4069810
  C        1.3606810     0.5764810     0.3953890
  C       -3.5492030     0.3621160    -0.4101590
  C        3.6709050     0.8409920    -0.4958550
  C        0.2704120    -0.1024690    -0.0006590
  C       -2.1631840    -0.2004740    -0.4090490
  C       -1.0635270     0.4697970    -0.0176060
  C       -4.4726579    -0.3720768     0.5648563
  H        3.1361180     0.0688010     1.4404840
  H        1.2655190     1.6118880     0.7253080
  H       -3.5173548     1.4232415    -0.1370112
  H       -3.9713450     0.3050270    -1.4220020
  H        3.3060070     0.7827570    -1.5237190
  H        3.6990520     1.8899320    -0.1870900
  H        4.6948240     0.4527130    -0.4608140
  H        0.3841050    -1.1350190    -0.3229170
  H       -2.0573220    -1.2386810    -0.7303930
  H       -1.1648060     1.5075440     0.3065060
  H       -4.5255200    -1.4457790     0.3033390
  H       -5.4853170     0.0231860     0.5310900
  H       -4.0942820    -0.3029910     1.5815520
  H        3.6028580    -1.6773980    -0.0043180
units angstrom
no_reorient  #important for SAPT in psi4, default
symmetry c1  #important for SAPT in psi4, default
}

set PROPERTIES_ORIGIN ["COM"]
properties('MP2/aug-cc-pvtz', properties = ['dipole'])
--------------------------------------------------------------------------

    Molecular point group: c1
  Charge       = 0
  Multiplicity = 1
  Basis Set: AUG-CC-PVTZ
    Blend: AUG-CC-PVTZ
  Basis Set: (AUG-CC-PVTZ AUX)
    Blend: AUG-CC-PVTZ-JKFIT

    Orbital Energies [Eh]
    ---------------------

    Doubly Occupied:

       1A    -20.558726     2A    -11.286522     3A    -11.226015
       4A    -11.223719     5A    -11.223230     6A    -11.223051
       7A    -11.221815     8A    -11.220587     9A    -11.212679
      10A     -1.360626    11A     -1.097839    12A     -1.061296
      13A     -1.016180    14A     -0.962563    15A     -0.876607
      16A     -0.828455    17A     -0.752345    18A     -0.748111
      19A     -0.695298    20A     -0.637266    21A     -0.628292
      22A     -0.616711    23A     -0.590343    24A     -0.582959
      25A     -0.546459    26A     -0.543504    27A     -0.526788
      28A     -0.519224    29A     -0.501659    30A     -0.492536
      31A     -0.477021    32A     -0.468486    33A     -0.453011
      34A     -0.418403    35A     -0.297599

  @DF-RHF Final Energy:  -386.06238883288972

   => Energetics <=

    Nuclear Repulsion Energy =            417.9768679976500607
    One-Electron Energy =               -1351.8866655265849204
    Two-Electron Energy =                 547.8474086960451359
    Total Energy =                       -386.0623888328897237
  Basis Set: (AUG-CC-PVTZ AUX)
    Blend: AUG-CC-PVTZ-RI
    Molecular point group: c1

    Geometry (in Angstrom), charge = 0, multiplicity = 1:

       Center              X                  Y                   Z               Mass
    ------------   -----------------  -----------------  -----------------  -----------------
         O            2.693538117404    -1.335562994456    -0.027103580711    15.994914619570
         C            2.751128117404     0.024370005544     0.406308419289    12.000000000000
         C            1.360955117404     0.575405005544     0.394716419289    12.000000000000
         C           -3.548928882596     0.361040005544    -0.410831580711    12.000000000000
         C            3.671179117404     0.839916005544    -0.496527580711    12.000000000000
         C            0.270686117404    -0.103544994456    -0.001331580711    12.000000000000
         C           -2.162909882596    -0.201549994456    -0.409721580711    12.000000000000
         C           -1.063252882596     0.468721005544    -0.018278580711    12.000000000000
         C           -4.472383782596    -0.373152794456     0.564183719289    12.000000000000
         H            3.136392117404     0.067725005544     1.439811419289     1.007825032230
         H            1.265793117404     1.610812005544     0.724635419289     1.007825032230
         H           -3.517080682596     1.422165505544    -0.137683780711     1.007825032230
         H           -3.971070882596     0.303951005544    -1.422674580711     1.007825032230
         H            3.306281117404     0.781681005544    -1.524391580711     1.007825032230
         H            3.699326117404     1.888856005544    -0.187762580711     1.007825032230
         H            4.695098117404     0.451637005544    -0.461486580711     1.007825032230
         H            0.384379117404    -1.136094994456    -0.323589580711     1.007825032230
         H           -2.057047882596    -1.239756994456    -0.731065580711     1.007825032230
         H           -1.164531882596     1.506468005544     0.305833419289     1.007825032230
         H           -4.525245882596    -1.446854994456     0.302666419289     1.007825032230
         H           -5.485042882596     0.022110005544     0.530417419289     1.007825032230
         H           -4.094007882596    -0.304066994456     1.580879419289     1.007825032230
         H            3.603132117404    -1.678473994456    -0.004990580711     1.007825032230

  Basis Set: AUG-CC-PVTZ
    Blend: AUG-CC-PVTZ
  Basis Set: (AUG-CC-PVTZ AUX)
    Blend: AUG-CC-PVTZ-JKFIT
	 Reference Energy          =    -386.0623888328897237 [Eh]
	 Singles Energy            =      -0.0000000000000000 [Eh]
	 Same-Spin Energy          =      -0.4003406487158406 [Eh]
	 Opposite-Spin Energy      =      -1.3783250181926241 [Eh]
	 Correlation Energy        =      -1.7786656669084646 [Eh]
	 Total Energy              =    -387.8410544997981901 [Eh]

	 ================> DF-SCS-MP2 Energies <==================
	-----------------------------------------------------------
	 SCS Same-Spin Scale       =       0.3333333333333333 [-]
	 SCS Opposite-Spin Scale   =       1.2000000000000000 [-]
	 SCS Same-Spin Energy      =      -0.1334468829052802 [Eh]
	 SCS Opposite-Spin Energy  =      -1.6539900218311490 [Eh]
	 SCS Correlation Energy    =      -1.7874369047364291 [Eh]
	 SCS Total Energy          =    -387.8498257376261336 [Eh]
	-----------------------------------------------------------

  Dipole Moment: [D]
     X:     1.2115      Y:     0.7362      Z:     0.3136     Total:     1.4519

*** Psi4 exiting successfully. Buy a developer a beer!
