                               Psi4 1.3.2 release

  ==> Input File <==

--------------------------------------------------------------------------
#psi4
#
memory 32 gb

molecule  {
0 1
  O        2.6932640    -1.3344870    -0.0264310
  C        2.7508540     0.0254460     0.4069810
  C        1.3606810     0.5764810     0.3953890
  C       -3.5492030     0.3621160    -0.4101590
  C        3.6709050     0.8409920    -0.4958550
  C        0.2704120    -0.1024690    -0.0006590
  C       -2.1631840    -0.2004740    -0.4090490
  C       -1.0635270     0.4697970    -0.0176060
  C       -4.4702810    -0.3835230     0.5583970
  H        3.1361180     0.0688010     1.4404840
  H        1.2655190     1.6118880     0.7253080
  H       -3.5113520     1.4248880    -0.1442750
  H       -3.9713450     0.3050270    -1.4220020
  H        3.3060070     0.7827570    -1.5237190
  H        3.6990520     1.8899320    -0.1870900
  H        4.6948240     0.4527130    -0.4608140
  H        0.3841050    -1.1350190    -0.3229170
  H       -2.0573220    -1.2386810    -0.7303930
  H       -1.1833571     1.6976266     0.3658731
  H       -4.5255200    -1.4457790     0.3033390
  H       -5.4853170     0.0231860     0.5310900
  H       -4.0942820    -0.3029910     1.5815520
  H        3.6028580    -1.6773980    -0.0043180
units angstrom
no_reorient  #important for SAPT in psi4, default
symmetry c1  #important for SAPT in psi4, default
}

set PROPERTIES_ORIGIN ["COM"]
properties('MP2/aug-cc-pvtz', properties = ['dipole'])
--------------------------------------------------------------------------

    Molecular point group: c1
  Charge       = 0
  Multiplicity = 1
  Basis Set: AUG-CC-PVTZ
    Blend: AUG-CC-PVTZ
  Basis Set: (AUG-CC-PVTZ AUX)
    Blend: AUG-CC-PVTZ-JKFIT

    Orbital Energies [Eh]
    ---------------------

    Doubly Occupied:

       1A    -20.559370     2A    -11.287074     3A    -11.245700
       4A    -11.227926     5A    -11.225491     6A    -11.223387
       7A    -11.223210     8A    -11.221019     9A    -11.212779
      10A     -1.361294    11A     -1.096295    12A     -1.061904
      13A     -1.015511    14A     -0.962166    15A     -0.876722
      16A     -0.828239    17A     -0.751162    18A     -0.735477
      19A     -0.691925    20A     -0.635961    21A     -0.628348
      22A     -0.616236    23A     -0.587396    24A     -0.578151
      25A     -0.546993    26A     -0.543032    27A     -0.520657
      28A     -0.518956    29A     -0.499021    30A     -0.486611
      31A     -0.478111    32A     -0.461914    33A     -0.453675
      34A     -0.420053    35A     -0.298803

  @DF-RHF Final Energy:  -386.04107501588953

   => Energetics <=

    Nuclear Repulsion Energy =            417.1628975854331429
    One-Electron Energy =               -1350.2468109936166911
    Two-Electron Energy =                 547.0428383922940156
    Total Energy =                       -386.0410750158895326
  Basis Set: (AUG-CC-PVTZ AUX)
    Blend: AUG-CC-PVTZ-RI
    Molecular point group: c1

    Geometry (in Angstrom), charge = 0, multiplicity = 1:

       Center              X                  Y                   Z               Mass
    ------------   -----------------  -----------------  -----------------  -----------------
         O            2.693412219331    -1.336006079373    -0.026905327699    15.994914619570
         C            2.751002219331     0.023926920627     0.406506672301    12.000000000000
         C            1.360829219331     0.574961920627     0.394914672301    12.000000000000
         C           -3.549054780669     0.360596920627    -0.410633327699    12.000000000000
         C            3.671053219331     0.839472920627    -0.496329327699    12.000000000000
         C            0.270560219331    -0.103988079373    -0.001133327699    12.000000000000
         C           -2.163035780669    -0.201993079373    -0.409523327699    12.000000000000
         C           -1.063378780669     0.468277920627    -0.018080327699    12.000000000000
         C           -4.470132780669    -0.385042079373     0.557922672301    12.000000000000
         H            3.136266219331     0.067281920627     1.440009672301     1.007825032230
         H            1.265667219331     1.610368920627     0.724833672301     1.007825032230
         H           -3.511203780669     1.423368920627    -0.144749327699     1.007825032230
         H           -3.971196780669     0.303507920627    -1.422476327699     1.007825032230
         H            3.306155219331     0.781237920627    -1.524193327699     1.007825032230
         H            3.699200219331     1.888412920627    -0.187564327699     1.007825032230
         H            4.694972219331     0.451193920627    -0.461288327699     1.007825032230
         H            0.384253219331    -1.136538079373    -0.323391327699     1.007825032230
         H           -2.057173780669    -1.240200079373    -0.730867327699     1.007825032230
         H           -1.183208880669     1.696107520627     0.365398772301     1.007825032230
         H           -4.525371780669    -1.447298079373     0.302864672301     1.007825032230
         H           -5.485168780669     0.021666920627     0.530615672301     1.007825032230
         H           -4.094133780669    -0.304510079373     1.581077672301     1.007825032230
         H            3.603006219331    -1.678917079373    -0.004792327699     1.007825032230

  Basis Set: AUG-CC-PVTZ
    Blend: AUG-CC-PVTZ
  Basis Set: (AUG-CC-PVTZ AUX)
    Blend: AUG-CC-PVTZ-JKFIT
	 Reference Energy          =    -386.0410750158895326 [Eh]
	 Singles Energy            =      -0.0000000000000000 [Eh]
	 Same-Spin Energy          =      -0.4009503042363833 [Eh]
	 Opposite-Spin Energy      =      -1.3804747527534440 [Eh]
	 Correlation Energy        =      -1.7814250569898273 [Eh]
	 Total Energy              =    -387.8225000728793361 [Eh]

	 ================> DF-SCS-MP2 Energies <==================
	-----------------------------------------------------------
	 SCS Same-Spin Scale       =       0.3333333333333333 [-]
	 SCS Opposite-Spin Scale   =       1.2000000000000000 [-]
	 SCS Same-Spin Energy      =      -0.1336501014121278 [Eh]
	 SCS Opposite-Spin Energy  =      -1.6565697033041327 [Eh]
	 SCS Correlation Energy    =      -1.7902198047162605 [Eh]
	 SCS Total Energy          =    -387.8312948206058195 [Eh]
	-----------------------------------------------------------

  Dipole Moment: [D]
     X:     1.2656      Y:     0.6117      Z:     0.2781     Total:     1.4329

*** Psi4 exiting successfully. Buy a developer a beer!
