                               Psi4 1.3.2 release

  ==> Input File <==

--------------------------------------------------------------------------
#psi4
#
memory 32 gb

molecule  {
0 1
  O        2.6932640    -1.3344870    -0.0264310
  C        2.7508540     0.0254460     0.4069810
  C        1.3606810     0.5764810     0.3953890
  C       -3.5492030     0.3621160    -0.4101590
  C        3.6709050     0.8409920    -0.4958550
  C        0.2704120    -0.1024690    -0.0006590
  C       -2.1499170    -0.2194158    -0.4131802
  C       -1.0635270     0.4697970    -0.0176060
  C       -4.4702810    -0.3835230     0.5583970
  H        3.1361180     0.0688010     1.4404840
  H        1.2655190     1.6118880     0.7253080
  H       -3.5113520     1.4248880    -0.1442750
  H       -3.9713450     0.3050270    -1.4220020
  H        3.3060070     0.7827570    -1.5237190
  H        3.6990520     1.8899320    -0.1870900
  H        4.6948240     0.4527130    -0.4608140
  H        0.3841050    -1.1350190    -0.3229170
  H       -2.0573220    -1.2386810    -0.7303930
  H       -1.1460243     1.5082164     0.3096619
  H       -4.5255200    -1.4457790     0.3033390
  H       -5.4853170     0.0231860     0.5310900
  H       -4.0942820    -0.3029910     1.5815520
  H        3.6028580    -1.6773980    -0.0043180
units angstrom
no_reorient  #important for SAPT in psi4, default
symmetry c1  #important for SAPT in psi4, default
}

set PROPERTIES_ORIGIN ["COM"]
properties('MP2/aug-cc-pvtz', properties = ['dipole'])
--------------------------------------------------------------------------

    Molecular point group: c1
  Charge       = 0
  Multiplicity = 1
  Basis Set: AUG-CC-PVTZ
    Blend: AUG-CC-PVTZ
  Basis Set: (AUG-CC-PVTZ AUX)
    Blend: AUG-CC-PVTZ-JKFIT

    Orbital Energies [Eh]
    ---------------------

    Doubly Occupied:

       1A    -20.558546     2A    -11.286259     3A    -11.225543
       4A    -11.223857     5A    -11.223486     6A    -11.222741
       7A    -11.221125     8A    -11.220401     9A    -11.212316
      10A     -1.360432    11A     -1.097130    12A     -1.059650
      13A     -1.015674    14A     -0.962309    15A     -0.875431
      16A     -0.827181    17A     -0.756067    18A     -0.747743
      19A     -0.695044    20A     -0.637870    21A     -0.626672
      22A     -0.616625    23A     -0.589307    24A     -0.581926
      25A     -0.547265    26A     -0.544891    27A     -0.529154
      28A     -0.516864    29A     -0.499858    30A     -0.491863
      31A     -0.481168    32A     -0.464876    33A     -0.452808
      34A     -0.418576    35A     -0.297559

  @DF-RHF Final Energy:  -386.06222066834312

   => Energetics <=

    Nuclear Repulsion Energy =            417.9059696630256440
    One-Electron Energy =               -1351.7599424364261722
    Two-Electron Energy =                 547.7917521050574123
    Total Energy =                       -386.0622206683431159
  Basis Set: (AUG-CC-PVTZ AUX)
    Blend: AUG-CC-PVTZ-RI
    Molecular point group: c1

    Geometry (in Angstrom), charge = 0, multiplicity = 1:

       Center              X                  Y                   Z               Mass
    ------------   -----------------  -----------------  -----------------  -----------------
         O            2.691851379037    -1.332689829304    -0.026062966928    15.994914619570
         C            2.749441379037     0.027243170696     0.407349033072    12.000000000000
         C            1.359268379037     0.578278170696     0.395757033072    12.000000000000
         C           -3.550615620963     0.363913170696    -0.409790966928    12.000000000000
         C            3.669492379037     0.842789170696    -0.495486966928    12.000000000000
         C            0.268999379037    -0.100671829304    -0.000290966928    12.000000000000
         C           -2.151329620963    -0.217618629304    -0.412812166928    12.000000000000
         C           -1.064939620963     0.471594170696    -0.017237966928    12.000000000000
         C           -4.471693620963    -0.381725829304     0.558765033072    12.000000000000
         H            3.134705379037     0.070598170696     1.440852033072     1.007825032230
         H            1.264106379037     1.613685170696     0.725676033072     1.007825032230
         H           -3.512764620963     1.426685170696    -0.143906966928     1.007825032230
         H           -3.972757620963     0.306824170696    -1.421633966928     1.007825032230
         H            3.304594379037     0.784554170696    -1.523350966928     1.007825032230
         H            3.697639379037     1.891729170696    -0.186721966928     1.007825032230
         H            4.693411379037     0.454510170696    -0.460445966928     1.007825032230
         H            0.382692379037    -1.133221829304    -0.322548966928     1.007825032230
         H           -2.058734620963    -1.236883829304    -0.730024966928     1.007825032230
         H           -1.147436920963     1.510013570696     0.310029933072     1.007825032230
         H           -4.526932620963    -1.443981829304     0.303707033072     1.007825032230
         H           -5.486729620963     0.024983170696     0.531458033072     1.007825032230
         H           -4.095694620963    -0.301193829304     1.581920033072     1.007825032230
         H            3.601445379037    -1.675600829304    -0.003949966928     1.007825032230

  Basis Set: AUG-CC-PVTZ
    Blend: AUG-CC-PVTZ
  Basis Set: (AUG-CC-PVTZ AUX)
    Blend: AUG-CC-PVTZ-JKFIT
	 Reference Energy          =    -386.0622206683431159 [Eh]
	 Singles Energy            =      -0.0000000000000000 [Eh]
	 Same-Spin Energy          =      -0.4001489634712745 [Eh]
	 Opposite-Spin Energy      =      -1.3781600069991349 [Eh]
	 Correlation Energy        =      -1.7783089704704094 [Eh]
	 Total Energy              =    -387.8405296388135071 [Eh]

	 ================> DF-SCS-MP2 Energies <==================
	-----------------------------------------------------------
	 SCS Same-Spin Scale       =       0.3333333333333333 [-]
	 SCS Opposite-Spin Scale   =       1.2000000000000000 [-]
	 SCS Same-Spin Energy      =      -0.1333829878237582 [Eh]
	 SCS Opposite-Spin Energy  =      -1.6537920083989619 [Eh]
	 SCS Correlation Energy    =      -1.7871749962227201 [Eh]
	 SCS Total Energy          =    -387.8493956645658614 [Eh]
	-----------------------------------------------------------

  Dipole Moment: [D]
     X:     1.2182      Y:     0.7212      Z:     0.3067     Total:     1.4485

*** Psi4 exiting successfully. Buy a developer a beer!
