                               Psi4 1.3.2 release

  ==> Input File <==

--------------------------------------------------------------------------
#psi4
#
memory 32 gb

molecule  {
0 1
  O        2.6932640    -1.3344870    -0.0264310
  C        2.7508540     0.0254460     0.4069810
  C        1.3606810     0.5764810     0.3953890
  C       -3.5492030     0.3621160    -0.4101590
  C        3.6709050     0.8409920    -0.4958550
  C        0.2704120    -0.1024690    -0.0006590
  C       -2.1631840    -0.2004740    -0.4090490
  C       -1.0635270     0.4697970    -0.0176060
  C       -4.4545533    -0.4509775     0.5181097
  H        3.1361180     0.0688010     1.4404840
  H        1.2655190     1.6118880     0.7253080
  H       -3.4754117     1.4330635    -0.1882635
  H       -3.9713450     0.3050270    -1.4220020
  H        3.3060070     0.7827570    -1.5237190
  H        3.6990520     1.8899320    -0.1870900
  H        4.6948240     0.4527130    -0.4608140
  H        0.3841050    -1.1350190    -0.3229170
  H       -2.0573220    -1.2386810    -0.7303930
  H       -1.1648060     1.5075440     0.3065060
  H       -4.5255200    -1.4457790     0.3033390
  H       -5.4853170     0.0231860     0.5310900
  H       -4.0942820    -0.3029910     1.5815520
  H        3.6028580    -1.6773980    -0.0043180
units angstrom
no_reorient  #important for SAPT in psi4, default
symmetry c1  #important for SAPT in psi4, default
}

set PROPERTIES_ORIGIN ["COM"]
properties('MP2/aug-cc-pvtz', properties = ['dipole'])
--------------------------------------------------------------------------

    Molecular point group: c1
  Charge       = 0
  Multiplicity = 1
  Basis Set: AUG-CC-PVTZ
    Blend: AUG-CC-PVTZ
  Basis Set: (AUG-CC-PVTZ AUX)
    Blend: AUG-CC-PVTZ-JKFIT

    Orbital Energies [Eh]
    ---------------------

    Doubly Occupied:

       1A    -20.558484     2A    -11.286201     3A    -11.225432
       4A    -11.224092     5A    -11.223192     6A    -11.222366
       7A    -11.221342     8A    -11.220332     9A    -11.214912
      10A     -1.360372    11A     -1.097994    12A     -1.061701
      13A     -1.016157    14A     -0.962262    15A     -0.877277
      16A     -0.829961    17A     -0.753160    18A     -0.747755
      19A     -0.695052    20A     -0.637848    21A     -0.626666
      22A     -0.616905    23A     -0.592841    24A     -0.581029
      25A     -0.548193    26A     -0.544192    27A     -0.532794
      28A     -0.518335    29A     -0.499189    30A     -0.487802
      31A     -0.481514    32A     -0.463145    33A     -0.452654
      34A     -0.417483    35A     -0.296734

  @DF-RHF Final Energy:  -386.05410657072173

   => Energetics <=

    Nuclear Repulsion Energy =            418.1504408558008663
    One-Electron Energy =               -1352.2183560769030919
    Two-Electron Energy =                 548.0138086503804971
    Total Energy =                       -386.0541065707217285
  Basis Set: (AUG-CC-PVTZ AUX)
    Blend: AUG-CC-PVTZ-RI
    Molecular point group: c1

    Geometry (in Angstrom), charge = 0, multiplicity = 1:

       Center              X                  Y                   Z               Mass
    ------------   -----------------  -----------------  -----------------  -----------------
         O            2.691480089515    -1.328133364252    -0.022245604028    15.994914619570
         C            2.749070089515     0.031799635748     0.411166395972    12.000000000000
         C            1.358897089515     0.582834635748     0.399574395972    12.000000000000
         C           -3.550986910485     0.368469635748    -0.405973604028    12.000000000000
         C            3.669121089515     0.847345635748    -0.491669604028    12.000000000000
         C            0.268628089515    -0.096115364252     0.003526395972    12.000000000000
         C           -2.164967910485    -0.194120364252    -0.404863604028    12.000000000000
         C           -1.065310910485     0.476150635748    -0.013420604028    12.000000000000
         C           -4.456337210485    -0.444623864252     0.522295095972    12.000000000000
         H            3.134334089515     0.075154635748     1.444669395972     1.007825032230
         H            1.263735089515     1.618241635748     0.729493395972     1.007825032230
         H           -3.477195610485     1.439417135748    -0.184078104028     1.007825032230
         H           -3.973128910485     0.311380635748    -1.417816604028     1.007825032230
         H            3.304223089515     0.789110635748    -1.519533604028     1.007825032230
         H            3.697268089515     1.896285635748    -0.182904604028     1.007825032230
         H            4.693040089515     0.459066635748    -0.456628604028     1.007825032230
         H            0.382321089515    -1.128665364252    -0.318731604028     1.007825032230
         H           -2.059105910485    -1.232327364252    -0.726207604028     1.007825032230
         H           -1.166589910485     1.513897635748     0.310691395972     1.007825032230
         H           -4.527303910485    -1.439425364252     0.307524395972     1.007825032230
         H           -5.487100910485     0.029539635748     0.535275395972     1.007825032230
         H           -4.096065910485    -0.296637364252     1.585737395972     1.007825032230
         H            3.601074089515    -1.671044364252    -0.000132604028     1.007825032230

  Basis Set: AUG-CC-PVTZ
    Blend: AUG-CC-PVTZ
  Basis Set: (AUG-CC-PVTZ AUX)
    Blend: AUG-CC-PVTZ-JKFIT
	 Reference Energy          =    -386.0541065707217285 [Eh]
	 Singles Energy            =      -0.0000000000000000 [Eh]
	 Same-Spin Energy          =      -0.4005624923679269 [Eh]
	 Opposite-Spin Energy      =      -1.3787425976384577 [Eh]
	 Correlation Energy        =      -1.7793050900063847 [Eh]
	 Total Energy              =    -387.8334116607281317 [Eh]

	 ================> DF-SCS-MP2 Energies <==================
	-----------------------------------------------------------
	 SCS Same-Spin Scale       =       0.3333333333333333 [-]
	 SCS Opposite-Spin Scale   =       1.2000000000000000 [-]
	 SCS Same-Spin Energy      =      -0.1335208307893090 [Eh]
	 SCS Opposite-Spin Energy  =      -1.6544911171661492 [Eh]
	 SCS Correlation Energy    =      -1.7880119479554581 [Eh]
	 SCS Total Energy          =    -387.8421185186771822 [Eh]
	-----------------------------------------------------------

  Dipole Moment: [D]
     X:     1.1802      Y:     0.6993      Z:     0.2801     Total:     1.4001

*** Psi4 exiting successfully. Buy a developer a beer!
