                               Psi4 1.3.2 release

  ==> Input File <==

--------------------------------------------------------------------------
#psi4
#
memory 32 gb

molecule  {
0 1
  O        2.6932640    -1.3344870    -0.0264310
  C        2.7508540     0.0254460     0.4069810
  C        1.3606810     0.5764810     0.3953890
  C       -3.5492030     0.3621160    -0.4101590
  C        3.6709050     0.8409920    -0.4958550
  C        0.2704120    -0.1024690    -0.0006590
  C       -2.1935209    -0.2698022    -0.4292051
  C       -1.0635270     0.4697970    -0.0176060
  C       -4.4702810    -0.3835230     0.5583970
  H        3.1361180     0.0688010     1.4404840
  H        1.2655190     1.6118880     0.7253080
  H       -3.5684659     1.4267023    -0.1495899
  H       -3.9713450     0.3050270    -1.4220020
  H        3.3060070     0.7827570    -1.5237190
  H        3.6990520     1.8899320    -0.1870900
  H        4.6948240     0.4527130    -0.4608140
  H        0.3841050    -1.1350190    -0.3229170
  H       -2.0573220    -1.2386810    -0.7303930
  H       -1.1648060     1.5075440     0.3065060
  H       -4.5255200    -1.4457790     0.3033390
  H       -5.4853170     0.0231860     0.5310900
  H       -4.0942820    -0.3029910     1.5815520
  H        3.6028580    -1.6773980    -0.0043180
units angstrom
no_reorient  #important for SAPT in psi4, default
symmetry c1  #important for SAPT in psi4, default
}

set PROPERTIES_ORIGIN ["COM"]
properties('MP2/aug-cc-pvtz', properties = ['dipole'])
--------------------------------------------------------------------------

    Molecular point group: c1
  Charge       = 0
  Multiplicity = 1
  Basis Set: AUG-CC-PVTZ
    Blend: AUG-CC-PVTZ
  Basis Set: (AUG-CC-PVTZ AUX)
    Blend: AUG-CC-PVTZ-JKFIT

    Orbital Energies [Eh]
    ---------------------

    Doubly Occupied:

       1A    -20.558560     2A    -11.286215     3A    -11.232786
       4A    -11.229897     5A    -11.223520     6A    -11.222976
       7A    -11.221340     8A    -11.220324     9A    -11.211445
      10A     -1.360442    11A     -1.092914    12A     -1.060768
      13A     -1.014627    14A     -0.956704    15A     -0.876830
      16A     -0.824670    17A     -0.766889    18A     -0.746823
      19A     -0.694382    20A     -0.637449    21A     -0.626116
      22A     -0.616323    23A     -0.592784    24A     -0.578674
      25A     -0.550337    26A     -0.545346    27A     -0.530284
      28A     -0.514164    29A     -0.499526    30A     -0.494848
      31A     -0.486051    32A     -0.463739    33A     -0.452497
      34A     -0.412701    35A     -0.288396

  @DF-RHF Final Energy:  -386.05036000332768

   => Energetics <=

    Nuclear Repulsion Energy =            417.2248964459787430
    One-Electron Energy =               -1350.3678191665408121
    Two-Electron Energy =                 547.0925627172343866
    Total Energy =                       -386.0503600033276825
  Basis Set: (AUG-CC-PVTZ AUX)
    Blend: AUG-CC-PVTZ-RI
    Molecular point group: c1

    Geometry (in Angstrom), charge = 0, multiplicity = 1:

       Center              X                  Y                   Z               Mass
    ------------   -----------------  -----------------  -----------------  -----------------
         O            2.696607247794    -1.327904225843    -0.024470351756    15.994914619570
         C            2.754197247794     0.032028774157     0.408941648244    12.000000000000
         C            1.364024247794     0.583063774157     0.397349648244    12.000000000000
         C           -3.545859752206     0.368698774157    -0.408198351756    12.000000000000
         C            3.674248247794     0.847574774157    -0.493894351756    12.000000000000
         C            0.273755247794    -0.095886225843     0.001301648244    12.000000000000
         C           -2.190177652206    -0.263219425843    -0.427244451756    12.000000000000
         C           -1.060183752206     0.476379774157    -0.015645351756    12.000000000000
         C           -4.466937752206    -0.376940225843     0.560357648244    12.000000000000
         H            3.139461247794     0.075383774157     1.442444648244     1.007825032230
         H            1.268862247794     1.618470774157     0.727268648244     1.007825032230
         H           -3.565122652206     1.433285074157    -0.147629251756     1.007825032230
         H           -3.968001752206     0.311609774157    -1.420041351756     1.007825032230
         H            3.309350247794     0.789339774157    -1.521758351756     1.007825032230
         H            3.702395247794     1.896514774157    -0.185129351756     1.007825032230
         H            4.698167247794     0.459295774157    -0.458853351756     1.007825032230
         H            0.387448247794    -1.128436225843    -0.320956351756     1.007825032230
         H           -2.053978752206    -1.232098225843    -0.728432351756     1.007825032230
         H           -1.161462752206     1.514126774157     0.308466648244     1.007825032230
         H           -4.522176752206    -1.439196225843     0.305299648244     1.007825032230
         H           -5.481973752206     0.029768774157     0.533050648244     1.007825032230
         H           -4.090938752206    -0.296408225843     1.583512648244     1.007825032230
         H            3.606201247794    -1.670815225843    -0.002357351756     1.007825032230

  Basis Set: AUG-CC-PVTZ
    Blend: AUG-CC-PVTZ
  Basis Set: (AUG-CC-PVTZ AUX)
    Blend: AUG-CC-PVTZ-JKFIT
	 Reference Energy          =    -386.0503600033276825 [Eh]
	 Singles Energy            =      -0.0000000000000000 [Eh]
	 Same-Spin Energy          =      -0.4012070459524543 [Eh]
	 Opposite-Spin Energy      =      -1.3803233975233520 [Eh]
	 Correlation Energy        =      -1.7815304434758064 [Eh]
	 Total Energy              =    -387.8318904468034702 [Eh]

	 ================> DF-SCS-MP2 Energies <==================
	-----------------------------------------------------------
	 SCS Same-Spin Scale       =       0.3333333333333333 [-]
	 SCS Opposite-Spin Scale   =       1.2000000000000000 [-]
	 SCS Same-Spin Energy      =      -0.1337356819841514 [Eh]
	 SCS Opposite-Spin Energy  =      -1.6563880770280224 [Eh]
	 SCS Correlation Energy    =      -1.7901237590121739 [Eh]
	 SCS Total Energy          =    -387.8404837623398294 [Eh]
	-----------------------------------------------------------

  Dipole Moment: [D]
     X:     1.2113      Y:     0.7303      Z:     0.2871     Total:     1.4432

*** Psi4 exiting successfully. Buy a developer a beer!
