                               Psi4 1.3.2 release

  ==> Input File <==

--------------------------------------------------------------------------
#psi4
#
memory 32 gb

molecule  {
0 1
  O        2.6932640    -1.3344870    -0.0264310
  C        2.7508540     0.0254460     0.4069810
  C        1.3606810     0.5764810     0.3953890
  C       -3.5492030     0.3621160    -0.4101590
  C        3.6709050     0.8409920    -0.4958550
  C        0.2704120    -0.1024690    -0.0006590
  C       -2.1887093    -0.1619838    -0.4004301
  C       -1.0635270     0.4697970    -0.0176060
  C       -4.4702810    -0.3835230     0.5583970
  H        3.1361180     0.0688010     1.4404840
  H        1.2655190     1.6118880     0.7253080
  H       -3.5113520     1.4248880    -0.1442750
  H       -3.9713450     0.3050270    -1.4220020
  H        3.3060070     0.7827570    -1.5237190
  H        3.6990520     1.8899320    -0.1870900
  H        4.6948240     0.4527130    -0.4608140
  H        0.3841050    -1.1350190    -0.3229170
  H       -2.0573220    -1.2386810    -0.7303930
  H       -1.2022711     1.5052512     0.2998991
  H       -4.5255200    -1.4457790     0.3033390
  H       -5.4853170     0.0231860     0.5310900
  H       -4.0942820    -0.3029910     1.5815520
  H        3.6028580    -1.6773980    -0.0043180
units angstrom
no_reorient  #important for SAPT in psi4, default
symmetry c1  #important for SAPT in psi4, default
}

set PROPERTIES_ORIGIN ["COM"]
properties('MP2/aug-cc-pvtz', properties = ['dipole'])
--------------------------------------------------------------------------

    Molecular point group: c1
  Charge       = 0
  Multiplicity = 1
  Basis Set: AUG-CC-PVTZ
    Blend: AUG-CC-PVTZ
  Basis Set: (AUG-CC-PVTZ AUX)
    Blend: AUG-CC-PVTZ-JKFIT

    Orbital Energies [Eh]
    ---------------------

    Doubly Occupied:

       1A    -20.558998     2A    -11.286936     3A    -11.227126
       4A    -11.224864     5A    -11.223195     6A    -11.222563
       7A    -11.222077     8A    -11.220870     9A    -11.213803
      10A     -1.360922    11A     -1.099892    12A     -1.064745
      13A     -1.017031    14A     -0.962929    15A     -0.879296
      16A     -0.831397    17A     -0.749715    18A     -0.744657
      19A     -0.695707    20A     -0.636924    21A     -0.630721
      22A     -0.616962    23A     -0.591826    24A     -0.584362
      25A     -0.546584    26A     -0.541544    27A     -0.524645
      28A     -0.521959    29A     -0.502919    30A     -0.493081
      31A     -0.475587    32A     -0.469196    33A     -0.453284
      34A     -0.417826    35A     -0.297387

  @DF-RHF Final Energy:  -386.05904544143243

   => Energetics <=

    Nuclear Repulsion Energy =            418.2011191982464879
    One-Electron Energy =               -1352.2972720827335706
    Two-Electron Energy =                 548.0371074430546514
    Total Energy =                       -386.0590454414324313
  Basis Set: (AUG-CC-PVTZ AUX)
    Blend: AUG-CC-PVTZ-RI
    Molecular point group: c1

    Geometry (in Angstrom), charge = 0, multiplicity = 1:

       Center              X                  Y                   Z               Mass
    ------------   -----------------  -----------------  -----------------  -----------------
         O            2.695992346867    -1.338131314638    -0.027198232088    15.994914619570
         C            2.753582346867     0.021801685362     0.406213767912    12.000000000000
         C            1.363409346867     0.572836685362     0.394621767912    12.000000000000
         C           -3.546474653133     0.358471685362    -0.410926232088    12.000000000000
         C            3.673633346867     0.837347685362    -0.496622232088    12.000000000000
         C            0.273140346867    -0.106113314638    -0.001426232088    12.000000000000
         C           -2.185980953133    -0.165628114638    -0.401197332088    12.000000000000
         C           -1.060798653133     0.466152685362    -0.018373232088    12.000000000000
         C           -4.467552653133    -0.387167314638     0.557629767912    12.000000000000
         H            3.138846346867     0.065156685362     1.439716767912     1.007825032230
         H            1.268247346867     1.608243685362     0.724540767912     1.007825032230
         H           -3.508623653133     1.421243685362    -0.145042232088     1.007825032230
         H           -3.968616653133     0.301382685362    -1.422769232088     1.007825032230
         H            3.308735346867     0.779112685362    -1.524486232088     1.007825032230
         H            3.701780346867     1.886287685362    -0.187857232088     1.007825032230
         H            4.697552346867     0.449068685362    -0.461581232088     1.007825032230
         H            0.386833346867    -1.138663314638    -0.323684232088     1.007825032230
         H           -2.054593653133    -1.242325314638    -0.731160232088     1.007825032230
         H           -1.199542753133     1.501606885362     0.299131867912     1.007825032230
         H           -4.522791653133    -1.449423314638     0.302571767912     1.007825032230
         H           -5.482588653133     0.019541685362     0.530322767912     1.007825032230
         H           -4.091553653133    -0.306635314638     1.580784767912     1.007825032230
         H            3.605586346867    -1.681042314638    -0.005085232088     1.007825032230

  Basis Set: AUG-CC-PVTZ
    Blend: AUG-CC-PVTZ
  Basis Set: (AUG-CC-PVTZ AUX)
    Blend: AUG-CC-PVTZ-JKFIT
	 Reference Energy          =    -386.0590454414324313 [Eh]
	 Singles Energy            =      -0.0000000000000000 [Eh]
	 Same-Spin Energy          =      -0.4008784082292881 [Eh]
	 Opposite-Spin Energy      =      -1.3789114361511305 [Eh]
	 Correlation Energy        =      -1.7797898443804185 [Eh]
	 Total Energy              =    -387.8388352858128769 [Eh]

	 ================> DF-SCS-MP2 Energies <==================
	-----------------------------------------------------------
	 SCS Same-Spin Scale       =       0.3333333333333333 [-]
	 SCS Opposite-Spin Scale   =       1.2000000000000000 [-]
	 SCS Same-Spin Energy      =      -0.1336261360764293 [Eh]
	 SCS Opposite-Spin Energy  =      -1.6546937233813566 [Eh]
	 SCS Correlation Energy    =      -1.7883198594577858 [Eh]
	 SCS Total Energy          =    -387.8473653008902033 [Eh]
	-----------------------------------------------------------

  Dipole Moment: [D]
     X:     1.1828      Y:     0.7498      Z:     0.3173     Total:     1.4359

*** Psi4 exiting successfully. Buy a developer a beer!
