                               Psi4 1.4a3.dev225

  ==> Input File <==

--------------------------------------------------------------------------
#psi4
#
memory 32 gb

molecule  {
0 1
  O       -2.7161510     1.3794200    -0.1343610
  C       -2.7855855     0.0264123     0.4602928
  C       -1.3979030    -0.4954620     0.4743180
  C        3.5083460    -0.4405980    -0.4123350
  C       -3.7239960    -0.8239440    -0.3625680
  C       -0.3030690     0.1219220    -0.0067100
  C        2.1282810     0.1394430    -0.4544070
  C        1.0245920    -0.4684390     0.0236420
  C        4.4606410     0.4027870     0.4416180
  H       -3.1581590     0.1412460     1.4762970
  H       -1.3112260    -1.4900120     0.9147240
  H        3.4619600    -1.4629760    -0.0187660
  H        3.9104550    -0.5133060    -1.4317100
  H       -3.3684670    -0.8811940    -1.3941910
  H       -3.7626400    -1.8335820     0.0574350
  H       -4.7426360    -0.4191700    -0.3608330
  H       -0.4078810     1.1149080    -0.4388390
  H        2.0311270     1.1370710    -0.8883280
  H        1.1170930    -1.4649260     0.4609700
  H        4.5263310     1.4251690     0.0574090
  H        5.4690900    -0.0219830     0.4454750
  H        4.1044230     0.4539160     1.4740500
  H       -3.6221830     1.7324190    -0.1413340
units angstrom
no_reorient  #important for SAPT in psi4, default
symmetry c1  #important for SAPT in psi4, default
}

set PROPERTIES_ORIGIN ["COM"]
properties('MP2/aug-cc-pvtz', properties = ['dipole'])
--------------------------------------------------------------------------

    Molecular point group: c1
  Charge       = 0
  Multiplicity = 1
  Basis Set: AUG-CC-PVTZ
    Blend: AUG-CC-PVTZ
  Basis Set: (AUG-CC-PVTZ AUX)
    Blend: AUG-CC-PVTZ-JKFIT

    Orbital Energies [Eh]
    ---------------------

    Doubly Occupied:

       1A    -20.552248     2A    -11.286967     3A    -11.227479
       4A    -11.225686     5A    -11.224447     6A    -11.224201
       7A    -11.223188     8A    -11.222099     9A    -11.213561
      10A     -1.340616    11A     -1.098350    12A     -1.063682
      13A     -1.019110    14A     -0.963774    15A     -0.878252
      16A     -0.829307    17A     -0.753084    18A     -0.745940
      19A     -0.689821    20A     -0.633948    21A     -0.628600
      22A     -0.611995    23A     -0.589522    24A     -0.581469
      25A     -0.547191    26A     -0.545334    27A     -0.523498
      28A     -0.518774    29A     -0.499804    30A     -0.490774
      31A     -0.480200    32A     -0.470638    33A     -0.453970
      34A     -0.419914    35A     -0.298670

  @DF-RHF Final Energy:  -386.05915988609479

   => Energetics <=

    Nuclear Repulsion Energy =            417.1900634367963789
    One-Electron Energy =               -1350.3462200322760509
    Two-Electron Energy =                 547.0969967093848254
    Total Energy =                       -386.0591598860947897
  Basis Set: (AUG-CC-PVTZ AUX)
    Blend: AUG-CC-PVTZ-RI
    Molecular point group: c1

    Geometry (in Angstrom), charge = 0, multiplicity = 1:

       Center              X                  Y                   Z               Mass
    ------------   -----------------  -----------------  -----------------  -----------------
         O           -2.682620044702     1.367442266142    -0.134607919035    15.994914619570
         C           -2.752054544702     0.014434566142     0.460045880965    12.000000000000
         C           -1.364372044702    -0.507439733858     0.474071080965    12.000000000000
         C            3.541876955298    -0.452575733858    -0.412581919035    12.000000000000
         C           -3.690465044702    -0.835921733858    -0.362814919035    12.000000000000
         C           -0.269538044702     0.109944266142    -0.006956919035    12.000000000000
         C            2.161811955298     0.127465266142    -0.454653919035    12.000000000000
         C            1.058122955298    -0.480416733858     0.023395080965    12.000000000000
         C            4.494171955298     0.390809266142     0.441371080965    12.000000000000
         H           -3.124628044702     0.129268266142     1.476050080965     1.007825032230
         H           -1.277695044702    -1.501989733858     0.914477080965     1.007825032230
         H            3.495490955298    -1.474953733858    -0.019012919035     1.007825032230
         H            3.943985955298    -0.525283733858    -1.431956919035     1.007825032230
         H           -3.334936044702    -0.893171733858    -1.394437919035     1.007825032230
         H           -3.729109044702    -1.845559733858     0.057188080965     1.007825032230
         H           -4.709105044702    -0.431147733858    -0.361079919035     1.007825032230
         H           -0.374350044702     1.102930266142    -0.439085919035     1.007825032230
         H            2.064657955298     1.125093266142    -0.888574919035     1.007825032230
         H            1.150623955298    -1.476903733858     0.460723080965     1.007825032230
         H            4.559861955298     1.413191266142     0.057162080965     1.007825032230
         H            5.502620955298    -0.033960733858     0.445228080965     1.007825032230
         H            4.137953955298     0.441938266142     1.473803080965     1.007825032230
         H           -3.588652044702     1.720441266142    -0.141580919035     1.007825032230

  Basis Set: AUG-CC-PVTZ
    Blend: AUG-CC-PVTZ
  Basis Set: (AUG-CC-PVTZ AUX)
    Blend: AUG-CC-PVTZ-JKFIT
	 Reference Energy          =    -386.0591598860947897 [Eh]
	 Singles Energy            =      -0.0000000000000000 [Eh]
	 Same-Spin Energy          =      -0.4005157788848752 [Eh]
	 Opposite-Spin Energy      =      -1.3794451453335701 [Eh]
	 Correlation Energy        =      -1.7799609242184453 [Eh]
	 Total Energy              =    -387.8391208103132612 [Eh]

	 ================> DF-SCS-MP2 Energies <==================
	-----------------------------------------------------------
	 SCS Same-Spin Scale       =       0.3333333333333333 [-]
	 SCS Opposite-Spin Scale   =       1.2000000000000000 [-]
	 SCS Same-Spin Energy      =      -0.1335052596282917 [Eh]
	 SCS Opposite-Spin Energy  =      -1.6553341744002841 [Eh]
	 SCS Correlation Energy    =      -1.7888394340285758 [Eh]
	 SCS Total Energy          =    -387.8479993201233924 [Eh]
	-----------------------------------------------------------

  Dipole Moment: [D]
     X:    -1.1626      Y:    -0.8408      Z:     0.4304     Total:     1.4979

*** Psi4 exiting successfully. Buy a developer a beer!
