                               Psi4 1.3.2 release

  ==> Input File <==

--------------------------------------------------------------------------
#psi4
#
memory 32 gb

molecule  {
0 1
  O        2.6932640    -1.3344870    -0.0264310
  C        2.7508540     0.0254460     0.4069810
  C        1.3606810     0.5764810     0.3953890
  C       -3.5492030     0.3621160    -0.4101590
  C        3.6709050     0.8409920    -0.4958550
  C        0.2445171    -0.0643202     0.0080061
  C       -2.1631840    -0.2004740    -0.4090490
  C       -1.0635270     0.4697970    -0.0176060
  C       -4.4702810    -0.3835230     0.5583970
  H        3.1361180     0.0688010     1.4404840
  H        1.2280631     1.6098250     0.7187815
  H       -3.5113520     1.4248880    -0.1442750
  H       -3.9713450     0.3050270    -1.4220020
  H        3.3060070     0.7827570    -1.5237190
  H        3.6990520     1.8899320    -0.1870900
  H        4.6948240     0.4527130    -0.4608140
  H        0.3841050    -1.1350190    -0.3229170
  H       -2.0573220    -1.2386810    -0.7303930
  H       -1.1648060     1.5075440     0.3065060
  H       -4.5255200    -1.4457790     0.3033390
  H       -5.4853170     0.0231860     0.5310900
  H       -4.0942820    -0.3029910     1.5815520
  H        3.6028580    -1.6773980    -0.0043180
units angstrom
no_reorient  #important for SAPT in psi4, default
symmetry c1  #important for SAPT in psi4, default
}

set PROPERTIES_ORIGIN ["COM"]
properties('MP2/aug-cc-pvtz', properties = ['dipole'])
--------------------------------------------------------------------------

    Molecular point group: c1
  Charge       = 0
  Multiplicity = 1
  Basis Set: AUG-CC-PVTZ
    Blend: AUG-CC-PVTZ
  Basis Set: (AUG-CC-PVTZ AUX)
    Blend: AUG-CC-PVTZ-JKFIT

    Orbital Energies [Eh]
    ---------------------

    Doubly Occupied:

       1A    -20.559148     2A    -11.288481     3A    -11.227514
       4A    -11.223938     5A    -11.223230     6A    -11.221714
       7A    -11.220897     8A    -11.220851     9A    -11.213343
      10A     -1.360938    11A     -1.101576    12A     -1.061386
      13A     -1.018847    14A     -0.962887    15A     -0.879226
      16A     -0.829479    17A     -0.756324    18A     -0.742346
      19A     -0.695930    20A     -0.636597    21A     -0.630656
      22A     -0.617302    23A     -0.590736    24A     -0.584498
      25A     -0.546203    26A     -0.542559    27A     -0.527943
      28A     -0.518526    29A     -0.496087    30A     -0.487450
      31A     -0.479943    32A     -0.471068    33A     -0.453941
      34A     -0.422832    35A     -0.295197

  @DF-RHF Final Energy:  -386.05863212660773

   => Energetics <=

    Nuclear Repulsion Energy =            418.2079463711444305
    One-Electron Energy =               -1352.3139704870550304
    Two-Electron Energy =                 548.0473919893029233
    Total Energy =                       -386.0586321266076766
  Basis Set: (AUG-CC-PVTZ AUX)
    Blend: AUG-CC-PVTZ-RI
    Molecular point group: c1

    Geometry (in Angstrom), charge = 0, multiplicity = 1:

       Center              X                  Y                   Z               Mass
    ------------   -----------------  -----------------  -----------------  -----------------
         O            2.696027444181    -1.338100663846    -0.027203270999    15.994914619570
         C            2.753617444181     0.021832336154     0.406208729001    12.000000000000
         C            1.363444444181     0.572867336154     0.394616729001    12.000000000000
         C           -3.546439555819     0.358502336154    -0.410931270999    12.000000000000
         C            3.673668444181     0.837378336154    -0.496627270999    12.000000000000
         C            0.247280544181    -0.067933863846     0.007233829001    12.000000000000
         C           -2.160420555819    -0.204087663846    -0.409821270999    12.000000000000
         C           -1.060763555819     0.466183336154    -0.018378270999    12.000000000000
         C           -4.467517555819    -0.387136663846     0.557624729001    12.000000000000
         H            3.138881444181     0.065187336154     1.439711729001     1.007825032230
         H            1.230826544181     1.606211336154     0.718009229001     1.007825032230
         H           -3.508588555819     1.421274336154    -0.145047270999     1.007825032230
         H           -3.968581555819     0.301413336154    -1.422774270999     1.007825032230
         H            3.308770444181     0.779143336154    -1.524491270999     1.007825032230
         H            3.701815444181     1.886318336154    -0.187862270999     1.007825032230
         H            4.697587444181     0.449099336154    -0.461586270999     1.007825032230
         H            0.386868444181    -1.138632663846    -0.323689270999     1.007825032230
         H           -2.054558555819    -1.242294663846    -0.731165270999     1.007825032230
         H           -1.162042555819     1.503930336154     0.305733729001     1.007825032230
         H           -4.522756555819    -1.449392663846     0.302566729001     1.007825032230
         H           -5.482553555819     0.019572336154     0.530317729001     1.007825032230
         H           -4.091518555819    -0.306604663846     1.580779729001     1.007825032230
         H            3.605621444181    -1.681011663846    -0.005090270999     1.007825032230

  Basis Set: AUG-CC-PVTZ
    Blend: AUG-CC-PVTZ
  Basis Set: (AUG-CC-PVTZ AUX)
    Blend: AUG-CC-PVTZ-JKFIT
	 Reference Energy          =    -386.0586321266077334 [Eh]
	 Singles Energy            =      -0.0000000000000000 [Eh]
	 Same-Spin Energy          =      -0.4010349954981836 [Eh]
	 Opposite-Spin Energy      =      -1.3790772154416482 [Eh]
	 Correlation Energy        =      -1.7801122109398317 [Eh]
	 Total Energy              =    -387.8387443375475527 [Eh]

	 ================> DF-SCS-MP2 Energies <==================
	-----------------------------------------------------------
	 SCS Same-Spin Scale       =       0.3333333333333333 [-]
	 SCS Opposite-Spin Scale   =       1.2000000000000000 [-]
	 SCS Same-Spin Energy      =      -0.1336783318327278 [Eh]
	 SCS Opposite-Spin Energy  =      -1.6548926585299777 [Eh]
	 SCS Correlation Energy    =      -1.7885709903627056 [Eh]
	 SCS Total Energy          =    -387.8472031169704337 [Eh]
	-----------------------------------------------------------

  Dipole Moment: [D]
     X:     1.1807      Y:     0.7276      Z:     0.3030     Total:     1.4196

*** Psi4 exiting successfully. Buy a developer a beer!
