                               Psi4 1.3.2 release

  ==> Input File <==

--------------------------------------------------------------------------
#psi4
#
memory 32 gb

molecule  {
0 1
  O        2.6932640    -1.3344870    -0.0264310
  C        2.7508540     0.0254460     0.4069810
  C        1.3606810     0.5764810     0.3953890
  C       -3.5492030     0.3621160    -0.4101590
  C        3.6397690     0.8285838    -0.5372233
  C        0.2704120    -0.1024690    -0.0006590
  C       -2.1631840    -0.2004740    -0.4090490
  C       -1.0635270     0.4697970    -0.0176060
  C       -4.4702810    -0.3835230     0.5583970
  H        3.1067510     0.0464983     1.4516487
  H        1.2655190     1.6118880     0.7253080
  H       -3.5113520     1.4248880    -0.1442750
  H       -3.9713450     0.3050270    -1.4220020
  H        3.3060070     0.7827570    -1.5237190
  H        3.6990520     1.8899320    -0.1870900
  H        4.6948240     0.4527130    -0.4608140
  H        0.3841050    -1.1350190    -0.3229170
  H       -2.0573220    -1.2386810    -0.7303930
  H       -1.1648060     1.5075440     0.3065060
  H       -4.5255200    -1.4457790     0.3033390
  H       -5.4853170     0.0231860     0.5310900
  H       -4.0942820    -0.3029910     1.5815520
  H        3.6028580    -1.6773980    -0.0043180
units angstrom
no_reorient  #important for SAPT in psi4, default
symmetry c1  #important for SAPT in psi4, default
}

set PROPERTIES_ORIGIN ["COM"]
properties('MP2/aug-cc-pvtz', properties = ['dipole'])
--------------------------------------------------------------------------

    Molecular point group: c1
  Charge       = 0
  Multiplicity = 1
  Basis Set: AUG-CC-PVTZ
    Blend: AUG-CC-PVTZ
  Basis Set: (AUG-CC-PVTZ AUX)
    Blend: AUG-CC-PVTZ-JKFIT

    Orbital Energies [Eh]
    ---------------------

    Doubly Occupied:

       1A    -20.557281     2A    -11.286563     3A    -11.225638
       4A    -11.223282     5A    -11.223038     6A    -11.222655
       7A    -11.221851     8A    -11.221247     9A    -11.212684
      10A     -1.360224    11A     -1.097695    12A     -1.061369
      13A     -1.015786    14A     -0.962028    15A     -0.877150
      16A     -0.829187    17A     -0.752390    18A     -0.747817
      19A     -0.695582    20A     -0.636248    21A     -0.627485
      22A     -0.615446    23A     -0.588211    24A     -0.582467
      25A     -0.561976    26A     -0.540471    27A     -0.521537
      28A     -0.518789    29A     -0.500035    30A     -0.490220
      31A     -0.478705    32A     -0.465999    33A     -0.454126
      34A     -0.418638    35A     -0.297268

  @DF-RHF Final Energy:  -386.05898471889685

   => Energetics <=

    Nuclear Repulsion Energy =            418.2404456585242087
    One-Electron Energy =               -1352.4166907494541192
    Two-Electron Energy =                 548.1172603720330017
    Total Energy =                       -386.0589847188969088
  Basis Set: (AUG-CC-PVTZ AUX)
    Blend: AUG-CC-PVTZ-RI
    Molecular point group: c1

    Geometry (in Angstrom), charge = 0, multiplicity = 1:

       Center              X                  Y                   Z               Mass
    ------------   -----------------  -----------------  -----------------  -----------------
         O            2.696461536693    -1.333127944791    -0.022583520497    15.994914619570
         C            2.754051536693     0.026805055209     0.410828479503    12.000000000000
         C            1.363878536693     0.577840055209     0.399236479503    12.000000000000
         C           -3.546005463307     0.363475055209    -0.406311520497    12.000000000000
         C            3.642966536693     0.829942855209    -0.533375820497    12.000000000000
         C            0.273609536693    -0.101109944791     0.003188479503    12.000000000000
         C           -2.159986463307    -0.199114944791    -0.405201520497    12.000000000000
         C           -1.060329463307     0.471156055209    -0.013758520497    12.000000000000
         C           -4.467083463307    -0.382163944791     0.562244479503    12.000000000000
         H            3.109948536693     0.047857355209     1.455496179503     1.007825032230
         H            1.268716536693     1.613247055209     0.729155479503     1.007825032230
         H           -3.508154463307     1.426247055209    -0.140427520497     1.007825032230
         H           -3.968147463307     0.306386055209    -1.418154520497     1.007825032230
         H            3.309204536693     0.784116055209    -1.519871520497     1.007825032230
         H            3.702249536693     1.891291055209    -0.183242520497     1.007825032230
         H            4.698021536693     0.454072055209    -0.456966520497     1.007825032230
         H            0.387302536693    -1.133659944791    -0.319069520497     1.007825032230
         H           -2.054124463307    -1.237321944791    -0.726545520497     1.007825032230
         H           -1.161608463307     1.508903055209     0.310353479503     1.007825032230
         H           -4.522322463307    -1.444419944791     0.307186479503     1.007825032230
         H           -5.482119463307     0.024545055209     0.534937479503     1.007825032230
         H           -4.091084463307    -0.301631944791     1.585399479503     1.007825032230
         H            3.606055536693    -1.676038944791    -0.000470520497     1.007825032230

  Basis Set: AUG-CC-PVTZ
    Blend: AUG-CC-PVTZ
  Basis Set: (AUG-CC-PVTZ AUX)
    Blend: AUG-CC-PVTZ-JKFIT
	 Reference Energy          =    -386.0589847188968520 [Eh]
	 Singles Energy            =      -0.0000000000000000 [Eh]
	 Same-Spin Energy          =      -0.4003877441729518 [Eh]
	 Opposite-Spin Energy      =      -1.3784766431614173 [Eh]
	 Correlation Energy        =      -1.7788643873343690 [Eh]
	 Total Energy              =    -387.8378491062312037 [Eh]

	 ================> DF-SCS-MP2 Energies <==================
	-----------------------------------------------------------
	 SCS Same-Spin Scale       =       0.3333333333333333 [-]
	 SCS Opposite-Spin Scale   =       1.2000000000000000 [-]
	 SCS Same-Spin Energy      =      -0.1334625813909839 [Eh]
	 SCS Opposite-Spin Energy  =      -1.6541719717937007 [Eh]
	 SCS Correlation Energy    =      -1.7876345531846847 [Eh]
	 SCS Total Energy          =    -387.8466192720815116 [Eh]
	-----------------------------------------------------------

  Dipole Moment: [D]
     X:     1.2027      Y:     0.7346      Z:     0.3038     Total:     1.4417

*** Psi4 exiting successfully. Buy a developer a beer!
