                               Psi4 1.3.2 release

  ==> Input File <==

--------------------------------------------------------------------------
#psi4
#
memory 32 gb

molecule  {
0 1
  O        2.6932640    -1.3344870    -0.0264310
  C        2.7508540     0.0254460     0.4069810
  C        1.3193974     0.6322213     0.4072302
  C       -3.5492030     0.3621160    -0.4101590
  C        3.6709050     0.8409920    -0.4958550
  C        0.2704120    -0.1024690    -0.0006590
  C       -2.1631840    -0.2004740    -0.4090490
  C       -1.0635270     0.4697970    -0.0176060
  C       -4.4702810    -0.3835230     0.5583970
  H        3.1361180     0.0688010     1.4404840
  H        1.2655190     1.6118880     0.7253080
  H       -3.5113520     1.4248880    -0.1442750
  H       -3.9713450     0.3050270    -1.4220020
  H        3.3060070     0.7827570    -1.5237190
  H        3.6990520     1.8899320    -0.1870900
  H        4.6948240     0.4527130    -0.4608140
  H        0.3279733    -1.1366888    -0.3323396
  H       -2.0573220    -1.2386810    -0.7303930
  H       -1.1648060     1.5075440     0.3065060
  H       -4.5255200    -1.4457790     0.3033390
  H       -5.4853170     0.0231860     0.5310900
  H       -4.0942820    -0.3029910     1.5815520
  H        3.6028580    -1.6773980    -0.0043180
units angstrom
no_reorient  #important for SAPT in psi4, default
symmetry c1  #important for SAPT in psi4, default
}

set PROPERTIES_ORIGIN ["COM"]
properties('MP2/aug-cc-pvtz', properties = ['dipole'])
--------------------------------------------------------------------------

    Molecular point group: c1
  Charge       = 0
  Multiplicity = 1
  Basis Set: AUG-CC-PVTZ
    Blend: AUG-CC-PVTZ
  Basis Set: (AUG-CC-PVTZ AUX)
    Blend: AUG-CC-PVTZ-JKFIT

    Orbital Energies [Eh]
    ---------------------

    Doubly Occupied:

       1A    -20.558703     2A    -11.288099     3A    -11.225085
       4A    -11.224596     5A    -11.222671     6A    -11.222013
       7A    -11.221109     8A    -11.219271     9A    -11.212430
      10A     -1.358811    11A     -1.097923    12A     -1.057847
      13A     -1.014018    14A     -0.961538    15A     -0.872595
      16A     -0.825046    17A     -0.760761    18A     -0.750271
      19A     -0.692288    20A     -0.637012    21A     -0.627540
      22A     -0.614817    23A     -0.590824    24A     -0.584746
      25A     -0.553023    26A     -0.543368    27A     -0.525244
      28A     -0.520053    29A     -0.505763    30A     -0.488943
      31A     -0.478047    32A     -0.458038    33A     -0.450527
      34A     -0.419503    35A     -0.297927

  @DF-RHF Final Energy:  -386.05722806940111

   => Energetics <=

    Nuclear Repulsion Energy =            417.3596592558218958
    One-Electron Energy =               -1350.6728763694350164
    Two-Electron Energy =                 547.2559890442120150
    Total Energy =                       -386.0572280694010487
  Basis Set: (AUG-CC-PVTZ AUX)
    Blend: AUG-CC-PVTZ-RI
    Molecular point group: c1

    Geometry (in Angstrom), charge = 0, multiplicity = 1:

       Center              X                  Y                   Z               Mass
    ------------   -----------------  -----------------  -----------------  -----------------
         O            2.697641077279    -1.339777799359    -0.027482360545    15.994914619570
         C            2.755231077279     0.020155200641     0.405929639455    12.000000000000
         C            1.323774477279     0.626930500641     0.406178839455    12.000000000000
         C           -3.544825922721     0.356825200641    -0.411210360545    12.000000000000
         C            3.675282077279     0.835701200641    -0.496906360545    12.000000000000
         C            0.274789077279    -0.107759799359    -0.001710360545    12.000000000000
         C           -2.158806922721    -0.205764799359    -0.410100360545    12.000000000000
         C           -1.059149922721     0.464506200641    -0.018657360545    12.000000000000
         C           -4.465903922721    -0.388813799359     0.557345639455    12.000000000000
         H            3.140495077279     0.063510200641     1.439432639455     1.007825032230
         H            1.269896077279     1.606597200641     0.724256639455     1.007825032230
         H           -3.506974922721     1.419597200641    -0.145326360545     1.007825032230
         H           -3.966967922721     0.299736200641    -1.423053360545     1.007825032230
         H            3.310384077279     0.777466200641    -1.524770360545     1.007825032230
         H            3.703429077279     1.884641200641    -0.188141360545     1.007825032230
         H            4.699201077279     0.447422200641    -0.461865360545     1.007825032230
         H            0.332350377279    -1.141979599359    -0.333390960545     1.007825032230
         H           -2.052944922721    -1.243971799359    -0.731444360545     1.007825032230
         H           -1.160428922721     1.502253200641     0.305454639455     1.007825032230
         H           -4.521142922721    -1.451069799359     0.302287639455     1.007825032230
         H           -5.480939922721     0.017895200641     0.530038639455     1.007825032230
         H           -4.089904922721    -0.308281799359     1.580500639455     1.007825032230
         H            3.607235077279    -1.682688799359    -0.005369360545     1.007825032230

  Basis Set: AUG-CC-PVTZ
    Blend: AUG-CC-PVTZ
  Basis Set: (AUG-CC-PVTZ AUX)
    Blend: AUG-CC-PVTZ-JKFIT
	 Reference Energy          =    -386.0572280694011056 [Eh]
	 Singles Energy            =      -0.0000000000000000 [Eh]
	 Same-Spin Energy          =      -0.3998823531343738 [Eh]
	 Opposite-Spin Energy      =      -1.3780658988950614 [Eh]
	 Correlation Energy        =      -1.7779482520294352 [Eh]
	 Total Energy              =    -387.8351763214305379 [Eh]

	 ================> DF-SCS-MP2 Energies <==================
	-----------------------------------------------------------
	 SCS Same-Spin Scale       =       0.3333333333333333 [-]
	 SCS Opposite-Spin Scale   =       1.2000000000000000 [-]
	 SCS Same-Spin Energy      =      -0.1332941177114579 [Eh]
	 SCS Opposite-Spin Energy  =      -1.6536790786740736 [Eh]
	 SCS Correlation Energy    =      -1.7869731963855315 [Eh]
	 SCS Total Energy          =    -387.8442012657866371 [Eh]
	-----------------------------------------------------------

  Dipole Moment: [D]
     X:     1.1647      Y:     0.7465      Z:     0.3173     Total:     1.4193

*** Psi4 exiting successfully. Buy a developer a beer!
