                               Psi4 1.3.2 release

  ==> Input File <==

--------------------------------------------------------------------------
#psi4
#
memory 32 gb

molecule  {
0 1
  O        2.6932640    -1.3344870    -0.0264310
  C        2.7508540     0.0254460     0.4069810
  C        1.3606810     0.5764810     0.3953890
  C       -3.5492030     0.3621160    -0.4101590
  C        3.6709050     0.8409920    -0.4958550
  C        0.2509981    -0.1459892    -0.0178739
  C       -2.1631840    -0.2004740    -0.4090490
  C       -1.0635270     0.4697970    -0.0176060
  C       -4.4702810    -0.3835230     0.5583970
  H        3.1361180     0.0688010     1.4404840
  H        1.2655190     1.6118880     0.7253080
  H       -3.5113520     1.4248880    -0.1442750
  H       -3.9713450     0.3050270    -1.4220020
  H        3.3060070     0.7827570    -1.5237190
  H        3.6990520     1.8899320    -0.1870900
  H        4.6948240     0.4527130    -0.4608140
  H        0.3841050    -1.1350190    -0.3229170
  H       -2.0573220    -1.2386810    -0.7303930
  H       -1.2022876     1.5052163     0.3000057
  H       -4.5255200    -1.4457790     0.3033390
  H       -5.4853170     0.0231860     0.5310900
  H       -4.0942820    -0.3029910     1.5815520
  H        3.6028580    -1.6773980    -0.0043180
units angstrom
no_reorient  #important for SAPT in psi4, default
symmetry c1  #important for SAPT in psi4, default
}

set PROPERTIES_ORIGIN ["COM"]
properties('MP2/aug-cc-pvtz', properties = ['dipole'])
--------------------------------------------------------------------------

    Molecular point group: c1
  Charge       = 0
  Multiplicity = 1
  Basis Set: AUG-CC-PVTZ
    Blend: AUG-CC-PVTZ
  Basis Set: (AUG-CC-PVTZ AUX)
    Blend: AUG-CC-PVTZ-JKFIT

    Orbital Energies [Eh]
    ---------------------

    Doubly Occupied:

       1A    -20.558831     2A    -11.285992     3A    -11.228548
       4A    -11.226125     5A    -11.224490     6A    -11.222973
       7A    -11.222542     8A    -11.220335     9A    -11.212561
      10A     -1.360645    11A     -1.096306    12A     -1.058307
      13A     -1.016032    14A     -0.958871    15A     -0.876729
      16A     -0.826976    17A     -0.755146    18A     -0.749802
      19A     -0.696059    20A     -0.638314    21A     -0.625480
      22A     -0.616320    23A     -0.589889    24A     -0.581088
      25A     -0.547447    26A     -0.543312    27A     -0.526588
      28A     -0.519055    29A     -0.508727    30A     -0.492239
      31A     -0.478757    32A     -0.468471    33A     -0.452076
      34A     -0.415590    35A     -0.290973

  @DF-RHF Final Energy:  -386.05674262226989

   => Energetics <=

    Nuclear Repulsion Energy =            417.6331796722568583
    One-Electron Energy =               -1351.1966476472973682
    Two-Electron Energy =                 547.5067253527706725
    Total Energy =                       -386.0567426222698941
  Basis Set: (AUG-CC-PVTZ AUX)
    Blend: AUG-CC-PVTZ-RI
    Molecular point group: c1

    Geometry (in Angstrom), charge = 0, multiplicity = 1:

       Center              X                  Y                   Z               Mass
    ------------   -----------------  -----------------  -----------------  -----------------
         O            2.695410922800    -1.330326991670    -0.024740760295    15.994914619570
         C            2.753000922800     0.029606008330     0.408671239705    12.000000000000
         C            1.362827922800     0.580641008330     0.397079239705    12.000000000000
         C           -3.547056077200     0.366276008330    -0.408468760295    12.000000000000
         C            3.673051922800     0.845152008330    -0.494164760295    12.000000000000
         C            0.253145022800    -0.141829191670    -0.016183660295    12.000000000000
         C           -2.161037077200    -0.196313991670    -0.407358760295    12.000000000000
         C           -1.061380077200     0.473957008330    -0.015915760295    12.000000000000
         C           -4.468134077200    -0.379362991670     0.560087239705    12.000000000000
         H            3.138264922800     0.072961008330     1.442174239705     1.007825032230
         H            1.267665922800     1.616048008330     0.726998239705     1.007825032230
         H           -3.509205077200     1.429048008330    -0.142584760295     1.007825032230
         H           -3.969198077200     0.309187008330    -1.420311760295     1.007825032230
         H            3.308153922800     0.786917008330    -1.522028760295     1.007825032230
         H            3.701198922800     1.894092008330    -0.185399760295     1.007825032230
         H            4.696970922800     0.456873008330    -0.459123760295     1.007825032230
         H            0.386251922800    -1.130858991670    -0.321226760295     1.007825032230
         H           -2.055175077200    -1.234520991670    -0.728702760295     1.007825032230
         H           -1.200140677200     1.509376308330     0.301695939705     1.007825032230
         H           -4.523373077200    -1.441618991670     0.305029239705     1.007825032230
         H           -5.483170077200     0.027346008330     0.532780239705     1.007825032230
         H           -4.092135077200    -0.298830991670     1.583242239705     1.007825032230
         H            3.605004922800    -1.673237991670    -0.002627760295     1.007825032230

  Basis Set: AUG-CC-PVTZ
    Blend: AUG-CC-PVTZ
  Basis Set: (AUG-CC-PVTZ AUX)
    Blend: AUG-CC-PVTZ-JKFIT
	 Reference Energy          =    -386.0567426222698941 [Eh]
	 Singles Energy            =      -0.0000000000000000 [Eh]
	 Same-Spin Energy          =      -0.4008815231986270 [Eh]
	 Opposite-Spin Energy      =      -1.3795766412419617 [Eh]
	 Correlation Energy        =      -1.7804581644405886 [Eh]
	 Total Energy              =    -387.8372007867104685 [Eh]

	 ================> DF-SCS-MP2 Energies <==================
	-----------------------------------------------------------
	 SCS Same-Spin Scale       =       0.3333333333333333 [-]
	 SCS Opposite-Spin Scale   =       1.2000000000000000 [-]
	 SCS Same-Spin Energy      =      -0.1336271743995423 [Eh]
	 SCS Opposite-Spin Energy  =      -1.6554919694903540 [Eh]
	 SCS Correlation Energy    =      -1.7891191438898963 [Eh]
	 SCS Total Energy          =    -387.8458617661597714 [Eh]
	-----------------------------------------------------------

  Dipole Moment: [D]
     X:     1.2054      Y:     0.7293      Z:     0.3094     Total:     1.4425

*** Psi4 exiting successfully. Buy a developer a beer!
