                               Psi4 1.3.2 release

  ==> Input File <==

--------------------------------------------------------------------------
#psi4
#
memory 32 gb

molecule  {
0 1
  O        2.6932640    -1.3344870    -0.0264310
  C        2.7508540     0.0254460     0.4069810
  C        1.3606810     0.5764810     0.3953890
  C       -3.5492030     0.3621160    -0.4101590
  C        3.6709050     0.8409920    -0.4958550
  C        0.2704120    -0.1024690    -0.0006590
  C       -2.1679784    -0.2121410    -0.4124096
  C       -1.0635270     0.4697970    -0.0176060
  C       -4.4702810    -0.3835230     0.5583970
  H        3.1361180     0.0688010     1.4404840
  H        1.2655190     1.6118880     0.7253080
  H       -3.5208680     1.4253929    -0.1451106
  H       -3.9713450     0.3050270    -1.4220020
  H        3.3060070     0.7827570    -1.5237190
  H        3.6990520     1.8899320    -0.1870900
  H        4.6948240     0.4527130    -0.4608140
  H        0.3841050    -1.1350190    -0.3229170
  H       -2.0573220    -1.2386810    -0.7303930
  H       -1.1648060     1.5075440     0.3065060
  H       -4.5255200    -1.4457790     0.3033390
  H       -5.4853170     0.0231860     0.5310900
  H       -4.0942820    -0.3029910     1.5815520
  H        3.6028580    -1.6773980    -0.0043180
units angstrom
no_reorient  #important for SAPT in psi4, default
symmetry c1  #important for SAPT in psi4, default
}

set PROPERTIES_ORIGIN ["COM"]
properties('MP2/aug-cc-pvtz', properties = ['dipole'])
--------------------------------------------------------------------------

    Molecular point group: c1
  Charge       = 0
  Multiplicity = 1
  Basis Set: AUG-CC-PVTZ
    Blend: AUG-CC-PVTZ
  Basis Set: (AUG-CC-PVTZ AUX)
    Blend: AUG-CC-PVTZ-JKFIT

    Orbital Energies [Eh]
    ---------------------

    Doubly Occupied:

       1A    -20.558653     2A    -11.286408     3A    -11.226662
       4A    -11.224669     5A    -11.223272     6A    -11.223176
       7A    -11.221668     8A    -11.220493     9A    -11.212554
      10A     -1.360548    11A     -1.096878    12A     -1.061169
      13A     -1.015844    14A     -0.961444    15A     -0.876578
      16A     -0.827825    17A     -0.754675    18A     -0.747848
      19A     -0.695125    20A     -0.637406    21A     -0.627581
      22A     -0.616651    23A     -0.590109    24A     -0.582223
      25A     -0.546728    26A     -0.544193    27A     -0.527936
      28A     -0.517877    29A     -0.500395    30A     -0.492424
      31A     -0.480493    32A     -0.468140    33A     -0.452862
      34A     -0.417263    35A     -0.295947

  @DF-RHF Final Energy:  -386.06191105772439

   => Energetics <=

    Nuclear Repulsion Energy =            417.8678756682944027
    One-Electron Energy =               -1351.6721367252816890
    Two-Electron Energy =                 547.7423499992629559
    Total Energy =                       -386.0619110577243873
  Basis Set: (AUG-CC-PVTZ AUX)
    Blend: AUG-CC-PVTZ-RI
    Molecular point group: c1

    Geometry (in Angstrom), charge = 0, multiplicity = 1:

       Center              X                  Y                   Z               Mass
    ------------   -----------------  -----------------  -----------------  -----------------
         O            2.693796242213    -1.333380754794    -0.026104396598    15.994914619570
         C            2.751386242213     0.026552245206     0.407307603402    12.000000000000
         C            1.361213242213     0.577587245206     0.395715603402    12.000000000000
         C           -3.548670757787     0.363222245206    -0.409832396598    12.000000000000
         C            3.671437242213     0.842098245206    -0.495528396598    12.000000000000
         C            0.270944242213    -0.101362754794    -0.000332396598    12.000000000000
         C           -2.167446157787    -0.211034754794    -0.412082996598    12.000000000000
         C           -1.062994757787     0.470903245206    -0.017279396598    12.000000000000
         C           -4.469748757787    -0.382416754794     0.558723603402    12.000000000000
         H            3.136650242213     0.069907245206     1.440810603402     1.007825032230
         H            1.266051242213     1.612994245206     0.725634603402     1.007825032230
         H           -3.520335757787     1.426499145206    -0.144783996598     1.007825032230
         H           -3.970812757787     0.306133245206    -1.421675396598     1.007825032230
         H            3.306539242213     0.783863245206    -1.523392396598     1.007825032230
         H            3.699584242213     1.891038245206    -0.186763396598     1.007825032230
         H            4.695356242213     0.453819245206    -0.460487396598     1.007825032230
         H            0.384637242213    -1.133912754794    -0.322590396598     1.007825032230
         H           -2.056789757787    -1.237574754794    -0.730066396598     1.007825032230
         H           -1.164273757787     1.508650245206     0.306832603402     1.007825032230
         H           -4.524987757787    -1.444672754794     0.303665603402     1.007825032230
         H           -5.484784757787     0.024292245206     0.531416603402     1.007825032230
         H           -4.093749757787    -0.301884754794     1.581878603402     1.007825032230
         H            3.603390242213    -1.676291754794    -0.003991396598     1.007825032230

  Basis Set: AUG-CC-PVTZ
    Blend: AUG-CC-PVTZ
  Basis Set: (AUG-CC-PVTZ AUX)
    Blend: AUG-CC-PVTZ-JKFIT
	 Reference Energy          =    -386.0619110577243873 [Eh]
	 Singles Energy            =      -0.0000000000000000 [Eh]
	 Same-Spin Energy          =      -0.4004549796919915 [Eh]
	 Opposite-Spin Energy      =      -1.3785703378398715 [Eh]
	 Correlation Energy        =      -1.7790253175318629 [Eh]
	 Total Energy              =    -387.8409363752562626 [Eh]

	 ================> DF-SCS-MP2 Energies <==================
	-----------------------------------------------------------
	 SCS Same-Spin Scale       =       0.3333333333333333 [-]
	 SCS Opposite-Spin Scale   =       1.2000000000000000 [-]
	 SCS Same-Spin Energy      =      -0.1334849932306638 [Eh]
	 SCS Opposite-Spin Energy  =      -1.6542844054078458 [Eh]
	 SCS Correlation Energy    =      -1.7877693986385097 [Eh]
	 SCS Total Energy          =    -387.8496804563628757 [Eh]
	-----------------------------------------------------------

  Dipole Moment: [D]
     X:     1.2055      Y:     0.7273      Z:     0.3049     Total:     1.4405

*** Psi4 exiting successfully. Buy a developer a beer!
