                               Psi4 1.4a3.dev225

  ==> Input File <==

--------------------------------------------------------------------------
#psi4
#
memory 32 gb

molecule  {
0 1
  O       -2.7161510     1.3794200    -0.1343610
  C       -2.7832390     0.0721360     0.4401970
  C       -1.3979030    -0.4954620     0.4743180
  C        3.5083460    -0.4405980    -0.4123350
  C       -3.7239960    -0.8239440    -0.3625680
  C       -0.3437446     0.0989848     0.0111613
  C        2.1282810     0.1394430    -0.4544070
  C        1.0245920    -0.4684390     0.0236420
  C        4.4606410     0.4027870     0.4416180
  H       -3.1581590     0.1412460     1.4762970
  H       -1.3112260    -1.4900120     0.9147240
  H        3.4619600    -1.4629760    -0.0187660
  H        3.9104550    -0.5133060    -1.4317100
  H       -3.3684670    -0.8811940    -1.3941910
  H       -3.7626400    -1.8335820     0.0574350
  H       -4.7426360    -0.4191700    -0.3608330
  H       -0.4078810     1.1149080    -0.4388390
  H        2.0311270     1.1370710    -0.8883280
  H        1.1170930    -1.4649260     0.4609700
  H        4.5263310     1.4251690     0.0574090
  H        5.4690900    -0.0219830     0.4454750
  H        4.1044230     0.4539160     1.4740500
  H       -3.6221830     1.7324190    -0.1413340
units angstrom
no_reorient  #important for SAPT in psi4, default
symmetry c1  #important for SAPT in psi4, default
}

set PROPERTIES_ORIGIN ["COM"]
properties('MP2/aug-cc-pvtz', properties = ['dipole'])
--------------------------------------------------------------------------

    Molecular point group: c1
  Charge       = 0
  Multiplicity = 1
  Basis Set: AUG-CC-PVTZ
    Blend: AUG-CC-PVTZ
  Basis Set: (AUG-CC-PVTZ AUX)
    Blend: AUG-CC-PVTZ-JKFIT

    Orbital Energies [Eh]
    ---------------------

    Doubly Occupied:

       1A    -20.558650     2A    -11.286803     3A    -11.227062
       4A    -11.225108     5A    -11.223874     6A    -11.221018
       7A    -11.220069     8A    -11.216177     9A    -11.213122
      10A     -1.360124    11A     -1.098028    12A     -1.064394
      13A     -1.014073    14A     -0.966321    15A     -0.874264
      16A     -0.830364    17A     -0.752306    18A     -0.744071
      19A     -0.693960    20A     -0.637093    21A     -0.628468
      22A     -0.616539    23A     -0.590692    24A     -0.583251
      25A     -0.546188    26A     -0.544064    27A     -0.527522
      28A     -0.518779    29A     -0.497543    30A     -0.492871
      31A     -0.479266    32A     -0.460442    33A     -0.453694
      34A     -0.418808    35A     -0.306349

  @DF-RHF Final Energy:  -386.06096289799427

   => Energetics <=

    Nuclear Repulsion Energy =            417.8264657906323123
    One-Electron Energy =               -1351.5921412319680712
    Two-Electron Energy =                 547.7047125433415431
    Total Energy =                       -386.0609628979942727
  Basis Set: (AUG-CC-PVTZ AUX)
    Blend: AUG-CC-PVTZ-RI
    Molecular point group: c1

    Geometry (in Angstrom), charge = 0, multiplicity = 1:

       Center              X                  Y                   Z               Mass
    ------------   -----------------  -----------------  -----------------  -----------------
         O           -2.678972678213     1.365273921034    -0.134396237395    15.994914619570
         C           -2.746060678213     0.057989921034     0.440161762605    12.000000000000
         C           -1.360724678213    -0.509608078966     0.474282762605    12.000000000000
         C            3.545524321787    -0.454744078966    -0.412370237395    12.000000000000
         C           -3.686817678213    -0.838090078966    -0.362603237395    12.000000000000
         C           -0.306566278213     0.084838721034     0.011126062605    12.000000000000
         C            2.165459321787     0.125296921034    -0.454442237395    12.000000000000
         C            1.061770321787    -0.482585078966     0.023606762605    12.000000000000
         C            4.497819321787     0.388640921034     0.441582762605    12.000000000000
         H           -3.120980678213     0.127099921034     1.476261762605     1.007825032230
         H           -1.274047678213    -1.504158078966     0.914688762605     1.007825032230
         H            3.499138321787    -1.477122078966    -0.018801237395     1.007825032230
         H            3.947633321787    -0.527452078966    -1.431745237395     1.007825032230
         H           -3.331288678213    -0.895340078966    -1.394226237395     1.007825032230
         H           -3.725461678213    -1.847728078966     0.057399762605     1.007825032230
         H           -4.705457678213    -0.433316078966    -0.360868237395     1.007825032230
         H           -0.370702678213     1.100761921034    -0.438874237395     1.007825032230
         H            2.068305321787     1.122924921034    -0.888363237395     1.007825032230
         H            1.154271321787    -1.479072078966     0.460934762605     1.007825032230
         H            4.563509321787     1.411022921034     0.057373762605     1.007825032230
         H            5.506268321787    -0.036129078966     0.445439762605     1.007825032230
         H            4.141601321787     0.439769921034     1.474014762605     1.007825032230
         H           -3.585004678213     1.718272921034    -0.141369237395     1.007825032230

  Basis Set: AUG-CC-PVTZ
    Blend: AUG-CC-PVTZ
  Basis Set: (AUG-CC-PVTZ AUX)
    Blend: AUG-CC-PVTZ-JKFIT
	 Reference Energy          =    -386.0609628979942727 [Eh]
	 Singles Energy            =      -0.0000000000000000 [Eh]
	 Same-Spin Energy          =      -0.3995271894983360 [Eh]
	 Opposite-Spin Energy      =      -1.3770908647523241 [Eh]
	 Correlation Energy        =      -1.7766180542506602 [Eh]
	 Total Energy              =    -387.8375809522449345 [Eh]

	 ================> DF-SCS-MP2 Energies <==================
	-----------------------------------------------------------
	 SCS Same-Spin Scale       =       0.3333333333333333 [-]
	 SCS Opposite-Spin Scale   =       1.2000000000000000 [-]
	 SCS Same-Spin Energy      =      -0.1331757298327787 [Eh]
	 SCS Opposite-Spin Energy  =      -1.6525090377027889 [Eh]
	 SCS Correlation Energy    =      -1.7856847675355676 [Eh]
	 SCS Total Energy          =    -387.8466476655298152 [Eh]
	-----------------------------------------------------------

  Dipole Moment: [D]
     X:    -1.2159      Y:    -0.6875      Z:     0.3949     Total:     1.4515

*** Psi4 exiting successfully. Buy a developer a beer!
