                               Psi4 1.3.2 release

  ==> Input File <==

--------------------------------------------------------------------------
#psi4
#
memory 32 gb

molecule  {
0 1
  O        2.6932640    -1.3344870    -0.0264310
  C        2.7508540     0.0254460     0.4069810
  C        1.3606810     0.5764810     0.3953890
  C       -3.5492030     0.3621160    -0.4101590
  C        3.6709050     0.8409920    -0.4958550
  C        0.2704120    -0.1024690    -0.0006590
  C       -2.1631840    -0.2004740    -0.4090490
  C       -1.0701152     0.4793016    -0.0155493
  C       -4.4702810    -0.3835230     0.5583970
  H        3.1361180     0.0688010     1.4404840
  H        1.2655190     1.6118880     0.7253080
  H       -3.5113520     1.4248880    -0.1442750
  H       -3.9713450     0.3050270    -1.4220020
  H        3.3060070     0.7827570    -1.5237190
  H        3.6990520     1.8899320    -0.1870900
  H        4.6948240     0.4527130    -0.4608140
  H        0.3841050    -1.1350190    -0.3229170
  H       -2.0667044    -1.2390948    -0.7320056
  H       -1.1648060     1.5075440     0.3065060
  H       -4.5255200    -1.4457790     0.3033390
  H       -5.4853170     0.0231860     0.5310900
  H       -4.0942820    -0.3029910     1.5815520
  H        3.6028580    -1.6773980    -0.0043180
units angstrom
no_reorient  #important for SAPT in psi4, default
symmetry c1  #important for SAPT in psi4, default
}

set PROPERTIES_ORIGIN ["COM"]
properties('MP2/aug-cc-pvtz', properties = ['dipole'])
--------------------------------------------------------------------------

    Molecular point group: c1
  Charge       = 0
  Multiplicity = 1
  Basis Set: AUG-CC-PVTZ
    Blend: AUG-CC-PVTZ
  Basis Set: (AUG-CC-PVTZ AUX)
    Blend: AUG-CC-PVTZ-JKFIT

    Orbital Energies [Eh]
    ---------------------

    Doubly Occupied:

       1A    -20.558595     2A    -11.286297     3A    -11.225997
       4A    -11.223795     5A    -11.223016     6A    -11.222686
       7A    -11.221719     8A    -11.220428     9A    -11.212665
      10A     -1.360481    11A     -1.097124    12A     -1.061184
      13A     -1.015426    14A     -0.962357    15A     -0.875930
      16A     -0.828337    17A     -0.753218    18A     -0.747875
      19A     -0.695213    20A     -0.637469    21A     -0.627289
      22A     -0.616750    23A     -0.590313    24A     -0.582044
      25A     -0.546505    26A     -0.543870    27A     -0.528621
      28A     -0.518483    29A     -0.501026    30A     -0.492708
      31A     -0.479389    32A     -0.466631    33A     -0.452732
      34A     -0.417147    35A     -0.298032

  @DF-RHF Final Energy:  -386.06265691793294

   => Energetics <=

    Nuclear Repulsion Energy =            417.9009138818562406
    One-Electron Energy =               -1351.7444447273371679
    Two-Electron Energy =                 547.7808739275479866
    Total Energy =                       -386.0626569179329408
  Basis Set: (AUG-CC-PVTZ AUX)
    Blend: AUG-CC-PVTZ-RI
    Molecular point group: c1

    Geometry (in Angstrom), charge = 0, multiplicity = 1:

       Center              X                  Y                   Z               Mass
    ------------   -----------------  -----------------  -----------------  -----------------
         O            2.693965871056    -1.335388085074    -0.026613692759    15.994914619570
         C            2.751555871056     0.024544914926     0.406798307241    12.000000000000
         C            1.361382871056     0.575579914926     0.395206307241    12.000000000000
         C           -3.548501128944     0.361214914926    -0.410341692759    12.000000000000
         C            3.671606871056     0.840090914926    -0.496037692759    12.000000000000
         C            0.271113871056    -0.103370085074    -0.000841692759    12.000000000000
         C           -2.162482128944    -0.201375085074    -0.409231692759    12.000000000000
         C           -1.069413328944     0.478400514926    -0.015731992759    12.000000000000
         C           -4.469579128944    -0.384424085074     0.558214307241    12.000000000000
         H            3.136819871056     0.067899914926     1.440301307241     1.007825032230
         H            1.266220871056     1.610986914926     0.725125307241     1.007825032230
         H           -3.510650128944     1.423986914926    -0.144457692759     1.007825032230
         H           -3.970643128944     0.304125914926    -1.422184692759     1.007825032230
         H            3.306708871056     0.781855914926    -1.523901692759     1.007825032230
         H            3.699753871056     1.889030914926    -0.187272692759     1.007825032230
         H            4.695525871056     0.451811914926    -0.460996692759     1.007825032230
         H            0.384806871056    -1.135920085074    -0.323099692759     1.007825032230
         H           -2.066002528944    -1.239995885074    -0.732188292759     1.007825032230
         H           -1.164104128944     1.506642914926     0.306323307241     1.007825032230
         H           -4.524818128944    -1.446680085074     0.303156307241     1.007825032230
         H           -5.484615128944     0.022284914926     0.530907307241     1.007825032230
         H           -4.093580128944    -0.303892085074     1.581369307241     1.007825032230
         H            3.603559871056    -1.678299085074    -0.004500692759     1.007825032230

  Basis Set: AUG-CC-PVTZ
    Blend: AUG-CC-PVTZ
  Basis Set: (AUG-CC-PVTZ AUX)
    Blend: AUG-CC-PVTZ-JKFIT
	 Reference Energy          =    -386.0626569179329408 [Eh]
	 Singles Energy            =      -0.0000000000000000 [Eh]
	 Same-Spin Energy          =      -0.4001987769428657 [Eh]
	 Opposite-Spin Energy      =      -1.3781808512143199 [Eh]
	 Correlation Energy        =      -1.7783796281571855 [Eh]
	 Total Energy              =    -387.8410365460901517 [Eh]

	 ================> DF-SCS-MP2 Energies <==================
	-----------------------------------------------------------
	 SCS Same-Spin Scale       =       0.3333333333333333 [-]
	 SCS Opposite-Spin Scale   =       1.2000000000000000 [-]
	 SCS Same-Spin Energy      =      -0.1333995923142886 [Eh]
	 SCS Opposite-Spin Energy  =      -1.6538170214571839 [Eh]
	 SCS Correlation Energy    =      -1.7872166137714725 [Eh]
	 SCS Total Energy          =    -387.8498735317044179 [Eh]
	-----------------------------------------------------------

  Dipole Moment: [D]
     X:     1.1996      Y:     0.7312      Z:     0.3084     Total:     1.4384

*** Psi4 exiting successfully. Buy a developer a beer!
