                               Psi4 1.3.2 release

  ==> Input File <==

--------------------------------------------------------------------------
#psi4
#
memory 32 gb

molecule  {
0 1
  O        2.6932640    -1.3344870    -0.0264310
  C        2.7508540     0.0254460     0.4069810
  C        1.3606810     0.5764810     0.3953890
  C       -3.5492030     0.3621160    -0.4101590
  C        3.6709050     0.8409920    -0.4958550
  C        0.2704120    -0.1024690    -0.0006590
  C       -2.1363190    -0.2381476    -0.4171910
  C       -1.0635270     0.4697970    -0.0176060
  C       -4.4702810    -0.3835230     0.5583970
  H        3.1361180     0.0688010     1.4404840
  H        1.2655190     1.6118880     0.7253080
  H       -3.5113520     1.4248880    -0.1442750
  H       -3.9713450     0.3050270    -1.4220020
  H        3.3060070     0.7827570    -1.5237190
  H        3.6990520     1.8899320    -0.1870900
  H        4.6948240     0.4527130    -0.4608140
  H        0.3841050    -1.1350190    -0.3229170
  H       -2.0573220    -1.2386810    -0.7303930
  H       -1.1272175     1.5085724     0.3127180
  H       -4.5255200    -1.4457790     0.3033390
  H       -5.4853170     0.0231860     0.5310900
  H       -4.0942820    -0.3029910     1.5815520
  H        3.6028580    -1.6773980    -0.0043180
units angstrom
no_reorient  #important for SAPT in psi4, default
symmetry c1  #important for SAPT in psi4, default
}

set PROPERTIES_ORIGIN ["COM"]
properties('MP2/aug-cc-pvtz', properties = ['dipole'])
--------------------------------------------------------------------------

    Molecular point group: c1
  Charge       = 0
  Multiplicity = 1
  Basis Set: AUG-CC-PVTZ
    Blend: AUG-CC-PVTZ
  Basis Set: (AUG-CC-PVTZ AUX)
    Blend: AUG-CC-PVTZ-JKFIT

    Orbital Energies [Eh]
    ---------------------

    Doubly Occupied:

       1A    -20.558419     2A    -11.286068     3A    -11.225438
       4A    -11.224423     5A    -11.223717     6A    -11.222243
       7A    -11.220507     8A    -11.220270     9A    -11.211859
      10A     -1.360294    11A     -1.096626    12A     -1.058060
      13A     -1.015212    14A     -0.962214    15A     -0.874397
      16A     -0.825857    17A     -0.759982    18A     -0.747371
      19A     -0.694845    20A     -0.638691    21A     -0.625407
      22A     -0.616571    23A     -0.588705    24A     -0.581186
      25A     -0.549305    26A     -0.545300    27A     -0.530559
      28A     -0.515158    29A     -0.499298    30A     -0.491247
      31A     -0.482563    32A     -0.461255    33A     -0.452655
      34A     -0.418926    35A     -0.297692

  @DF-RHF Final Energy:  -386.06040286653854

   => Energetics <=

    Nuclear Repulsion Energy =            417.8182914741047966
    One-Electron Energy =               -1351.5927520164020734
    Two-Electron Energy =                 547.7140576757586814
    Total Energy =                       -386.0604028665385385
  Basis Set: (AUG-CC-PVTZ AUX)
    Blend: AUG-CC-PVTZ-RI
    Molecular point group: c1

    Geometry (in Angstrom), charge = 0, multiplicity = 1:

       Center              X                  Y                   Z               Mass
    ------------   -----------------  -----------------  -----------------  -----------------
         O            2.690407100568    -1.330910171350    -0.025705726715    15.994914619570
         C            2.747997100568     0.029022828650     0.407706273285    12.000000000000
         C            1.357824100568     0.580057828650     0.396114273285    12.000000000000
         C           -3.552059899432     0.365692828650    -0.409433726715    12.000000000000
         C            3.668048100568     0.844568828650    -0.495129726715    12.000000000000
         C            0.267555100568    -0.098892171350     0.000066273285    12.000000000000
         C           -2.139175899432    -0.234570771350    -0.416465726715    12.000000000000
         C           -1.066383899432     0.473373828650    -0.016880726715    12.000000000000
         C           -4.473137899432    -0.379946171350     0.559122273285    12.000000000000
         H            3.133261100568     0.072377828650     1.441209273285     1.007825032230
         H            1.262662100568     1.615464828650     0.726033273285     1.007825032230
         H           -3.514208899432     1.428464828650    -0.143549726715     1.007825032230
         H           -3.974201899432     0.308603828650    -1.421276726715     1.007825032230
         H            3.303150100568     0.786333828650    -1.522993726715     1.007825032230
         H            3.696195100568     1.893508828650    -0.186364726715     1.007825032230
         H            4.691967100568     0.456289828650    -0.460088726715     1.007825032230
         H            0.381248100568    -1.131442171350    -0.322191726715     1.007825032230
         H           -2.060178899432    -1.235104171350    -0.729667726715     1.007825032230
         H           -1.130074399432     1.512149228650     0.313443273285     1.007825032230
         H           -4.528376899432    -1.442202171350     0.304064273285     1.007825032230
         H           -5.488173899432     0.026762828650     0.531815273285     1.007825032230
         H           -4.097138899432    -0.299414171350     1.582277273285     1.007825032230
         H            3.600001100568    -1.673821171350    -0.003592726715     1.007825032230

  Basis Set: AUG-CC-PVTZ
    Blend: AUG-CC-PVTZ
  Basis Set: (AUG-CC-PVTZ AUX)
    Blend: AUG-CC-PVTZ-JKFIT
	 Reference Energy          =    -386.0604028665385385 [Eh]
	 Singles Energy            =      -0.0000000000000000 [Eh]
	 Same-Spin Energy          =      -0.3999932999664998 [Eh]
	 Opposite-Spin Energy      =      -1.3780932792746827 [Eh]
	 Correlation Energy        =      -1.7780865792411826 [Eh]
	 Total Energy              =    -387.8384894457797145 [Eh]

	 ================> DF-SCS-MP2 Energies <==================
	-----------------------------------------------------------
	 SCS Same-Spin Scale       =       0.3333333333333333 [-]
	 SCS Opposite-Spin Scale   =       1.2000000000000000 [-]
	 SCS Same-Spin Energy      =      -0.1333310999888332 [Eh]
	 SCS Opposite-Spin Energy  =      -1.6537119351296192 [Eh]
	 SCS Correlation Energy    =      -1.7870430351184525 [Eh]
	 SCS Total Energy          =    -387.8474459016570108 [Eh]
	-----------------------------------------------------------

  Dipole Moment: [D]
     X:     1.2321      Y:     0.7152      Z:     0.3049     Total:     1.4569

*** Psi4 exiting successfully. Buy a developer a beer!
