                               Psi4 1.3.2 release

  ==> Input File <==

--------------------------------------------------------------------------
#psi4
#
memory 32 gb

molecule  {
0 1
  O        2.6854175    -1.3370727    -0.0170958
  C        2.7508540     0.0254460     0.4069810
  C        1.3606810     0.5764810     0.3953890
  C       -3.5492030     0.3621160    -0.4101590
  C        3.6684073     0.8518177    -0.4885232
  C        0.2704120    -0.1024690    -0.0006590
  C       -2.1631840    -0.2004740    -0.4090490
  C       -1.0635270     0.4697970    -0.0176060
  C       -4.4702810    -0.3835230     0.5583970
  H        3.1361180     0.0688010     1.4404840
  H        1.2655190     1.6118880     0.7253080
  H       -3.5113520     1.4248880    -0.1442750
  H       -3.9713450     0.3050270    -1.4220020
  H        3.3060070     0.7827570    -1.5237190
  H        3.6990520     1.8899320    -0.1870900
  H        4.6948240     0.4527130    -0.4608140
  H        0.3841050    -1.1350190    -0.3229170
  H       -2.0573220    -1.2386810    -0.7303930
  H       -1.1648060     1.5075440     0.3065060
  H       -4.5255200    -1.4457790     0.3033390
  H       -5.4853170     0.0231860     0.5310900
  H       -4.0942820    -0.3029910     1.5815520
  H        3.6028580    -1.6773980    -0.0043180
units angstrom
no_reorient  #important for SAPT in psi4, default
symmetry c1  #important for SAPT in psi4, default
}

set PROPERTIES_ORIGIN ["COM"]
properties('MP2/aug-cc-pvtz', properties = ['dipole'])
--------------------------------------------------------------------------

    Molecular point group: c1
  Charge       = 0
  Multiplicity = 1
  Basis Set: AUG-CC-PVTZ
    Blend: AUG-CC-PVTZ
  Basis Set: (AUG-CC-PVTZ AUX)
    Blend: AUG-CC-PVTZ-JKFIT

    Orbital Energies [Eh]
    ---------------------

    Doubly Occupied:

       1A    -20.560008     2A    -11.286435     3A    -11.225724
       4A    -11.223398     5A    -11.223096     6A    -11.222781
       7A    -11.221458     8A    -11.221101     9A    -11.212694
      10A     -1.359742    11A     -1.097639    12A     -1.061216
      13A     -1.016251    14A     -0.962422    15A     -0.876374
      16A     -0.828330    17A     -0.752275    18A     -0.747493
      19A     -0.694295    20A     -0.637315    21A     -0.627573
      22A     -0.618158    23A     -0.589798    24A     -0.582492
      25A     -0.545326    26A     -0.543462    27A     -0.528649
      28A     -0.518626    29A     -0.500478    30A     -0.492535
      31A     -0.478995    32A     -0.467636    33A     -0.453027
      34A     -0.418103    35A     -0.297232

  @DF-RHF Final Energy:  -386.06179393378750

   => Energetics <=

    Nuclear Repulsion Energy =            417.9891595192536329
    One-Electron Energy =               -1351.9176346379579172
    Two-Electron Energy =                 547.8666811849167289
    Total Energy =                       -386.0617939337874986
  Basis Set: (AUG-CC-PVTZ AUX)
    Blend: AUG-CC-PVTZ-RI
    Molecular point group: c1

    Geometry (in Angstrom), charge = 0, multiplicity = 1:

       Center              X                  Y                   Z               Mass
    ------------   -----------------  -----------------  -----------------  -----------------
         O            2.686650377472    -1.337774840392    -0.018977418689    15.994914619570
         C            2.752086877472     0.024743859608     0.405099381311    12.000000000000
         C            1.361913877472     0.575778859608     0.393507381311    12.000000000000
         C           -3.547970122528     0.361413859608    -0.412040618689    12.000000000000
         C            3.669640177472     0.851115559608    -0.490404818689    12.000000000000
         C            0.271644877472    -0.103171140392    -0.002540618689    12.000000000000
         C           -2.161951122528    -0.201176140392    -0.410930618689    12.000000000000
         C           -1.062294122528     0.469094859608    -0.019487618689    12.000000000000
         C           -4.469048122528    -0.384225140392     0.556515381311    12.000000000000
         H            3.137350877472     0.068098859608     1.438602381311     1.007825032230
         H            1.266751877472     1.611185859608     0.723426381311     1.007825032230
         H           -3.510119122528     1.424185859608    -0.146156618689     1.007825032230
         H           -3.970112122528     0.304324859608    -1.423883618689     1.007825032230
         H            3.307239877472     0.782054859608    -1.525600618689     1.007825032230
         H            3.700284877472     1.889229859608    -0.188971618689     1.007825032230
         H            4.696056877472     0.452010859608    -0.462695618689     1.007825032230
         H            0.385337877472    -1.135721140392    -0.324798618689     1.007825032230
         H           -2.056089122528    -1.239383140392    -0.732274618689     1.007825032230
         H           -1.163573122528     1.506841859608     0.304624381311     1.007825032230
         H           -4.524287122528    -1.446481140392     0.301457381311     1.007825032230
         H           -5.484084122528     0.022483859608     0.529208381311     1.007825032230
         H           -4.093049122528    -0.303693140392     1.579670381311     1.007825032230
         H            3.604090877472    -1.678100140392    -0.006199618689     1.007825032230

  Basis Set: AUG-CC-PVTZ
    Blend: AUG-CC-PVTZ
  Basis Set: (AUG-CC-PVTZ AUX)
    Blend: AUG-CC-PVTZ-JKFIT
	 Reference Energy          =    -386.0617939337874986 [Eh]
	 Singles Energy            =      -0.0000000000000000 [Eh]
	 Same-Spin Energy          =      -0.4004722016013556 [Eh]
	 Opposite-Spin Energy      =      -1.3786008842245567 [Eh]
	 Correlation Energy        =      -1.7790730858259123 [Eh]
	 Total Energy              =    -387.8408670196134267 [Eh]

	 ================> DF-SCS-MP2 Energies <==================
	-----------------------------------------------------------
	 SCS Same-Spin Scale       =       0.3333333333333333 [-]
	 SCS Opposite-Spin Scale   =       1.2000000000000000 [-]
	 SCS Same-Spin Energy      =      -0.1334907338671185 [Eh]
	 SCS Opposite-Spin Energy  =      -1.6543210610694681 [Eh]
	 SCS Correlation Energy    =      -1.7878117949365866 [Eh]
	 SCS Total Energy          =    -387.8496057287241001 [Eh]
	-----------------------------------------------------------

  Dipole Moment: [D]
     X:     1.2291      Y:     0.7383      Z:     0.2891     Total:     1.4626

*** Psi4 exiting successfully. Buy a developer a beer!
