                               Psi4 1.3.2 release

  ==> Input File <==

--------------------------------------------------------------------------
#psi4
#
memory 32 gb

molecule  {
0 1
  O        2.6932640    -1.3344870    -0.0264310
  C        2.7508540     0.0254460     0.4069810
  C        1.3606810     0.5764810     0.3953890
  C       -3.5492030     0.3621160    -0.4101590
  C        3.6709050     0.8409920    -0.4958550
  C        0.2407234    -0.1673975    -0.0267066
  C       -2.1223614    -0.2565943    -0.4212911
  C       -1.0635270     0.4697970    -0.0176060
  C       -4.4702810    -0.3835230     0.5583970
  H        3.1361180     0.0688010     1.4404840
  H        1.2655190     1.6118880     0.7253080
  H       -3.5113520     1.4248880    -0.1442750
  H       -3.9713450     0.3050270    -1.4220020
  H        3.3060070     0.7827570    -1.5237190
  H        3.6990520     1.8899320    -0.1870900
  H        4.6948240     0.4527130    -0.4608140
  H        0.3841050    -1.1350190    -0.3229170
  H       -2.0573220    -1.2386810    -0.7303930
  H       -1.1648060     1.5075440     0.3065060
  H       -4.5255200    -1.4457790     0.3033390
  H       -5.4853170     0.0231860     0.5310900
  H       -4.0942820    -0.3029910     1.5815520
  H        3.6028580    -1.6773980    -0.0043180
units angstrom
no_reorient  #important for SAPT in psi4, default
symmetry c1  #important for SAPT in psi4, default
}

set PROPERTIES_ORIGIN ["COM"]
properties('MP2/aug-cc-pvtz', properties = ['dipole'])
--------------------------------------------------------------------------

    Molecular point group: c1
  Charge       = 0
  Multiplicity = 1
  Basis Set: AUG-CC-PVTZ
    Blend: AUG-CC-PVTZ
  Basis Set: (AUG-CC-PVTZ AUX)
    Blend: AUG-CC-PVTZ-JKFIT

    Orbital Energies [Eh]
    ---------------------

    Doubly Occupied:

       1A    -20.558450     2A    -11.285111     3A    -11.229738
       4A    -11.226251     5A    -11.225332     6A    -11.224230
       7A    -11.221774     8A    -11.219771     9A    -11.211090
      10A     -1.360181    11A     -1.093876    12A     -1.052837
      13A     -1.014456    14A     -0.956538    15A     -0.873591
      16A     -0.822251    17A     -0.764957    18A     -0.753841
      19A     -0.695559    20A     -0.641196    21A     -0.620404
      22A     -0.614740    23A     -0.590234    24A     -0.576710
      25A     -0.551712    26A     -0.545660    27A     -0.531697
      28A     -0.518299    29A     -0.509441    30A     -0.488853
      31A     -0.483235    32A     -0.455829    33A     -0.451012
      34A     -0.415766    35A     -0.287855

  @DF-RHF Final Energy:  -386.04608433382151

   => Energetics <=

    Nuclear Repulsion Energy =            417.1901656143795663
    One-Electron Energy =               -1350.3275463156141996
    Two-Electron Energy =                 547.0912963674131788
    Total Energy =                       -386.0460843338214545
  Basis Set: (AUG-CC-PVTZ AUX)
    Blend: AUG-CC-PVTZ-RI
    Molecular point group: c1

    Geometry (in Angstrom), charge = 0, multiplicity = 1:

       Center              X                  Y                   Z               Mass
    ------------   -----------------  -----------------  -----------------  -----------------
         O            2.692204456681    -1.322968035069    -0.022787249491    15.994914619570
         C            2.749794456681     0.036964964931     0.410624750509    12.000000000000
         C            1.359621456681     0.587999964931     0.399032750509    12.000000000000
         C           -3.550262543319     0.373634964931    -0.406515249491    12.000000000000
         C            3.669845456681     0.852510964931    -0.492211249491    12.000000000000
         C            0.239663856681    -0.155878535069    -0.023062849491    12.000000000000
         C           -2.123420943319    -0.245075335069    -0.417647349491    12.000000000000
         C           -1.064586543319     0.481315964931    -0.013962249491    12.000000000000
         C           -4.471340543319    -0.372004035069     0.562040750509    12.000000000000
         H            3.135058456681     0.080319964931     1.444127750509     1.007825032230
         H            1.264459456681     1.623406964931     0.728951750509     1.007825032230
         H           -3.512411543319     1.436406964931    -0.140631249491     1.007825032230
         H           -3.972404543319     0.316545964931    -1.418358249491     1.007825032230
         H            3.304947456681     0.794275964931    -1.520075249491     1.007825032230
         H            3.697992456681     1.901450964931    -0.183446249491     1.007825032230
         H            4.693764456681     0.464231964931    -0.457170249491     1.007825032230
         H            0.383045456681    -1.123500035069    -0.319273249491     1.007825032230
         H           -2.058381543319    -1.227162035069    -0.726749249491     1.007825032230
         H           -1.165865543319     1.519062964931     0.310149750509     1.007825032230
         H           -4.526579543319    -1.434260035069     0.306982750509     1.007825032230
         H           -5.486376543319     0.034704964931     0.534733750509     1.007825032230
         H           -4.095341543319    -0.291472035069     1.585195750509     1.007825032230
         H            3.601798456681    -1.665879035069    -0.000674249491     1.007825032230

  Basis Set: AUG-CC-PVTZ
    Blend: AUG-CC-PVTZ
  Basis Set: (AUG-CC-PVTZ AUX)
    Blend: AUG-CC-PVTZ-JKFIT
	 Reference Energy          =    -386.0460843338215113 [Eh]
	 Singles Energy            =      -0.0000000000000000 [Eh]
	 Same-Spin Energy          =      -0.4007275810179434 [Eh]
	 Opposite-Spin Energy      =      -1.3801254530168245 [Eh]
	 Correlation Energy        =      -1.7808530340347679 [Eh]
	 Total Energy              =    -387.8269373678562602 [Eh]

	 ================> DF-SCS-MP2 Energies <==================
	-----------------------------------------------------------
	 SCS Same-Spin Scale       =       0.3333333333333333 [-]
	 SCS Opposite-Spin Scale   =       1.2000000000000000 [-]
	 SCS Same-Spin Energy      =      -0.1335758603393145 [Eh]
	 SCS Opposite-Spin Energy  =      -1.6561505436201893 [Eh]
	 SCS Correlation Energy    =      -1.7897264039595038 [Eh]
	 SCS Total Energy          =    -387.8358107377810029 [Eh]
	-----------------------------------------------------------

  Dipole Moment: [D]
     X:     1.2425      Y:     0.7153      Z:     0.3047     Total:     1.4658

*** Psi4 exiting successfully. Buy a developer a beer!
