                               Psi4 1.4a3.dev225

  ==> Input File <==

--------------------------------------------------------------------------
#psi4
#
memory 32 gb

molecule  {
0 1
  O       -2.7161510     1.3794200    -0.1343610
  C       -2.7832390     0.0721360     0.4401970
  C       -1.3979030    -0.4954620     0.4743180
  C        3.5083460    -0.4405980    -0.4123350
  C       -3.7239960    -0.8239440    -0.3625680
  C       -0.3030690     0.1219220    -0.0067100
  C        2.1282810     0.1394430    -0.4544070
  C        1.0702689    -0.4887498     0.0246862
  C        4.4606410     0.4027870     0.4416180
  H       -3.1581590     0.1412460     1.4762970
  H       -1.3112260    -1.4900120     0.9147240
  H        3.4619600    -1.4629760    -0.0187660
  H        3.9104550    -0.5133060    -1.4317100
  H       -3.3684670    -0.8811940    -1.3941910
  H       -3.7626400    -1.8335820     0.0574350
  H       -4.7426360    -0.4191700    -0.3608330
  H       -0.4078810     1.1149080    -0.4388390
  H        2.0311270     1.1370710    -0.8883280
  H        1.1170930    -1.4649260     0.4609700
  H        4.5263310     1.4251690     0.0574090
  H        5.4690900    -0.0219830     0.4454750
  H        4.1044230     0.4539160     1.4740500
  H       -3.6221830     1.7324190    -0.1413340
units angstrom
no_reorient  #important for SAPT in psi4, default
symmetry c1  #important for SAPT in psi4, default
}

set PROPERTIES_ORIGIN ["COM"]
properties('MP2/aug-cc-pvtz', properties = ['dipole'])
--------------------------------------------------------------------------

    Molecular point group: c1
  Charge       = 0
  Multiplicity = 1
  Basis Set: AUG-CC-PVTZ
    Blend: AUG-CC-PVTZ
  Basis Set: (AUG-CC-PVTZ AUX)
    Blend: AUG-CC-PVTZ-JKFIT

    Orbital Energies [Eh]
    ---------------------

    Doubly Occupied:

       1A    -20.558488     2A    -11.286704     3A    -11.225968
       4A    -11.223202     5A    -11.222306     6A    -11.222233
       7A    -11.221210     8A    -11.220638     9A    -11.212638
      10A     -1.359790    11A     -1.096471    12A     -1.060631
      13A     -1.012626    14A     -0.964556    15A     -0.872927
      16A     -0.828757    17A     -0.754096    18A     -0.746207
      19A     -0.694232    20A     -0.636941    21A     -0.625342
      22A     -0.616696    23A     -0.592639    24A     -0.579820
      25A     -0.546376    26A     -0.543756    27A     -0.531091
      28A     -0.518301    29A     -0.501340    30A     -0.492671
      31A     -0.480588    32A     -0.459974    33A     -0.452013
      34A     -0.414641    35A     -0.304230

  @DF-RHF Final Energy:  -386.06161865929926

   => Energetics <=

    Nuclear Repulsion Energy =            417.2953576204552633
    One-Electron Energy =               -1350.5537519700990288
    Two-Electron Energy =                 547.1967756903445661
    Total Energy =                       -386.0616186592992563
  Basis Set: (AUG-CC-PVTZ AUX)
    Blend: AUG-CC-PVTZ-RI
    Molecular point group: c1

    Geometry (in Angstrom), charge = 0, multiplicity = 1:

       Center              X                  Y                   Z               Mass
    ------------   -----------------  -----------------  -----------------  -----------------
         O           -2.687189913022     1.365023994911    -0.132794984022    15.994914619570
         C           -2.754277913022     0.057739994911     0.441763015978    12.000000000000
         C           -1.368941913022    -0.509858005089     0.475884015978    12.000000000000
         C            3.537307086978    -0.454994005089    -0.410768984022    12.000000000000
         C           -3.695034913022    -0.838340005089    -0.361001984022    12.000000000000
         C           -0.274107913022     0.107525994911    -0.005143984022    12.000000000000
         C            2.157242086978     0.125046994911    -0.452840984022    12.000000000000
         C            1.099229986978    -0.503145805089     0.026252215978    12.000000000000
         C            4.489602086978     0.388390994911     0.443184015978    12.000000000000
         H           -3.129197913022     0.126849994911     1.477863015978     1.007825032230
         H           -1.282264913022    -1.504408005089     0.916290015978     1.007825032230
         H            3.490921086978    -1.477372005089    -0.017199984022     1.007825032230
         H            3.939416086978    -0.527702005089    -1.430143984022     1.007825032230
         H           -3.339505913022    -0.895590005089    -1.392624984022     1.007825032230
         H           -3.733678913022    -1.847978005089     0.059001015978     1.007825032230
         H           -4.713674913022    -0.433566005089    -0.359266984022     1.007825032230
         H           -0.378919913022     1.100511994911    -0.437272984022     1.007825032230
         H            2.060088086978     1.122674994911    -0.886761984022     1.007825032230
         H            1.146054086978    -1.479322005089     0.462536015978     1.007825032230
         H            4.555292086978     1.410772994911     0.058975015978     1.007825032230
         H            5.498051086978    -0.036379005089     0.447041015978     1.007825032230
         H            4.133384086978     0.439519994911     1.475616015978     1.007825032230
         H           -3.593221913022     1.718022994911    -0.139767984022     1.007825032230

  Basis Set: AUG-CC-PVTZ
    Blend: AUG-CC-PVTZ
  Basis Set: (AUG-CC-PVTZ AUX)
    Blend: AUG-CC-PVTZ-JKFIT
	 Reference Energy          =    -386.0616186592992563 [Eh]
	 Singles Energy            =      -0.0000000000000000 [Eh]
	 Same-Spin Energy          =      -0.3993841118423565 [Eh]
	 Opposite-Spin Energy      =      -1.3772730058215730 [Eh]
	 Correlation Energy        =      -1.7766571176639294 [Eh]
	 Total Energy              =    -387.8382757769632008 [Eh]

	 ================> DF-SCS-MP2 Energies <==================
	-----------------------------------------------------------
	 SCS Same-Spin Scale       =       0.3333333333333333 [-]
	 SCS Opposite-Spin Scale   =       1.2000000000000000 [-]
	 SCS Same-Spin Energy      =      -0.1331280372807855 [Eh]
	 SCS Opposite-Spin Energy  =      -1.6527276069858876 [Eh]
	 SCS Correlation Energy    =      -1.7858556442666731 [Eh]
	 SCS Total Energy          =    -387.8474743035659458 [Eh]
	-----------------------------------------------------------

  Dipole Moment: [D]
     X:    -1.1889      Y:    -0.6916      Z:     0.3863     Total:     1.4287

*** Psi4 exiting successfully. Buy a developer a beer!
