                               Psi4 1.3.2 release

  ==> Input File <==

--------------------------------------------------------------------------
#psi4
#
memory 32 gb

molecule  {
0 1
  O        2.6932640    -1.3344870    -0.0264310
  C        2.8247960     0.0176814     0.4150669
  C        1.3606810     0.5764810     0.3953890
  C       -3.5492030     0.3621160    -0.4101590
  C        3.6709050     0.8409920    -0.4958550
  C        0.2704120    -0.1024690    -0.0006590
  C       -2.1631840    -0.2004740    -0.4090490
  C       -1.0635270     0.4697970    -0.0176060
  C       -4.4702810    -0.3835230     0.5583970
  H        3.1361180     0.0688010     1.4404840
  H        1.2655190     1.6118880     0.7253080
  H       -3.5113520     1.4248880    -0.1442750
  H       -3.9713450     0.3050270    -1.4220020
  H        3.3060070     0.7827570    -1.5237190
  H        3.6990520     1.8899320    -0.1870900
  H        4.6948240     0.4527130    -0.4608140
  H        0.3841050    -1.1350190    -0.3229170
  H       -2.0573220    -1.2386810    -0.7303930
  H       -1.1648060     1.5075440     0.3065060
  H       -4.5255200    -1.4457790     0.3033390
  H       -5.4853170     0.0231860     0.5310900
  H       -4.0942820    -0.3029910     1.5815520
  H        3.6182424    -1.6317499     0.0121427
units angstrom
no_reorient  #important for SAPT in psi4, default
symmetry c1  #important for SAPT in psi4, default
}

set PROPERTIES_ORIGIN ["COM"]
properties('MP2/aug-cc-pvtz', properties = ['dipole'])
--------------------------------------------------------------------------

    Molecular point group: c1
  Charge       = 0
  Multiplicity = 1
  Basis Set: AUG-CC-PVTZ
    Blend: AUG-CC-PVTZ
  Basis Set: (AUG-CC-PVTZ AUX)
    Blend: AUG-CC-PVTZ-JKFIT

    Orbital Energies [Eh]
    ---------------------

    Doubly Occupied:

       1A    -20.562621     2A    -11.286390     3A    -11.224715
       4A    -11.223858     5A    -11.222536     6A    -11.222252
       7A    -11.221211     8A    -11.220653     9A    -11.212158
      10A     -1.365609    11A     -1.095041    12A     -1.057243
      13A     -1.019895    14A     -0.962184    15A     -0.871721
      16A     -0.828192    17A     -0.752666    18A     -0.743615
      19A     -0.698603    20A     -0.636957    21A     -0.627311
      22A     -0.620772    23A     -0.589626    24A     -0.580785
      25A     -0.554255    26A     -0.543899    27A     -0.527296
      28A     -0.517335    29A     -0.501029    30A     -0.488945
      31A     -0.477594    32A     -0.461198    33A     -0.454921
      34A     -0.420088    35A     -0.297263

  @DF-RHF Final Energy:  -386.05549172945501

   => Energetics <=

    Nuclear Repulsion Energy =            417.4213442284200823
    One-Electron Energy =               -1350.7728033162165957
    Two-Electron Energy =                 547.2959673583413860
    Total Energy =                       -386.0554917294550705
  Basis Set: (AUG-CC-PVTZ AUX)
    Blend: AUG-CC-PVTZ-RI
    Molecular point group: c1

    Geometry (in Angstrom), charge = 0, multiplicity = 1:

       Center              X                  Y                   Z               Mass
    ------------   -----------------  -----------------  -----------------  -----------------
         O            2.686104745755    -1.334112887847    -0.027331868155    15.994914619570
         C            2.817636745755     0.018055512153     0.414166031845    12.000000000000
         C            1.353521745755     0.576855112153     0.394488131845    12.000000000000
         C           -3.556362254245     0.362490112153    -0.411059868155    12.000000000000
         C            3.663745745755     0.841366112153    -0.496755868155    12.000000000000
         C            0.263252745755    -0.102094887847    -0.001559868155    12.000000000000
         C           -2.170343254245    -0.200099887847    -0.409949868155    12.000000000000
         C           -1.070686254245     0.470171112153    -0.018506868155    12.000000000000
         C           -4.477440254245    -0.383148887847     0.557496131845    12.000000000000
         H            3.128958745755     0.069175112153     1.439583131845     1.007825032230
         H            1.258359745755     1.612262112153     0.724407131845     1.007825032230
         H           -3.518511254245     1.425262112153    -0.145175868155     1.007825032230
         H           -3.978504254245     0.305401112153    -1.422902868155     1.007825032230
         H            3.298847745755     0.783131112153    -1.524619868155     1.007825032230
         H            3.691892745755     1.890306112153    -0.187990868155     1.007825032230
         H            4.687664745755     0.453087112153    -0.461714868155     1.007825032230
         H            0.376945745755    -1.134644887847    -0.323817868155     1.007825032230
         H           -2.064481254245    -1.238306887847    -0.731293868155     1.007825032230
         H           -1.171965254245     1.507918112153     0.305605131845     1.007825032230
         H           -4.532679254245    -1.445404887847     0.302438131845     1.007825032230
         H           -5.492476254245     0.023560112153     0.530189131845     1.007825032230
         H           -4.101441254245    -0.302616887847     1.580651131845     1.007825032230
         H            3.611083145755    -1.631375787847     0.011241831845     1.007825032230

  Basis Set: AUG-CC-PVTZ
    Blend: AUG-CC-PVTZ
  Basis Set: (AUG-CC-PVTZ AUX)
    Blend: AUG-CC-PVTZ-JKFIT
	 Reference Energy          =    -386.0554917294550137 [Eh]
	 Singles Energy            =      -0.0000000000000000 [Eh]
	 Same-Spin Energy          =      -0.4005221567679319 [Eh]
	 Opposite-Spin Energy      =      -1.3791609695785521 [Eh]
	 Correlation Energy        =      -1.7796831263464838 [Eh]
	 Total Energy              =    -387.8351748558014833 [Eh]

	 ================> DF-SCS-MP2 Energies <==================
	-----------------------------------------------------------
	 SCS Same-Spin Scale       =       0.3333333333333333 [-]
	 SCS Opposite-Spin Scale   =       1.2000000000000000 [-]
	 SCS Same-Spin Energy      =      -0.1335073855893106 [Eh]
	 SCS Opposite-Spin Energy  =      -1.6549931634942625 [Eh]
	 SCS Correlation Energy    =      -1.7885005490835733 [Eh]
	 SCS Total Energy          =    -387.8439922785385647 [Eh]
	-----------------------------------------------------------

  Dipole Moment: [D]
     X:     1.3391      Y:     0.7822      Z:     0.3198     Total:     1.5835

*** Psi4 exiting successfully. Buy a developer a beer!
