                               Psi4 1.3.2 release

  ==> Input File <==

--------------------------------------------------------------------------
#psi4
#
memory 32 gb

molecule  {
0 1
  O        2.6932640    -1.3344870    -0.0264310
  C        2.7508540     0.0254460     0.4069810
  C        1.3606810     0.5764810     0.3953890
  C       -3.5492030     0.3621160    -0.4101590
  C        3.6709050     0.8409920    -0.4958550
  C        0.2704120    -0.1024690    -0.0006590
  C       -2.1631840    -0.2004740    -0.4090490
  C       -1.0895751     0.4032663    -0.0435052
  C       -4.4702810    -0.3835230     0.5583970
  H        3.1361180     0.0688010     1.4404840
  H        1.2655190     1.6118880     0.7253080
  H       -3.5113520     1.4248880    -0.1442750
  H       -3.9713450     0.3050270    -1.4220020
  H        3.3060070     0.7827570    -1.5237190
  H        3.6990520     1.8899320    -0.1870900
  H        4.6948240     0.4527130    -0.4608140
  H        0.3279407    -1.1367575    -0.3321307
  H       -2.0573220    -1.2386810    -0.7303930
  H       -1.1648060     1.5075440     0.3065060
  H       -4.5255200    -1.4457790     0.3033390
  H       -5.4853170     0.0231860     0.5310900
  H       -4.0942820    -0.3029910     1.5815520
  H        3.6028580    -1.6773980    -0.0043180
units angstrom
no_reorient  #important for SAPT in psi4, default
symmetry c1  #important for SAPT in psi4, default
}

set PROPERTIES_ORIGIN ["COM"]
properties('MP2/aug-cc-pvtz', properties = ['dipole'])
--------------------------------------------------------------------------

    Molecular point group: c1
  Charge       = 0
  Multiplicity = 1
  Basis Set: AUG-CC-PVTZ
    Blend: AUG-CC-PVTZ
  Basis Set: (AUG-CC-PVTZ AUX)
    Blend: AUG-CC-PVTZ-JKFIT

    Orbital Energies [Eh]
    ---------------------

    Doubly Occupied:

       1A    -20.558634     2A    -11.287733     3A    -11.226522
       4A    -11.223912     5A    -11.223880     6A    -11.221238
       7A    -11.220459     8A    -11.216273     9A    -11.213069
      10A     -1.360537    11A     -1.104008    12A     -1.063248
      13A     -1.017436    14A     -0.968931    15A     -0.877538
      16A     -0.831722    17A     -0.754960    18A     -0.740113
      19A     -0.695223    20A     -0.637663    21A     -0.630365
      22A     -0.616549    23A     -0.594497    24A     -0.581807
      25A     -0.546782    26A     -0.544029    27A     -0.524214
      28A     -0.521834    29A     -0.500523    30A     -0.489546
      31A     -0.479722    32A     -0.455610    33A     -0.453383
      34A     -0.424090    35A     -0.307418

  @DF-RHF Final Energy:  -386.05567288079703

   => Energetics <=

    Nuclear Repulsion Energy =            418.5434141400567682
    One-Electron Energy =               -1352.9712404316005632
    Two-Electron Energy =                 548.3721534107468187
    Total Energy =                       -386.0556728807970330
  Basis Set: (AUG-CC-PVTZ AUX)
    Blend: AUG-CC-PVTZ-RI
    Molecular point group: c1

    Geometry (in Angstrom), charge = 0, multiplicity = 1:

       Center              X                  Y                   Z               Mass
    ------------   -----------------  -----------------  -----------------  -----------------
         O            2.696191539828    -1.328142039779    -0.023892683803    15.994914619570
         C            2.753781539828     0.031790960221     0.409519316197    12.000000000000
         C            1.363608539828     0.582825960221     0.397927316197    12.000000000000
         C           -3.546275460172     0.368460960221    -0.407620683803    12.000000000000
         C            3.673832539828     0.847336960221    -0.493316683803    12.000000000000
         C            0.273339539828    -0.096124039779     0.001879316197    12.000000000000
         C           -2.160256460172    -0.194129039779    -0.406510683803    12.000000000000
         C           -1.086647560172     0.409611260221    -0.040966883803    12.000000000000
         C           -4.467353460172    -0.377178039779     0.560935316197    12.000000000000
         H            3.139045539828     0.075145960221     1.443022316197     1.007825032230
         H            1.268446539828     1.618232960221     0.727846316197     1.007825032230
         H           -3.508424460172     1.431232960221    -0.141736683803     1.007825032230
         H           -3.968417460172     0.311371960221    -1.419463683803     1.007825032230
         H            3.308934539828     0.789101960221    -1.521180683803     1.007825032230
         H            3.701979539828     1.896276960221    -0.184551683803     1.007825032230
         H            4.697751539828     0.459057960221    -0.458275683803     1.007825032230
         H            0.330868239828    -1.130412539779    -0.329592383803     1.007825032230
         H           -2.054394460172    -1.232336039779    -0.727854683803     1.007825032230
         H           -1.161878460172     1.513888960221     0.309044316197     1.007825032230
         H           -4.522592460172    -1.439434039779     0.305877316197     1.007825032230
         H           -5.482389460172     0.029530960221     0.533628316197     1.007825032230
         H           -4.091354460172    -0.296646039779     1.584090316197     1.007825032230
         H            3.605785539828    -1.671053039779    -0.001779683803     1.007825032230

  Basis Set: AUG-CC-PVTZ
    Blend: AUG-CC-PVTZ
  Basis Set: (AUG-CC-PVTZ AUX)
    Blend: AUG-CC-PVTZ-JKFIT
	 Reference Energy          =    -386.0556728807970330 [Eh]
	 Singles Energy            =      -0.0000000000000000 [Eh]
	 Same-Spin Energy          =      -0.3999423687203979 [Eh]
	 Opposite-Spin Energy      =      -1.3774087203701564 [Eh]
	 Correlation Energy        =      -1.7773510890905544 [Eh]
	 Total Energy              =    -387.8330239698875630 [Eh]

	 ================> DF-SCS-MP2 Energies <==================
	-----------------------------------------------------------
	 SCS Same-Spin Scale       =       0.3333333333333333 [-]
	 SCS Opposite-Spin Scale   =       1.2000000000000000 [-]
	 SCS Same-Spin Energy      =      -0.1333141229067993 [Eh]
	 SCS Opposite-Spin Energy  =      -1.6528904644441875 [Eh]
	 SCS Correlation Energy    =      -1.7862045873509869 [Eh]
	 SCS Total Energy          =    -387.8418774681480272 [Eh]
	-----------------------------------------------------------

  Dipole Moment: [D]
     X:     1.2218      Y:     0.6913      Z:     0.2990     Total:     1.4353

*** Psi4 exiting successfully. Buy a developer a beer!
