                               Psi4 1.3.2 release

  ==> Input File <==

--------------------------------------------------------------------------
#psi4
#
memory 32 gb

molecule  {
0 1
  O        2.6932640    -1.3344870    -0.0264310
  C        2.7508540     0.0254460     0.4069810
  C        1.3606810     0.5764810     0.3953890
  C       -3.5492030     0.3621160    -0.4101590
  C        3.6709050     0.8409920    -0.4958550
  C        0.2704120    -0.1024690    -0.0006590
  C       -2.1631840    -0.2004740    -0.4090490
  C       -1.0635270     0.4697970    -0.0176060
  C       -4.4702810    -0.3835230     0.5583970
  H        3.1361180     0.0688010     1.4404840
  H        1.2829662     1.4220544     0.6648200
  H       -3.5113520     1.4248880    -0.1442750
  H       -3.9713450     0.3050270    -1.4220020
  H        3.3060070     0.7827570    -1.5237190
  H        3.6990520     1.8899320    -0.1870900
  H        4.6948240     0.4527130    -0.4608140
  H        0.3841050    -1.1350190    -0.3229170
  H       -2.0573220    -1.2386810    -0.7303930
  H       -1.1648060     1.5075440     0.3065060
  H       -4.5255200    -1.4457790     0.3033390
  H       -5.4853170     0.0231860     0.5310900
  H       -4.0942820    -0.3029910     1.5815520
  H        3.6028580    -1.6773980    -0.0043180
units angstrom
no_reorient  #important for SAPT in psi4, default
symmetry c1  #important for SAPT in psi4, default
}

set PROPERTIES_ORIGIN ["COM"]
properties('MP2/aug-cc-pvtz', properties = ['dipole'])
--------------------------------------------------------------------------

    Molecular point group: c1
  Charge       = 0
  Multiplicity = 1
  Basis Set: AUG-CC-PVTZ
    Blend: AUG-CC-PVTZ
  Basis Set: (AUG-CC-PVTZ AUX)
    Blend: AUG-CC-PVTZ-JKFIT

    Orbital Energies [Eh]
    ---------------------

    Doubly Occupied:

       1A    -20.557295     2A    -11.284459     3A    -11.226030
       4A    -11.223333     5A    -11.223101     6A    -11.221282
       7A    -11.220502     8A    -11.212841     9A    -11.197808
      10A     -1.359120    11A     -1.101133    12A     -1.066015
      13A     -1.015815    14A     -0.966171    15A     -0.878587
      16A     -0.828397    17A     -0.781308    18A     -0.751764
      19A     -0.694749    20A     -0.636897    21A     -0.631266
      22A     -0.616031    23A     -0.597406    24A     -0.585534
      25A     -0.553269    26A     -0.544382    27A     -0.528085
      28A     -0.519794    29A     -0.504358    30A     -0.491587
      31A     -0.479175    32A     -0.468271    33A     -0.451920
      34A     -0.417732    35A     -0.296953

  @DF-RHF Final Energy:  -386.02850301941601

   => Energetics <=

    Nuclear Repulsion Energy =            419.0980640761899281
    One-Electron Energy =               -1353.9883923354273065
    Two-Electron Energy =                 548.8618252398213144
    Total Energy =                       -386.0285030194160072
  Basis Set: (AUG-CC-PVTZ AUX)
    Blend: AUG-CC-PVTZ-RI
    Molecular point group: c1

    Geometry (in Angstrom), charge = 0, multiplicity = 1:

       Center              X                  Y                   Z               Mass
    ------------   -----------------  -----------------  -----------------  -----------------
         O            2.693124521447    -1.332969794684    -0.025947447500    15.994914619570
         C            2.750714521447     0.026963205316     0.407464552500    12.000000000000
         C            1.360541521447     0.577998205316     0.395872552500    12.000000000000
         C           -3.549342478553     0.363633205316    -0.409675447500    12.000000000000
         C            3.670765521447     0.842509205316    -0.495371447500    12.000000000000
         C            0.270272521447    -0.100951794684    -0.000175447500    12.000000000000
         C           -2.163323478553    -0.198956794684    -0.408565447500    12.000000000000
         C           -1.063666478553     0.471314205316    -0.017122447500    12.000000000000
         C           -4.470420478553    -0.382005794684     0.558880552500    12.000000000000
         H            3.135978521447     0.070318205316     1.440967552500     1.007825032230
         H            1.282826721447     1.423571605316     0.665303552500     1.007825032230
         H           -3.511491478553     1.426405205316    -0.143791447500     1.007825032230
         H           -3.971484478553     0.306544205316    -1.421518447500     1.007825032230
         H            3.305867521447     0.784274205316    -1.523235447500     1.007825032230
         H            3.698912521447     1.891449205316    -0.186606447500     1.007825032230
         H            4.694684521447     0.454230205316    -0.460330447500     1.007825032230
         H            0.383965521447    -1.133501794684    -0.322433447500     1.007825032230
         H           -2.057461478553    -1.237163794684    -0.729909447500     1.007825032230
         H           -1.164945478553     1.509061205316     0.306989552500     1.007825032230
         H           -4.525659478553    -1.444261794684     0.303822552500     1.007825032230
         H           -5.485456478553     0.024703205316     0.531573552500     1.007825032230
         H           -4.094421478553    -0.301473794684     1.582035552500     1.007825032230
         H            3.602718521447    -1.675880794684    -0.003834447500     1.007825032230

  Basis Set: AUG-CC-PVTZ
    Blend: AUG-CC-PVTZ
  Basis Set: (AUG-CC-PVTZ AUX)
    Blend: AUG-CC-PVTZ-JKFIT
	 Reference Energy          =    -386.0285030194160072 [Eh]
	 Singles Energy            =      -0.0000000000000000 [Eh]
	 Same-Spin Energy          =      -0.4001307864017946 [Eh]
	 Opposite-Spin Energy      =      -1.3776549611078039 [Eh]
	 Correlation Energy        =      -1.7777857475095984 [Eh]
	 Total Energy              =    -387.8062887669256042 [Eh]

	 ================> DF-SCS-MP2 Energies <==================
	-----------------------------------------------------------
	 SCS Same-Spin Scale       =       0.3333333333333333 [-]
	 SCS Opposite-Spin Scale   =       1.2000000000000000 [-]
	 SCS Same-Spin Energy      =      -0.1333769288005982 [Eh]
	 SCS Opposite-Spin Energy  =      -1.6531859533293647 [Eh]
	 SCS Correlation Energy    =      -1.7865628821299628 [Eh]
	 SCS Total Energy          =    -387.8150659015459496 [Eh]
	-----------------------------------------------------------

  Dipole Moment: [D]
     X:     1.1793      Y:     0.7877      Z:     0.3267     Total:     1.4553

*** Psi4 exiting successfully. Buy a developer a beer!
