                               Psi4 1.3.2 release

  ==> Input File <==

--------------------------------------------------------------------------
#psi4
#
memory 32 gb

molecule  {
0 1
  O        2.6932640    -1.3344870    -0.0264310
  C        2.7508540     0.0254460     0.4069810
  C        1.3606810     0.5764810     0.3953890
  C       -3.5492030     0.3621160    -0.4101590
  C        3.6709050     0.8409920    -0.4958550
  C        0.2704120    -0.1024690    -0.0006590
  C       -2.1631840    -0.2004740    -0.4090490
  C       -1.0635270     0.4697970    -0.0176060
  C       -4.4702810    -0.3835230     0.5583970
  H        3.1361180     0.0688010     1.4404840
  H        1.2480718     1.8017216     0.7857960
  H       -3.5113520     1.4248880    -0.1442750
  H       -3.9713450     0.3050270    -1.4220020
  H        3.3060070     0.7827570    -1.5237190
  H        3.6990520     1.8899320    -0.1870900
  H        4.6948240     0.4527130    -0.4608140
  H        0.3841050    -1.1350190    -0.3229170
  H       -2.0573220    -1.2386810    -0.7303930
  H       -1.1648060     1.5075440     0.3065060
  H       -4.5255200    -1.4457790     0.3033390
  H       -5.4853170     0.0231860     0.5310900
  H       -4.0942820    -0.3029910     1.5815520
  H        3.6028580    -1.6773980    -0.0043180
units angstrom
no_reorient  #important for SAPT in psi4, default
symmetry c1  #important for SAPT in psi4, default
}

set PROPERTIES_ORIGIN ["COM"]
properties('MP2/aug-cc-pvtz', properties = ['dipole'])
--------------------------------------------------------------------------

    Molecular point group: c1
  Charge       = 0
  Multiplicity = 1
  Basis Set: AUG-CC-PVTZ
    Blend: AUG-CC-PVTZ
  Basis Set: (AUG-CC-PVTZ AUX)
    Blend: AUG-CC-PVTZ-JKFIT

    Orbital Energies [Eh]
    ---------------------

    Doubly Occupied:

       1A    -20.560677     2A    -11.289248     3A    -11.244887
       4A    -11.226367     5A    -11.225345     6A    -11.223553
       7A    -11.223334     8A    -11.220544     9A    -11.212988
      10A     -1.362615    11A     -1.097269    12A     -1.059612
      13A     -1.016776    14A     -0.961413    15A     -0.876468
      16A     -0.829385    17A     -0.752745    18A     -0.729137
      19A     -0.695968    20A     -0.638395    21A     -0.626656
      22A     -0.617636    23A     -0.588916    24A     -0.577446
      25A     -0.545936    26A     -0.537285    27A     -0.526054
      28A     -0.516651    29A     -0.493670    30A     -0.490556
      31A     -0.478971    32A     -0.465270    33A     -0.454527
      34A     -0.419431    35A     -0.298910

  @DF-RHF Final Energy:  -386.04112973602741

   => Energetics <=

    Nuclear Repulsion Energy =            417.1259093976369741
    One-Electron Energy =               -1350.1647991900026682
    Two-Electron Energy =                 546.9977600563382794
    Total Energy =                       -386.0411297360274148
  Basis Set: (AUG-CC-PVTZ AUX)
    Blend: AUG-CC-PVTZ-RI
    Molecular point group: c1

    Geometry (in Angstrom), charge = 0, multiplicity = 1:

       Center              X                  Y                   Z               Mass
    ------------   -----------------  -----------------  -----------------  -----------------
         O            2.693403396979    -1.336004089368    -0.026914285915    15.994914619570
         C            2.750993396979     0.023928910632     0.406497714085    12.000000000000
         C            1.360820396979     0.574963910632     0.394905714085    12.000000000000
         C           -3.549063603021     0.360598910632    -0.410642285915    12.000000000000
         C            3.671044396979     0.839474910632    -0.496338285915    12.000000000000
         C            0.270551396979    -0.103986089368    -0.001142285915    12.000000000000
         C           -2.163044603021    -0.201991089368    -0.409532285915    12.000000000000
         C           -1.063387603021     0.468279910632    -0.018089285915    12.000000000000
         C           -4.470141603021    -0.385040089368     0.557913714085    12.000000000000
         H            3.136257396979     0.067283910632     1.440000714085     1.007825032230
         H            1.248211196979     1.800204510632     0.785312714085     1.007825032230
         H           -3.511212603021     1.423370910632    -0.144758285915     1.007825032230
         H           -3.971205603021     0.303509910632    -1.422485285915     1.007825032230
         H            3.306146396979     0.781239910632    -1.524202285915     1.007825032230
         H            3.699191396979     1.888414910632    -0.187573285915     1.007825032230
         H            4.694963396979     0.451195910632    -0.461297285915     1.007825032230
         H            0.384244396979    -1.136536089368    -0.323400285915     1.007825032230
         H           -2.057182603021    -1.240198089368    -0.730876285915     1.007825032230
         H           -1.164666603021     1.506026910632     0.306022714085     1.007825032230
         H           -4.525380603021    -1.447296089368     0.302855714085     1.007825032230
         H           -5.485177603021     0.021668910632     0.530606714085     1.007825032230
         H           -4.094142603021    -0.304508089368     1.581068714085     1.007825032230
         H            3.602997396979    -1.678915089368    -0.004801285915     1.007825032230

  Basis Set: AUG-CC-PVTZ
    Blend: AUG-CC-PVTZ
  Basis Set: (AUG-CC-PVTZ AUX)
    Blend: AUG-CC-PVTZ-JKFIT
	 Reference Energy          =    -386.0411297360274148 [Eh]
	 Singles Energy            =      -0.0000000000000000 [Eh]
	 Same-Spin Energy          =      -0.4008114975825968 [Eh]
	 Opposite-Spin Energy      =      -1.3803873522025654 [Eh]
	 Correlation Energy        =      -1.7811988497851621 [Eh]
	 Total Energy              =    -387.8223285858125564 [Eh]

	 ================> DF-SCS-MP2 Energies <==================
	-----------------------------------------------------------
	 SCS Same-Spin Scale       =       0.3333333333333333 [-]
	 SCS Opposite-Spin Scale   =       1.2000000000000000 [-]
	 SCS Same-Spin Energy      =      -0.1336038325275322 [Eh]
	 SCS Opposite-Spin Energy  =      -1.6564648226430785 [Eh]
	 SCS Correlation Energy    =      -1.7900686551706106 [Eh]
	 SCS Total Energy          =    -387.8311983911980292 [Eh]
	-----------------------------------------------------------

  Dipole Moment: [D]
     X:     1.2175      Y:     0.6202      Z:     0.2724     Total:     1.3933

*** Psi4 exiting successfully. Buy a developer a beer!
