                               Psi4 1.3.2 release

  ==> Input File <==

--------------------------------------------------------------------------
#psi4
#
memory 32 gb

molecule  {
0 1
  O        2.6932640    -1.3344870    -0.0264310
  C        2.7508540     0.0254460     0.4069810
  C        1.3606810     0.5764810     0.3953890
  C       -3.5492030     0.3621160    -0.4101590
  C        3.6709050     0.8409920    -0.4958550
  C        0.2964443    -0.0359719     0.0253422
  C       -2.2009925    -0.1425165    -0.3957339
  C       -1.0635270     0.4697970    -0.0176060
  C       -4.4702810    -0.3835230     0.5583970
  H        3.1361180     0.0688010     1.4404840
  H        1.2655190     1.6118880     0.7253080
  H       -3.5113520     1.4248880    -0.1442750
  H       -3.9713450     0.3050270    -1.4220020
  H        3.3060070     0.7827570    -1.5237190
  H        3.6990520     1.8899320    -0.1870900
  H        4.6948240     0.4527130    -0.4608140
  H        0.3841050    -1.1350190    -0.3229170
  H       -2.0573220    -1.2386810    -0.7303930
  H       -1.1648060     1.5075440     0.3065060
  H       -4.5255200    -1.4457790     0.3033390
  H       -5.4853170     0.0231860     0.5310900
  H       -4.0942820    -0.3029910     1.5815520
  H        3.6028580    -1.6773980    -0.0043180
units angstrom
no_reorient  #important for SAPT in psi4, default
symmetry c1  #important for SAPT in psi4, default
}

set PROPERTIES_ORIGIN ["COM"]
properties('MP2/aug-cc-pvtz', properties = ['dipole'])
--------------------------------------------------------------------------

    Molecular point group: c1
  Charge       = 0
  Multiplicity = 1
  Basis Set: AUG-CC-PVTZ
    Blend: AUG-CC-PVTZ
  Basis Set: (AUG-CC-PVTZ AUX)
    Blend: AUG-CC-PVTZ-JKFIT

    Orbital Energies [Eh]
    ---------------------

    Doubly Occupied:

       1A    -20.558829     2A    -11.288033     3A    -11.230906
       4A    -11.223590     5A    -11.222362     6A    -11.221364
       7A    -11.220614     8A    -11.215315     9A    -11.214815
      10A     -1.360869    11A     -1.104587    12A     -1.072232
      13A     -1.017835    14A     -0.968449    15A     -0.881011
      16A     -0.835850    17A     -0.749628    18A     -0.737736
      19A     -0.694146    20A     -0.639493    21A     -0.632810
      22A     -0.617539    23A     -0.598378    24A     -0.583383
      25A     -0.546428    26A     -0.540615    27A     -0.526481
      28A     -0.522418    29A     -0.501217    30A     -0.491391
      31A     -0.472284    32A     -0.456556    33A     -0.455037
      34A     -0.422823    35A     -0.306680

  @DF-RHF Final Energy:  -386.04913895035190

   => Energetics <=

    Nuclear Repulsion Energy =            418.8799576271051137
    One-Electron Energy =               -1353.5947822551120225
    Two-Electron Energy =                 548.6656856776550057
    Total Energy =                       -386.0491389503519031
  Basis Set: (AUG-CC-PVTZ AUX)
    Blend: AUG-CC-PVTZ-RI
    Molecular point group: c1

    Geometry (in Angstrom), charge = 0, multiplicity = 1:

       Center              X                  Y                   Z               Mass
    ------------   -----------------  -----------------  -----------------  -----------------
         O            2.694384572983    -1.346329942186    -0.030172174359    15.994914619570
         C            2.751974572983     0.013603057814     0.403239825641    12.000000000000
         C            1.361801572983     0.564638057814     0.391647825641    12.000000000000
         C           -3.548082427017     0.350273057814    -0.413900174359    12.000000000000
         C            3.672025572983     0.829149057814    -0.499596174359    12.000000000000
         C            0.297564872983    -0.047814842186     0.021601025641    12.000000000000
         C           -2.199871927017    -0.154359442186    -0.399475074359    12.000000000000
         C           -1.062406427017     0.457954057814    -0.021347174359    12.000000000000
         C           -4.469160427017    -0.395365942186     0.554655825641    12.000000000000
         H            3.137238572983     0.056958057814     1.436742825641     1.007825032230
         H            1.266639572983     1.600045057814     0.721566825641     1.007825032230
         H           -3.510231427017     1.413045057814    -0.148016174359     1.007825032230
         H           -3.970224427017     0.293184057814    -1.425743174359     1.007825032230
         H            3.307127572983     0.770914057814    -1.527460174359     1.007825032230
         H            3.700172572983     1.878089057814    -0.190831174359     1.007825032230
         H            4.695944572983     0.440870057814    -0.464555174359     1.007825032230
         H            0.385225572983    -1.146861942186    -0.326658174359     1.007825032230
         H           -2.056201427017    -1.250523942186    -0.734134174359     1.007825032230
         H           -1.163685427017     1.495701057814     0.302764825641     1.007825032230
         H           -4.524399427017    -1.457621942186     0.299597825641     1.007825032230
         H           -5.484196427017     0.011343057814     0.527348825641     1.007825032230
         H           -4.093161427017    -0.314833942186     1.577810825641     1.007825032230
         H            3.603978572983    -1.689240942186    -0.008059174359     1.007825032230

  Basis Set: AUG-CC-PVTZ
    Blend: AUG-CC-PVTZ
  Basis Set: (AUG-CC-PVTZ AUX)
    Blend: AUG-CC-PVTZ-JKFIT
	 Reference Energy          =    -386.0491389503519031 [Eh]
	 Singles Energy            =      -0.0000000000000000 [Eh]
	 Same-Spin Energy          =      -0.4008117848388097 [Eh]
	 Opposite-Spin Energy      =      -1.3783373328793009 [Eh]
	 Correlation Energy        =      -1.7791491177181107 [Eh]
	 Total Energy              =    -387.8282880680700373 [Eh]

	 ================> DF-SCS-MP2 Energies <==================
	-----------------------------------------------------------
	 SCS Same-Spin Scale       =       0.3333333333333333 [-]
	 SCS Opposite-Spin Scale   =       1.2000000000000000 [-]
	 SCS Same-Spin Energy      =      -0.1336039282796032 [Eh]
	 SCS Opposite-Spin Energy  =      -1.6540047994551610 [Eh]
	 SCS Correlation Energy    =      -1.7876087277347643 [Eh]
	 SCS Total Energy          =    -387.8367476780866809 [Eh]
	-----------------------------------------------------------

  Dipole Moment: [D]
     X:     1.1552      Y:     0.7761      Z:     0.3246     Total:     1.4291

*** Psi4 exiting successfully. Buy a developer a beer!
