                               Psi4 1.3.2 release

  ==> Input File <==

--------------------------------------------------------------------------
#psi4
#
memory 32 gb

molecule  {
0 1
  O        2.6932640    -1.3344870    -0.0264310
  C        2.7508540     0.0254460     0.4069810
  C        1.3606810     0.5764810     0.3953890
  C       -3.5492030     0.3621160    -0.4101590
  C        3.6709050     0.8409920    -0.4958550
  C        0.2704120    -0.1024690    -0.0006590
  C       -2.1631840    -0.2004740    -0.4090490
  C       -1.0635270     0.4697970    -0.0176060
  C       -4.4653169    -0.4062442     0.5452576
  H        3.1361180     0.0688010     1.4404840
  H        1.2655190     1.6118880     0.7253080
  H       -3.4993555     1.4279381    -0.1588628
  H       -3.9713450     0.3050270    -1.4220020
  H        3.3060070     0.7827570    -1.5237190
  H        3.6990520     1.8899320    -0.1870900
  H        4.6948240     0.4527130    -0.4608140
  H        0.3841050    -1.1350190    -0.3229170
  H       -2.0573220    -1.2386810    -0.7303930
  H       -1.1648060     1.5075440     0.3065060
  H       -4.5255200    -1.4457790     0.3033390
  H       -5.4853170     0.0231860     0.5310900
  H       -4.0942820    -0.3029910     1.5815520
  H        3.6028580    -1.6773980    -0.0043180
units angstrom
no_reorient  #important for SAPT in psi4, default
symmetry c1  #important for SAPT in psi4, default
}

set PROPERTIES_ORIGIN ["COM"]
properties('MP2/aug-cc-pvtz', properties = ['dipole'])
--------------------------------------------------------------------------

    Molecular point group: c1
  Charge       = 0
  Multiplicity = 1
  Basis Set: AUG-CC-PVTZ
    Blend: AUG-CC-PVTZ
  Basis Set: (AUG-CC-PVTZ AUX)
    Blend: AUG-CC-PVTZ-JKFIT

    Orbital Energies [Eh]
    ---------------------

    Doubly Occupied:

       1A    -20.558609     2A    -11.286368     3A    -11.225710
       4A    -11.223494     5A    -11.223354     6A    -11.222757
       7A    -11.221590     8A    -11.220464     9A    -11.213226
      10A     -1.360503    11A     -1.097838    12A     -1.061380
      13A     -1.016074    14A     -0.962307    15A     -0.876671
      16A     -0.828845    17A     -0.752593    18A     -0.747931
      19A     -0.695177    20A     -0.637465    21A     -0.627461
      22A     -0.616738    23A     -0.590042    24A     -0.582207
      25A     -0.546857    26A     -0.543958    27A     -0.528913
      28A     -0.518181    29A     -0.499494    30A     -0.491262
      31A     -0.481861    32A     -0.466651    33A     -0.452852
      34A     -0.418015    35A     -0.297201

  @DF-RHF Final Energy:  -386.06166598727759

   => Energetics <=

    Nuclear Repulsion Energy =            418.0461398581820163
    One-Electron Energy =               -1352.0275086092344736
    Two-Electron Energy =                 547.9197027637749216
    Total Energy =                       -386.0616659872775926
  Basis Set: (AUG-CC-PVTZ AUX)
    Blend: AUG-CC-PVTZ-RI
    Molecular point group: c1

    Geometry (in Angstrom), charge = 0, multiplicity = 1:

       Center              X                  Y                   Z               Mass
    ------------   -----------------  -----------------  -----------------  -----------------
         O            2.692695703577    -1.332349187168    -0.025063946433    15.994914619570
         C            2.750285703577     0.027583812832     0.408348053567    12.000000000000
         C            1.360112703577     0.578618812832     0.396756053567    12.000000000000
         C           -3.549771296423     0.364253812832    -0.408791946433    12.000000000000
         C            3.670336703577     0.843129812832    -0.494487946433    12.000000000000
         C            0.269843703577    -0.100331187168     0.000708053567    12.000000000000
         C           -2.163752296423    -0.198336187168    -0.407681946433    12.000000000000
         C           -1.064095296423     0.471934812832    -0.016238946433    12.000000000000
         C           -4.465885196423    -0.404106387168     0.546624653567    12.000000000000
         H            3.135549703577     0.070938812832     1.441851053567     1.007825032230
         H            1.264950703577     1.614025812832     0.726675053567     1.007825032230
         H           -3.499923796423     1.430075912832    -0.157495746433     1.007825032230
         H           -3.971913296423     0.307164812832    -1.420634946433     1.007825032230
         H            3.305438703577     0.784894812832    -1.522351946433     1.007825032230
         H            3.698483703577     1.892069812832    -0.185722946433     1.007825032230
         H            4.694255703577     0.454850812832    -0.459446946433     1.007825032230
         H            0.383536703577    -1.132881187168    -0.321549946433     1.007825032230
         H           -2.057890296423    -1.236543187168    -0.729025946433     1.007825032230
         H           -1.165374296423     1.509681812832     0.307873053567     1.007825032230
         H           -4.526088296423    -1.443641187168     0.304706053567     1.007825032230
         H           -5.485885296423     0.025323812832     0.532457053567     1.007825032230
         H           -4.094850296423    -0.300853187168     1.582919053567     1.007825032230
         H            3.602289703577    -1.675260187168    -0.002950946433     1.007825032230

  Basis Set: AUG-CC-PVTZ
    Blend: AUG-CC-PVTZ
  Basis Set: (AUG-CC-PVTZ AUX)
    Blend: AUG-CC-PVTZ-JKFIT
	 Reference Energy          =    -386.0616659872775926 [Eh]
	 Singles Energy            =      -0.0000000000000000 [Eh]
	 Same-Spin Energy          =      -0.4003879878250808 [Eh]
	 Opposite-Spin Energy      =      -1.3783738920201727 [Eh]
	 Correlation Energy        =      -1.7787618798452534 [Eh]
	 Total Energy              =    -387.8404278671228553 [Eh]

	 ================> DF-SCS-MP2 Energies <==================
	-----------------------------------------------------------
	 SCS Same-Spin Scale       =       0.3333333333333333 [-]
	 SCS Opposite-Spin Scale   =       1.2000000000000000 [-]
	 SCS Same-Spin Energy      =      -0.1334626626083603 [Eh]
	 SCS Opposite-Spin Energy  =      -1.6540486704242072 [Eh]
	 SCS Correlation Energy    =      -1.7875113330325676 [Eh]
	 SCS Total Energy          =    -387.8491773203101616 [Eh]
	-----------------------------------------------------------

  Dipole Moment: [D]
     X:     1.1948      Y:     0.7162      Z:     0.3004     Total:     1.4250

*** Psi4 exiting successfully. Buy a developer a beer!
