                               Psi4 1.3.2 release

  ==> Input File <==

--------------------------------------------------------------------------
#psi4
#
memory 32 gb

molecule  {
0 1
  O        2.6932640    -1.3344870    -0.0264310
  C        2.7508540     0.0254460     0.4069810
  C        1.3606810     0.5764810     0.3953890
  C       -3.5492030     0.3621160    -0.4101590
  C        3.6709050     0.8409920    -0.4958550
  C        0.2704120    -0.1024690    -0.0006590
  C       -2.1631840    -0.2004740    -0.4090490
  C       -1.0635270     0.4697970    -0.0176060
  C       -4.4702810    -0.3835230     0.5583970
  H        3.1361180     0.0688010     1.4404840
  H        1.2655190     1.6118880     0.7253080
  H       -3.5113520     1.4248880    -0.1442750
  H       -3.9713450     0.3050270    -1.4220020
  H        3.3060070     0.7827570    -1.5237190
  H        3.6990520     1.8899320    -0.1870900
  H        4.6948240     0.4527130    -0.4608140
  H        0.3841050    -1.1350190    -0.3229170
  H       -2.0573220    -1.2386810    -0.7303930
  H       -1.1648060     1.5075440     0.3065060
  H       -4.5255200    -1.4457790     0.3033390
  H       -5.4853170     0.0231860     0.5310900
  H       -4.0942820    -0.3029910     1.5815520
  H        3.6964052    -1.7126647    -0.0020438
units angstrom
no_reorient  #important for SAPT in psi4, default
symmetry c1  #important for SAPT in psi4, default
}

set PROPERTIES_ORIGIN ["COM"]
properties('MP2/aug-cc-pvtz', properties = ['dipole'])
--------------------------------------------------------------------------

    Molecular point group: c1
  Charge       = 0
  Multiplicity = 1
  Basis Set: AUG-CC-PVTZ
    Blend: AUG-CC-PVTZ
  Basis Set: (AUG-CC-PVTZ AUX)
    Blend: AUG-CC-PVTZ-JKFIT

    Orbital Energies [Eh]
    ---------------------

    Doubly Occupied:

       1A    -20.567008     2A    -11.285556     3A    -11.225757
       4A    -11.223520     5A    -11.223127     6A    -11.222865
       7A    -11.221636     8A    -11.219911     9A    -11.212695
      10A     -1.342500    11A     -1.097046    12A     -1.059006
      13A     -1.014475    14A     -0.962175    15A     -0.874942
      16A     -0.826601    17A     -0.752007    18A     -0.742868
      19A     -0.684567    20A     -0.635572    21A     -0.627549
      22A     -0.611584    23A     -0.589162    24A     -0.580763
      25A     -0.544218    26A     -0.542582    27A     -0.526554
      28A     -0.518413    29A     -0.500274    30A     -0.489594
      31A     -0.478719    32A     -0.466969    33A     -0.450926
      34A     -0.417965    35A     -0.297290

  @DF-RHF Final Energy:  -386.04909090867125

   => Energetics <=

    Nuclear Repulsion Energy =            417.4161898311746199
    One-Electron Energy =               -1350.8577671659531916
    Two-Electron Energy =                 547.3924864261073253
    Total Energy =                       -386.0490909086712463
  Basis Set: (AUG-CC-PVTZ AUX)
    Blend: AUG-CC-PVTZ-RI
    Molecular point group: c1

    Geometry (in Angstrom), charge = 0, multiplicity = 1:

       Center              X                  Y                   Z               Mass
    ------------   -----------------  -----------------  -----------------  -----------------
         O            2.692516331365    -1.334205091078    -0.026449042081    15.994914619570
         C            2.750106331365     0.025727908922     0.406962957919    12.000000000000
         C            1.359933331365     0.576762908922     0.395370957919    12.000000000000
         C           -3.549950668635     0.362397908922    -0.410177042081    12.000000000000
         C            3.670157331365     0.841273908922    -0.495873042081    12.000000000000
         C            0.269664331365    -0.102187091078    -0.000677042081    12.000000000000
         C           -2.163931668635    -0.200192091078    -0.409067042081    12.000000000000
         C           -1.064274668635     0.470078908922    -0.017624042081    12.000000000000
         C           -4.471028668635    -0.383241091078     0.558378957919    12.000000000000
         H            3.135370331365     0.069082908922     1.440465957919     1.007825032230
         H            1.264771331365     1.612169908922     0.725289957919     1.007825032230
         H           -3.512099668635     1.425169908922    -0.144293042081     1.007825032230
         H           -3.972092668635     0.305308908922    -1.422020042081     1.007825032230
         H            3.305259331365     0.783038908922    -1.523737042081     1.007825032230
         H            3.698304331365     1.890213908922    -0.187108042081     1.007825032230
         H            4.694076331365     0.452994908922    -0.460832042081     1.007825032230
         H            0.383357331365    -1.134737091078    -0.322935042081     1.007825032230
         H           -2.058069668635    -1.238399091078    -0.730411042081     1.007825032230
         H           -1.165553668635     1.507825908922     0.306487957919     1.007825032230
         H           -4.526267668635    -1.445497091078     0.303320957919     1.007825032230
         H           -5.486064668635     0.023467908922     0.531071957919     1.007825032230
         H           -4.095029668635    -0.302709091078     1.581533957919     1.007825032230
         H            3.695657531365    -1.712382791078    -0.002061842081     1.007825032230

  Basis Set: AUG-CC-PVTZ
    Blend: AUG-CC-PVTZ
  Basis Set: (AUG-CC-PVTZ AUX)
    Blend: AUG-CC-PVTZ-JKFIT
	 Reference Energy          =    -386.0490909086712463 [Eh]
	 Singles Energy            =      -0.0000000000000000 [Eh]
	 Same-Spin Energy          =      -0.4015058302516549 [Eh]
	 Opposite-Spin Energy      =      -1.3816139150525155 [Eh]
	 Correlation Energy        =      -1.7831197453041705 [Eh]
	 Total Energy              =    -387.8322106539754373 [Eh]

	 ================> DF-SCS-MP2 Energies <==================
	-----------------------------------------------------------
	 SCS Same-Spin Scale       =       0.3333333333333333 [-]
	 SCS Opposite-Spin Scale   =       1.2000000000000000 [-]
	 SCS Same-Spin Energy      =      -0.1338352767505516 [Eh]
	 SCS Opposite-Spin Energy  =      -1.6579366980630186 [Eh]
	 SCS Correlation Energy    =      -1.7917719748135701 [Eh]
	 SCS Total Energy          =    -387.8408628834848173 [Eh]
	-----------------------------------------------------------

  Dipole Moment: [D]
     X:     1.2561      Y:     0.6883      Z:     0.3095     Total:     1.4654

*** Psi4 exiting successfully. Buy a developer a beer!
