                               Psi4 1.3.2 release

  ==> Input File <==

--------------------------------------------------------------------------
#psi4
#
memory 32 gb

molecule  {
0 1
  O        2.6932640    -1.3344870    -0.0264310
  C        2.7679766     0.0714873     0.4246353
  C        1.3606810     0.5764810     0.3953890
  C       -3.5492030     0.3621160    -0.4101590
  C        3.6709050     0.8409920    -0.4958550
  C        0.2704120    -0.1024690    -0.0006590
  C       -2.1631840    -0.2004740    -0.4090490
  C       -1.0635270     0.4697970    -0.0176060
  C       -4.4702810    -0.3835230     0.5583970
  H        3.1361180     0.0688010     1.4404840
  H        1.3031704     1.6128684     0.7308940
  H       -3.5113520     1.4248880    -0.1442750
  H       -3.9713450     0.3050270    -1.4220020
  H        3.3060070     0.7827570    -1.5237190
  H        3.6990520     1.8899320    -0.1870900
  H        4.6948240     0.4527130    -0.4608140
  H        0.3841050    -1.1350190    -0.3229170
  H       -2.0573220    -1.2386810    -0.7303930
  H       -1.1648060     1.5075440     0.3065060
  H       -4.5255200    -1.4457790     0.3033390
  H       -5.4853170     0.0231860     0.5310900
  H       -4.0942820    -0.3029910     1.5815520
  H        3.6028580    -1.6773980    -0.0043180
units angstrom
no_reorient  #important for SAPT in psi4, default
symmetry c1  #important for SAPT in psi4, default
}

set PROPERTIES_ORIGIN ["COM"]
properties('MP2/aug-cc-pvtz', properties = ['dipole'])
--------------------------------------------------------------------------

    Molecular point group: c1
  Charge       = 0
  Multiplicity = 1
  Basis Set: AUG-CC-PVTZ
    Blend: AUG-CC-PVTZ
  Basis Set: (AUG-CC-PVTZ AUX)
    Blend: AUG-CC-PVTZ-JKFIT

    Orbital Energies [Eh]
    ---------------------

    Doubly Occupied:

       1A    -20.552258     2A    -11.285576     3A    -11.226595
       4A    -11.225194     5A    -11.223704     6A    -11.223504
       7A    -11.223055     8A    -11.221613     9A    -11.213064
      10A     -1.341184    11A     -1.098320    12A     -1.063528
      13A     -1.020251    14A     -0.963921    15A     -0.877671
      16A     -0.829359    17A     -0.753203    18A     -0.745691
      19A     -0.690551    20A     -0.634093    21A     -0.629517
      22A     -0.612936    23A     -0.589492    24A     -0.580908
      25A     -0.548151    26A     -0.546342    27A     -0.522602
      28A     -0.518850    29A     -0.497778    30A     -0.491796
      31A     -0.479576    32A     -0.468682    33A     -0.454923
      34A     -0.420767    35A     -0.298846

  @DF-RHF Final Energy:  -386.05871504071507

   => Energetics <=

    Nuclear Repulsion Energy =            417.5350047848704094
    One-Electron Energy =               -1351.0404389758548405
    Two-Electron Energy =                 547.4467191502693595
    Total Energy =                       -386.0587150407151285
  Basis Set: (AUG-CC-PVTZ AUX)
    Blend: AUG-CC-PVTZ-RI
    Molecular point group: c1

    Geometry (in Angstrom), charge = 0, multiplicity = 1:

       Center              X                  Y                   Z               Mass
    ------------   -----------------  -----------------  -----------------  -----------------
         O            2.691333676861    -1.338876030639    -0.028155479001    15.994914619570
         C            2.766046276861     0.067098269361     0.422910820999    12.000000000000
         C            1.358750676861     0.572091969361     0.393664520999    12.000000000000
         C           -3.551133323139     0.357726969361    -0.411883479001    12.000000000000
         C            3.668974676861     0.836602969361    -0.497579479001    12.000000000000
         C            0.268481676861    -0.106858030639    -0.002383479001    12.000000000000
         C           -2.165114323139    -0.204863030639    -0.410773479001    12.000000000000
         C           -1.065457323139     0.465407969361    -0.019330479001    12.000000000000
         C           -4.472211323139    -0.387912030639     0.556672520999    12.000000000000
         H            3.134187676861     0.064411969361     1.438759520999     1.007825032230
         H            1.301240076861     1.608479369361     0.729169520999     1.007825032230
         H           -3.513282323139     1.420498969361    -0.145999479001     1.007825032230
         H           -3.973275323139     0.300637969361    -1.423726479001     1.007825032230
         H            3.304076676861     0.778367969361    -1.525443479001     1.007825032230
         H            3.697121676861     1.885542969361    -0.188814479001     1.007825032230
         H            4.692893676861     0.448323969361    -0.462538479001     1.007825032230
         H            0.382174676861    -1.139408030639    -0.324641479001     1.007825032230
         H           -2.059252323139    -1.243070030639    -0.732117479001     1.007825032230
         H           -1.166736323139     1.503154969361     0.304781520999     1.007825032230
         H           -4.527450323139    -1.450168030639     0.301614520999     1.007825032230
         H           -5.487247323139     0.018796969361     0.529365520999     1.007825032230
         H           -4.096212323139    -0.307380030639     1.579827520999     1.007825032230
         H            3.600927676861    -1.681787030639    -0.006042479001     1.007825032230

  Basis Set: AUG-CC-PVTZ
    Blend: AUG-CC-PVTZ
  Basis Set: (AUG-CC-PVTZ AUX)
    Blend: AUG-CC-PVTZ-JKFIT
	 Reference Energy          =    -386.0587150407150716 [Eh]
	 Singles Energy            =      -0.0000000000000000 [Eh]
	 Same-Spin Energy          =      -0.4005523832424996 [Eh]
	 Opposite-Spin Energy      =      -1.3794263979247072 [Eh]
	 Correlation Energy        =      -1.7799787811672068 [Eh]
	 Total Energy              =    -387.8386938218822593 [Eh]

	 ================> DF-SCS-MP2 Energies <==================
	-----------------------------------------------------------
	 SCS Same-Spin Scale       =       0.3333333333333333 [-]
	 SCS Opposite-Spin Scale   =       1.2000000000000000 [-]
	 SCS Same-Spin Energy      =      -0.1335174610808332 [Eh]
	 SCS Opposite-Spin Energy  =      -1.6553116775096486 [Eh]
	 SCS Correlation Energy    =      -1.7888291385904818 [Eh]
	 SCS Total Energy          =    -387.8475441793055438 [Eh]
	-----------------------------------------------------------

  Dipole Moment: [D]
     X:     1.1876      Y:     0.8869      Z:     0.3342     Total:     1.5194

*** Psi4 exiting successfully. Buy a developer a beer!
