                               Psi4 1.3.2 release

  ==> Input File <==

--------------------------------------------------------------------------
#psi4
#
memory 32 gb

molecule  {
0 1
  O        2.6932640    -1.3344870    -0.0264310
  C        2.7508540     0.0254460     0.4069810
  C        1.3606810     0.5764810     0.3953890
  C       -3.5492030     0.3621160    -0.4101590
  C        3.6709050     0.8409920    -0.4958550
  C        0.1081776    -0.2034983    -0.0595918
  C       -2.1631840    -0.2004740    -0.4090490
  C       -1.0635270     0.4697970    -0.0176060
  C       -4.4702810    -0.3835230     0.5583970
  H        3.1361180     0.0688010     1.4404840
  H        1.2655190     1.6118880     0.7253080
  H       -3.5113520     1.4248880    -0.1442750
  H       -3.9713450     0.3050270    -1.4220020
  H        3.3060070     0.7827570    -1.5237190
  H        3.6990520     1.8899320    -0.1870900
  H        4.6948240     0.4527130    -0.4608140
  H        0.3841050    -1.1350190    -0.3229170
  H       -2.0573220    -1.2386810    -0.7303930
  H       -1.1648060     1.5075440     0.3065060
  H       -4.5255200    -1.4457790     0.3033390
  H       -5.4853170     0.0231860     0.5310900
  H       -4.0942820    -0.3029910     1.5815520
  H        3.6028580    -1.6773980    -0.0043180
units angstrom
no_reorient  #important for SAPT in psi4, default
symmetry c1  #important for SAPT in psi4, default
}

set PROPERTIES_ORIGIN ["COM"]
properties('MP2/aug-cc-pvtz', properties = ['dipole'])
--------------------------------------------------------------------------

    Molecular point group: c1
  Charge       = 0
  Multiplicity = 1
  Basis Set: AUG-CC-PVTZ
    Blend: AUG-CC-PVTZ
  Basis Set: (AUG-CC-PVTZ AUX)
    Blend: AUG-CC-PVTZ-JKFIT

    Orbital Energies [Eh]
    ---------------------

    Doubly Occupied:

       1A    -20.558736     2A    -11.286783     3A    -11.242704
       4A    -11.236446     5A    -11.225519     6A    -11.223014
       7A    -11.219831     8A    -11.219765     9A    -11.213375
      10A     -1.360119    11A     -1.107655    12A     -1.050175
      13A     -1.024249    14A     -0.944990    15A     -0.883491
      16A     -0.822513    17A     -0.763720    18A     -0.751737
      19A     -0.697117    20A     -0.647222    21A     -0.624821
      22A     -0.616277    23A     -0.593376    24A     -0.582696
      25A     -0.545514    26A     -0.541943    27A     -0.526181
      28A     -0.518142    29A     -0.512292    30A     -0.492128
      31A     -0.480504    32A     -0.460154    33A     -0.450615
      34A     -0.424095    35A     -0.261291

  @DF-RHF Final Energy:  -386.00237358119978

   => Energetics <=

    Nuclear Repulsion Energy =            417.1088699595678690
    One-Electron Energy =               -1350.0041025877460470
    Two-Electron Energy =                 546.8928590469784012
    Total Energy =                       -386.0023735811997767
  Basis Set: (AUG-CC-PVTZ AUX)
    Blend: AUG-CC-PVTZ-RI
    Molecular point group: c1

    Geometry (in Angstrom), charge = 0, multiplicity = 1:

       Center              X                  Y                   Z               Mass
    ------------   -----------------  -----------------  -----------------  -----------------
         O            2.708702054913    -1.324873074672    -0.020822868612    15.994914619570
         C            2.766292054913     0.035059925328     0.412589131388    12.000000000000
         C            1.376119054913     0.586094925328     0.400997131388    12.000000000000
         C           -3.533764945087     0.371729925328    -0.404550868612    12.000000000000
         C            3.686343054913     0.850605925328    -0.490246868612    12.000000000000
         C            0.123615654913    -0.193884374672    -0.053983668612    12.000000000000
         C           -2.147745945087    -0.190860074672    -0.403440868612    12.000000000000
         C           -1.048088945087     0.479410925328    -0.011997868612    12.000000000000
         C           -4.454842945087    -0.373909074672     0.564005131388    12.000000000000
         H            3.151556054913     0.078414925328     1.446092131388     1.007825032230
         H            1.280957054913     1.621501925328     0.730916131388     1.007825032230
         H           -3.495913945087     1.434501925328    -0.138666868612     1.007825032230
         H           -3.955906945087     0.314640925328    -1.416393868612     1.007825032230
         H            3.321445054913     0.792370925328    -1.518110868612     1.007825032230
         H            3.714490054913     1.899545925328    -0.181481868612     1.007825032230
         H            4.710262054913     0.462326925328    -0.455205868612     1.007825032230
         H            0.399543054913    -1.125405074672    -0.317308868612     1.007825032230
         H           -2.041883945087    -1.229067074672    -0.724784868612     1.007825032230
         H           -1.149367945087     1.517157925328     0.312114131388     1.007825032230
         H           -4.510081945087    -1.436165074672     0.308947131388     1.007825032230
         H           -5.469878945087     0.032799925328     0.536698131388     1.007825032230
         H           -4.078843945087    -0.293377074672     1.587160131388     1.007825032230
         H            3.618296054913    -1.667784074672     0.001290131388     1.007825032230

  Basis Set: AUG-CC-PVTZ
    Blend: AUG-CC-PVTZ
  Basis Set: (AUG-CC-PVTZ AUX)
    Blend: AUG-CC-PVTZ-JKFIT
	 Reference Energy          =    -386.0023735811997767 [Eh]
	 Singles Energy            =      -0.0000000000000000 [Eh]
	 Same-Spin Energy          =      -0.4057258928858832 [Eh]
	 Opposite-Spin Energy      =      -1.3880864390112784 [Eh]
	 Correlation Energy        =      -1.7938123318971617 [Eh]
	 Total Energy              =    -387.7961859130969628 [Eh]

	 ================> DF-SCS-MP2 Energies <==================
	-----------------------------------------------------------
	 SCS Same-Spin Scale       =       0.3333333333333333 [-]
	 SCS Opposite-Spin Scale   =       1.2000000000000000 [-]
	 SCS Same-Spin Energy      =      -0.1352419642952944 [Eh]
	 SCS Opposite-Spin Energy  =      -1.6657037268135340 [Eh]
	 SCS Correlation Energy    =      -1.8009456911088284 [Eh]
	 SCS Total Energy          =    -387.8033192723086131 [Eh]
	-----------------------------------------------------------

  Dipole Moment: [D]
     X:     1.0984      Y:     0.7306      Z:     0.2928     Total:     1.3513

*** Psi4 exiting successfully. Buy a developer a beer!
