                               Psi4 1.4a3.dev225

  ==> Input File <==

--------------------------------------------------------------------------
#psi4
#
memory 32 gb

molecule  {
0 1
  O       -2.7161510     1.3794200    -0.1343610
  C       -2.7832390     0.0721360     0.4401970
  C       -1.3979030    -0.4954620     0.4743180
  C        3.5083460    -0.4405980    -0.4123350
  C       -3.7239960    -0.8239440    -0.3625680
  C       -0.3030690     0.1219220    -0.0067100
  C        2.1282810     0.1394430    -0.4544070
  C        1.0245920    -0.4684390     0.0236420
  C        4.4606410     0.4027870     0.4416180
  H       -3.1581590     0.1412460     1.4762970
  H       -1.3112260    -1.4900120     0.9147240
  H        3.4619600    -1.4629760    -0.0187660
  H        3.9104550    -0.5133060    -1.4317100
  H       -3.3684670    -0.8811940    -1.3941910
  H       -3.7626400    -1.8335820     0.0574350
  H       -4.7426360    -0.4191700    -0.3608330
  H       -0.4078810     1.1149080    -0.4388390
  H        2.0329060     1.1188034    -0.8803825
  H        1.1170930    -1.4649260     0.4609700
  H        4.5263310     1.4251690     0.0574090
  H        5.4690900    -0.0219830     0.4454750
  H        4.1044230     0.4539160     1.4740500
  H       -3.6221830     1.7324190    -0.1413340
units angstrom
no_reorient  #important for SAPT in psi4, default
symmetry c1  #important for SAPT in psi4, default
}

set PROPERTIES_ORIGIN ["COM"]
properties('MP2/aug-cc-pvtz', properties = ['dipole'])
--------------------------------------------------------------------------

    Molecular point group: c1
  Charge       = 0
  Multiplicity = 1
  Basis Set: AUG-CC-PVTZ
    Blend: AUG-CC-PVTZ
  Basis Set: (AUG-CC-PVTZ AUX)
    Blend: AUG-CC-PVTZ-JKFIT

    Orbital Energies [Eh]
    ---------------------

    Doubly Occupied:

       1A    -20.558819     2A    -11.287027     3A    -11.224764
       4A    -11.224119     5A    -11.223538     6A    -11.222950
       7A    -11.222411     8A    -11.220938     9A    -11.213113
      10A     -1.360141    11A     -1.097338    12A     -1.060755
      13A     -1.015571    14A     -0.962282    15A     -0.876529
      16A     -0.828362    17A     -0.754868    18A     -0.747938
      19A     -0.695134    20A     -0.637186    21A     -0.627519
      22A     -0.616538    23A     -0.589834    24A     -0.582884
      25A     -0.546702    26A     -0.544173    27A     -0.527956
      28A     -0.518171    29A     -0.500704    30A     -0.492452
      31A     -0.479871    32A     -0.467967    33A     -0.452838
      34A     -0.417820    35A     -0.297242

  @DF-RHF Final Energy:  -386.06246913178165

   => Energetics <=

    Nuclear Repulsion Energy =            417.5921138191288833
    One-Electron Energy =               -1351.1162564807045783
    Two-Electron Energy =                 547.4616735297940977
    Total Energy =                       -386.0624691317816541
  Basis Set: (AUG-CC-PVTZ AUX)
    Blend: AUG-CC-PVTZ-RI
    Molecular point group: c1

    Geometry (in Angstrom), charge = 0, multiplicity = 1:

       Center              X                  Y                   Z               Mass
    ------------   -----------------  -----------------  -----------------  -----------------
         O           -2.682857553506     1.363237229824    -0.132759119105    15.994914619570
         C           -2.749945553506     0.055953229824     0.441798880895    12.000000000000
         C           -1.364609553506    -0.511644770176     0.475919880895    12.000000000000
         C            3.541639446494    -0.456780770176    -0.410733119105    12.000000000000
         C           -3.690702553506    -0.840126770176    -0.360966119105    12.000000000000
         C           -0.269775553506     0.105739229824    -0.005108119105    12.000000000000
         C            2.161574446494     0.123260229824    -0.452805119105    12.000000000000
         C            1.057885446494    -0.484621770176     0.025243880895    12.000000000000
         C            4.493934446494     0.386604229824     0.443219880895    12.000000000000
         H           -3.124865553506     0.125063229824     1.477898880895     1.007825032230
         H           -1.277932553506    -1.506194770176     0.916325880895     1.007825032230
         H            3.495253446494    -1.479158770176    -0.017164119105     1.007825032230
         H            3.943748446494    -0.529488770176    -1.430108119105     1.007825032230
         H           -3.335173553506    -0.897376770176    -1.392589119105     1.007825032230
         H           -3.729346553506    -1.849764770176     0.059036880895     1.007825032230
         H           -4.709342553506    -0.435352770176    -0.359231119105     1.007825032230
         H           -0.374587553506     1.098725229824    -0.437237119105     1.007825032230
         H            2.066199446494     1.102620629824    -0.878780619105     1.007825032230
         H            1.150386446494    -1.481108770176     0.462571880895     1.007825032230
         H            4.559624446494     1.408986229824     0.059010880895     1.007825032230
         H            5.502383446494    -0.038165770176     0.447076880895     1.007825032230
         H            4.137716446494     0.437733229824     1.475651880895     1.007825032230
         H           -3.588889553506     1.716236229824    -0.139732119105     1.007825032230

  Basis Set: AUG-CC-PVTZ
    Blend: AUG-CC-PVTZ
  Basis Set: (AUG-CC-PVTZ AUX)
    Blend: AUG-CC-PVTZ-JKFIT
	 Reference Energy          =    -386.0624691317816541 [Eh]
	 Singles Energy            =      -0.0000000000000000 [Eh]
	 Same-Spin Energy          =      -0.4002327058157156 [Eh]
	 Opposite-Spin Energy      =      -1.3782750228449583 [Eh]
	 Correlation Energy        =      -1.7785077286606739 [Eh]
	 Total Energy              =    -387.8409768604423107 [Eh]

	 ================> DF-SCS-MP2 Energies <==================
	-----------------------------------------------------------
	 SCS Same-Spin Scale       =       0.3333333333333333 [-]
	 SCS Opposite-Spin Scale   =       1.2000000000000000 [-]
	 SCS Same-Spin Energy      =      -0.1334109019385719 [Eh]
	 SCS Opposite-Spin Energy  =      -1.6539300274139499 [Eh]
	 SCS Correlation Energy    =      -1.7873409293525218 [Eh]
	 SCS Total Energy          =    -387.8498100611341783 [Eh]
	-----------------------------------------------------------

  Dipole Moment: [D]
     X:    -1.2120      Y:    -0.6772      Z:     0.3874     Total:     1.4414

*** Psi4 exiting successfully. Buy a developer a beer!
