                               Psi4 1.4a3.dev225

  ==> Input File <==

--------------------------------------------------------------------------
#psi4
#
memory 32 gb

molecule  {
0 1
  O       -2.7161510     1.3794200    -0.1343610
  C       -2.7832390     0.0721360     0.4401970
  C       -1.3979030    -0.4954620     0.4743180
  C        3.5083460    -0.4405980    -0.4123350
  C       -3.7239960    -0.8239440    -0.3625680
  C       -0.3030690     0.1219220    -0.0067100
  C        2.1282810     0.1394430    -0.4544070
  C        1.0245920    -0.4684390     0.0236420
  C        4.4606410     0.4027870     0.4416180
  H       -3.1581590     0.1412460     1.4762970
  H       -1.3112260    -1.4900120     0.9147240
  H        3.4619600    -1.4629760    -0.0187660
  H        3.9104550    -0.5133060    -1.4317100
  H       -3.3684670    -0.8811940    -1.3941910
  H       -3.7626400    -1.8335820     0.0574350
  H       -4.7426360    -0.4191700    -0.3608330
  H       -0.4078810     1.1149080    -0.4388390
  H        2.0355745     1.0914021    -0.8684642
  H        1.1170930    -1.4649260     0.4609700
  H        4.5263310     1.4251690     0.0574090
  H        5.4690900    -0.0219830     0.4454750
  H        4.1044230     0.4539160     1.4740500
  H       -3.6221830     1.7324190    -0.1413340
units angstrom
no_reorient  #important for SAPT in psi4, default
symmetry c1  #important for SAPT in psi4, default
}

set PROPERTIES_ORIGIN ["COM"]
properties('MP2/aug-cc-pvtz', properties = ['dipole'])
--------------------------------------------------------------------------

    Molecular point group: c1
  Charge       = 0
  Multiplicity = 1
  Basis Set: AUG-CC-PVTZ
    Blend: AUG-CC-PVTZ
  Basis Set: (AUG-CC-PVTZ AUX)
    Blend: AUG-CC-PVTZ-JKFIT

    Orbital Energies [Eh]
    ---------------------

    Doubly Occupied:

       1A    -20.558829     2A    -11.287025     3A    -11.224305
       4A    -11.223672     5A    -11.223129     6A    -11.222443
       7A    -11.220938     8A    -11.219905     9A    -11.213068
      10A     -1.360150    11A     -1.097791    12A     -1.060976
      13A     -1.015510    14A     -0.962662    15A     -0.876794
      16A     -0.828287    17A     -0.758959    18A     -0.747976
      19A     -0.695567    20A     -0.637698    21A     -0.627751
      22A     -0.616594    23A     -0.589991    24A     -0.583040
      25A     -0.547423    26A     -0.544787    27A     -0.528648
      28A     -0.518004    29A     -0.500631    30A     -0.492485
      31A     -0.480663    32A     -0.468105    33A     -0.452837
      34A     -0.417726    35A     -0.297123

  @DF-RHF Final Energy:  -386.06156433687352

   => Energetics <=

    Nuclear Repulsion Energy =            417.7323584787751543
    One-Electron Energy =               -1351.3848663999610835
    Two-Electron Energy =                 547.5909435843124129
    Total Energy =                       -386.0615643368735164
  Basis Set: (AUG-CC-PVTZ AUX)
    Blend: AUG-CC-PVTZ-RI
    Molecular point group: c1

    Geometry (in Angstrom), charge = 0, multiplicity = 1:

       Center              X                  Y                   Z               Mass
    ------------   -----------------  -----------------  -----------------  -----------------
         O           -2.682878880119     1.363456220611    -0.132854369983    15.994914619570
         C           -2.749966880119     0.056172220611     0.441703630017    12.000000000000
         C           -1.364630880119    -0.511425779389     0.475824630017    12.000000000000
         C            3.541618119881    -0.456561779389    -0.410828369983    12.000000000000
         C           -3.690723880119    -0.839907779389    -0.361061369983    12.000000000000
         C           -0.269796880119     0.105958220611    -0.005203369983    12.000000000000
         C            2.161553119881     0.123479220611    -0.452900369983    12.000000000000
         C            1.057864119881    -0.484402779389     0.025148630017    12.000000000000
         C            4.493913119881     0.386823220611     0.443124630017    12.000000000000
         H           -3.124886880119     0.125282220611     1.477803630017     1.007825032230
         H           -1.277953880119    -1.505975779389     0.916230630017     1.007825032230
         H            3.495232119881    -1.478939779389    -0.017259369983     1.007825032230
         H            3.943727119881    -0.529269779389    -1.430203369983     1.007825032230
         H           -3.335194880119    -0.897157779389    -1.392684369983     1.007825032230
         H           -3.729367880119    -1.849545779389     0.058941630017     1.007825032230
         H           -4.709363880119    -0.435133779389    -0.359326369983     1.007825032230
         H           -0.374608880119     1.098944220611    -0.437332369983     1.007825032230
         H            2.068846619881     1.075438320611    -0.866957569983     1.007825032230
         H            1.150365119881    -1.480889779389     0.462476630017     1.007825032230
         H            4.559603119881     1.409205220611     0.058915630017     1.007825032230
         H            5.502362119881    -0.037946779389     0.446981630017     1.007825032230
         H            4.137695119881     0.437952220611     1.475556630017     1.007825032230
         H           -3.588910880119     1.716455220611    -0.139827369983     1.007825032230

  Basis Set: AUG-CC-PVTZ
    Blend: AUG-CC-PVTZ
  Basis Set: (AUG-CC-PVTZ AUX)
    Blend: AUG-CC-PVTZ-JKFIT
	 Reference Energy          =    -386.0615643368735164 [Eh]
	 Singles Energy            =      -0.0000000000000000 [Eh]
	 Same-Spin Energy          =      -0.4001817559720185 [Eh]
	 Opposite-Spin Energy      =      -1.3780970070737144 [Eh]
	 Correlation Energy        =      -1.7782787630457331 [Eh]
	 Total Energy              =    -387.8398430999192215 [Eh]

	 ================> DF-SCS-MP2 Energies <==================
	-----------------------------------------------------------
	 SCS Same-Spin Scale       =       0.3333333333333333 [-]
	 SCS Opposite-Spin Scale   =       1.2000000000000000 [-]
	 SCS Same-Spin Energy      =      -0.1333939186573395 [Eh]
	 SCS Opposite-Spin Energy  =      -1.6537164084884572 [Eh]
	 SCS Correlation Energy    =      -1.7871103271457967 [Eh]
	 SCS Total Energy          =    -387.8486746640193132 [Eh]
	-----------------------------------------------------------

  Dipole Moment: [D]
     X:    -1.2170      Y:    -0.6652      Z:     0.3825     Total:     1.4387

*** Psi4 exiting successfully. Buy a developer a beer!
