                               Psi4 1.3.2 release

  ==> Input File <==

--------------------------------------------------------------------------
#psi4
#
memory 32 gb

molecule  {
0 1
  O        2.6932640    -1.3344870    -0.0264310
  C        2.7508540     0.0254460     0.4069810
  C        1.5466020     0.5027859     0.3969393
  C       -3.5492030     0.3621160    -0.4101590
  C        3.6709050     0.8409920    -0.4958550
  C        0.2704120    -0.1024690    -0.0006590
  C       -2.1631840    -0.2004740    -0.4090490
  C       -1.0635270     0.4697970    -0.0176060
  C       -4.4702810    -0.3835230     0.5583970
  H        3.1361180     0.0688010     1.4404840
  H        1.2655190     1.6118880     0.7253080
  H       -3.5113520     1.4248880    -0.1442750
  H       -3.9713450     0.3050270    -1.4220020
  H        3.3060070     0.7827570    -1.5237190
  H        3.6990520     1.8899320    -0.1870900
  H        4.6948240     0.4527130    -0.4608140
  H        0.3841050    -1.1350190    -0.3229170
  H       -2.0573220    -1.2386810    -0.7303930
  H       -1.1648060     1.5075440     0.3065060
  H       -4.5255200    -1.4457790     0.3033390
  H       -5.4853170     0.0231860     0.5310900
  H       -4.0942820    -0.3029910     1.5815520
  H        3.6028580    -1.6773980    -0.0043180
units angstrom
no_reorient  #important for SAPT in psi4, default
symmetry c1  #important for SAPT in psi4, default
}

set PROPERTIES_ORIGIN ["COM"]
properties('MP2/aug-cc-pvtz', properties = ['dipole'])
--------------------------------------------------------------------------

    Molecular point group: c1
  Charge       = 0
  Multiplicity = 1
  Basis Set: AUG-CC-PVTZ
    Blend: AUG-CC-PVTZ
  Basis Set: (AUG-CC-PVTZ AUX)
    Blend: AUG-CC-PVTZ-JKFIT

    Orbital Energies [Eh]
    ---------------------

    Doubly Occupied:

       1A    -20.560492     2A    -11.276479     3A    -11.238355
       4A    -11.236318     5A    -11.229329     6A    -11.227581
       7A    -11.224740     8A    -11.224432     9A    -11.213704
      10A     -1.368007    11A     -1.102514    12A     -1.081882
      13A     -1.017653    14A     -0.956825    15A     -0.894403
      16A     -0.829785    17A     -0.753900    18A     -0.736655
      19A     -0.707038    20A     -0.641853    21A     -0.634303
      22A     -0.620486    23A     -0.592426    24A     -0.575898
      25A     -0.554099    26A     -0.541176    27A     -0.531463
      28A     -0.518243    29A     -0.511964    30A     -0.483351
      31A     -0.477630    32A     -0.464072    33A     -0.459870
      34A     -0.407370    35A     -0.277481

  @DF-RHF Final Energy:  -385.99551093781162

   => Energetics <=

    Nuclear Repulsion Energy =            419.0026097621753252
    One-Electron Energy =               -1353.6526913779125607
    Two-Electron Energy =                 548.6545706779256761
    Total Energy =                       -385.9955109378115594
  Basis Set: (AUG-CC-PVTZ AUX)
    Blend: AUG-CC-PVTZ-RI
    Molecular point group: c1

    Geometry (in Angstrom), charge = 0, multiplicity = 1:

       Center              X                  Y                   Z               Mass
    ------------   -----------------  -----------------  -----------------  -----------------
         O            2.675571865608    -1.327474175274    -0.026578392015    15.994914619570
         C            2.733161865608     0.032458824726     0.406833607985    12.000000000000
         C            1.528909865608     0.509798724726     0.396791907985    12.000000000000
         C           -3.566895134392     0.369128824726    -0.410306392015    12.000000000000
         C            3.653212865608     0.848004824726    -0.496002392015    12.000000000000
         C            0.252719865608    -0.095456175274    -0.000806392015    12.000000000000
         C           -2.180876134392    -0.193461175274    -0.409196392015    12.000000000000
         C           -1.081219134392     0.476809824726    -0.017753392015    12.000000000000
         C           -4.487973134392    -0.376510175274     0.558249607985    12.000000000000
         H            3.118425865608     0.075813824726     1.440336607985     1.007825032230
         H            1.247826865608     1.618900824726     0.725160607985     1.007825032230
         H           -3.529044134392     1.431900824726    -0.144422392015     1.007825032230
         H           -3.989037134392     0.312039824726    -1.422149392015     1.007825032230
         H            3.288314865608     0.789769824726    -1.523866392015     1.007825032230
         H            3.681359865608     1.896944824726    -0.187237392015     1.007825032230
         H            4.677131865608     0.459725824726    -0.460961392015     1.007825032230
         H            0.366412865608    -1.128006175274    -0.323064392015     1.007825032230
         H           -2.075014134392    -1.231668175274    -0.730540392015     1.007825032230
         H           -1.182498134392     1.514556824726     0.306358607985     1.007825032230
         H           -4.543212134392    -1.438766175274     0.303191607985     1.007825032230
         H           -5.503009134392     0.030198824726     0.530942607985     1.007825032230
         H           -4.111974134392    -0.295978175274     1.581404607985     1.007825032230
         H            3.585165865608    -1.670385175274    -0.004465392015     1.007825032230

  Basis Set: AUG-CC-PVTZ
    Blend: AUG-CC-PVTZ
  Basis Set: (AUG-CC-PVTZ AUX)
    Blend: AUG-CC-PVTZ-JKFIT
	 Reference Energy          =    -385.9955109378116163 [Eh]
	 Singles Energy            =      -0.0000000000000000 [Eh]
	 Same-Spin Energy          =      -0.4060987953310961 [Eh]
	 Opposite-Spin Energy      =      -1.3870279489384627 [Eh]
	 Correlation Energy        =      -1.7931267442695589 [Eh]
	 Total Energy              =    -387.7886376820811734 [Eh]

	 ================> DF-SCS-MP2 Energies <==================
	-----------------------------------------------------------
	 SCS Same-Spin Scale       =       0.3333333333333333 [-]
	 SCS Opposite-Spin Scale   =       1.2000000000000000 [-]
	 SCS Same-Spin Energy      =      -0.1353662651103653 [Eh]
	 SCS Opposite-Spin Energy  =      -1.6644335387261553 [Eh]
	 SCS Correlation Energy    =      -1.7997998038365206 [Eh]
	 SCS Total Energy          =    -387.7953107416481089 [Eh]
	-----------------------------------------------------------

  Dipole Moment: [D]
     X:     1.2848      Y:     0.7318      Z:     0.3129     Total:     1.5113

*** Psi4 exiting successfully. Buy a developer a beer!
