                               Psi4 1.3.2 release

  ==> Input File <==

--------------------------------------------------------------------------
#psi4
#
memory 32 gb

molecule  {
0 1
  O        2.6932640    -1.3344870    -0.0264310
  C        2.7508540     0.0254460     0.4069810
  C        1.3606810     0.5764810     0.3953890
  C       -3.5492030     0.3621160    -0.4101590
  C        3.6709050     0.8409920    -0.4958550
  C        0.2704120    -0.1024690    -0.0006590
  C       -2.1596430    -0.1916163    -0.4179598
  C       -1.0635270     0.4697970    -0.0176060
  C       -4.4803487    -0.3754551     0.5549418
  H        3.1361180     0.0688010     1.4404840
  H        1.2655190     1.6118880     0.7253080
  H       -3.5113520     1.4248880    -0.1442750
  H       -3.9713450     0.3050270    -1.4220020
  H        3.3060070     0.7827570    -1.5237190
  H        3.6990520     1.8899320    -0.1870900
  H        4.6948240     0.4527130    -0.4608140
  H        0.3841050    -1.1350190    -0.3229170
  H       -2.0573220    -1.2386810    -0.7303930
  H       -1.1648060     1.5075440     0.3065060
  H       -4.5255200    -1.4457790     0.3033390
  H       -5.4853170     0.0231860     0.5310900
  H       -4.0942820    -0.3029910     1.5815520
  H        3.6028580    -1.6773980    -0.0043180
units angstrom
no_reorient  #important for SAPT in psi4, default
symmetry c1  #important for SAPT in psi4, default
}

set PROPERTIES_ORIGIN ["COM"]
properties('MP2/aug-cc-pvtz', properties = ['dipole'])
--------------------------------------------------------------------------

    Molecular point group: c1
  Charge       = 0
  Multiplicity = 1
  Basis Set: AUG-CC-PVTZ
    Blend: AUG-CC-PVTZ
  Basis Set: (AUG-CC-PVTZ AUX)
    Blend: AUG-CC-PVTZ-JKFIT

    Orbital Energies [Eh]
    ---------------------

    Doubly Occupied:

       1A    -20.558762     2A    -11.286580     3A    -11.225811
       4A    -11.223701     5A    -11.223164     6A    -11.222724
       7A    -11.221863     8A    -11.220632     9A    -11.213042
      10A     -1.360665    11A     -1.098234    12A     -1.061278
      13A     -1.016297    14A     -0.963144    15A     -0.876874
      16A     -0.828937    17A     -0.751308    18A     -0.748194
      19A     -0.695357    20A     -0.637313    21A     -0.627789
      22A     -0.616623    23A     -0.591031    24A     -0.582502
      25A     -0.546551    26A     -0.544114    27A     -0.527122
      28A     -0.519204    29A     -0.501027    30A     -0.491997
      31A     -0.477075    32A     -0.468431    33A     -0.453036
      34A     -0.418814    35A     -0.298298

  @DF-RHF Final Energy:  -386.06248563002345

   => Energetics <=

    Nuclear Repulsion Energy =            417.9708392757065099
    One-Electron Energy =               -1351.8716609871719356
    Two-Electron Energy =                 547.8383360814419802
    Total Energy =                       -386.0624856300233887
  Basis Set: (AUG-CC-PVTZ AUX)
    Blend: AUG-CC-PVTZ-RI
    Molecular point group: c1

    Geometry (in Angstrom), charge = 0, multiplicity = 1:

       Center              X                  Y                   Z               Mass
    ------------   -----------------  -----------------  -----------------  -----------------
         O            2.693885034763    -1.336097568580    -0.025254128042    15.994914619570
         C            2.751475034763     0.023835431420     0.408157871958    12.000000000000
         C            1.361302034763     0.574870431420     0.396565871958    12.000000000000
         C           -3.548581965237     0.360505431420    -0.408982128042    12.000000000000
         C            3.671526034763     0.839381431420    -0.494678128042    12.000000000000
         C            0.271033034763    -0.104079568580     0.000517871958    12.000000000000
         C           -2.159021965237    -0.193226868580    -0.416782928042    12.000000000000
         C           -1.062905965237     0.468186431420    -0.016429128042    12.000000000000
         C           -4.479727665237    -0.377065668580     0.556118671958    12.000000000000
         H            3.136739034763     0.067190431420     1.441660871958     1.007825032230
         H            1.266140034763     1.610277431420     0.726484871958     1.007825032230
         H           -3.510730965237     1.423277431420    -0.143098128042     1.007825032230
         H           -3.970723965237     0.303416431420    -1.420825128042     1.007825032230
         H            3.306628034763     0.781146431420    -1.522542128042     1.007825032230
         H            3.699673034763     1.888321431420    -0.185913128042     1.007825032230
         H            4.695445034763     0.451102431420    -0.459637128042     1.007825032230
         H            0.384726034763    -1.136629568580    -0.321740128042     1.007825032230
         H           -2.056700965237    -1.240291568580    -0.729216128042     1.007825032230
         H           -1.164184965237     1.505933431420     0.307682871958     1.007825032230
         H           -4.524898965237    -1.447389568580     0.304515871958     1.007825032230
         H           -5.484695965237     0.021575431420     0.532266871958     1.007825032230
         H           -4.093660965237    -0.304601568580     1.582728871958     1.007825032230
         H            3.603479034763    -1.679008568580    -0.003141128042     1.007825032230

  Basis Set: AUG-CC-PVTZ
    Blend: AUG-CC-PVTZ
  Basis Set: (AUG-CC-PVTZ AUX)
    Blend: AUG-CC-PVTZ-JKFIT
	 Reference Energy          =    -386.0624856300234455 [Eh]
	 Singles Energy            =      -0.0000000000000000 [Eh]
	 Same-Spin Energy          =      -0.4002925604733593 [Eh]
	 Opposite-Spin Energy      =      -1.3782072246399495 [Eh]
	 Correlation Energy        =      -1.7784997851133089 [Eh]
	 Total Energy              =    -387.8409854151367426 [Eh]

	 ================> DF-SCS-MP2 Energies <==================
	-----------------------------------------------------------
	 SCS Same-Spin Scale       =       0.3333333333333333 [-]
	 SCS Opposite-Spin Scale   =       1.2000000000000000 [-]
	 SCS Same-Spin Energy      =      -0.1334308534911198 [Eh]
	 SCS Opposite-Spin Energy  =      -1.6538486695679393 [Eh]
	 SCS Correlation Energy    =      -1.7872795230590590 [Eh]
	 SCS Total Energy          =    -387.8497651530825010 [Eh]
	-----------------------------------------------------------

  Dipole Moment: [D]
     X:     1.2085      Y:     0.7317      Z:     0.3229     Total:     1.4492

*** Psi4 exiting successfully. Buy a developer a beer!
