                               Psi4 1.3.2 release

  ==> Input File <==

--------------------------------------------------------------------------
#psi4
#
memory 32 gb

molecule  {
0 1
  O        2.6932640    -1.3344870    -0.0264310
  C        2.7508540     0.0254460     0.4069810
  C        1.3606810     0.5764810     0.3953890
  C       -3.5492030     0.3621160    -0.4101590
  C        3.6709050     0.8409920    -0.4958550
  C        0.2704120    -0.1024690    -0.0006590
  C       -2.1631840    -0.2004740    -0.4090490
  C       -1.0767866     0.4887544    -0.0135225
  C       -4.4702810    -0.3835230     0.5583970
  H        3.1361180     0.0688010     1.4404840
  H        1.2655190     1.6118880     0.7253080
  H       -3.5113520     1.4248880    -0.1442750
  H       -3.9713450     0.3050270    -1.4220020
  H        3.3060070     0.7827570    -1.5237190
  H        3.6990520     1.8899320    -0.1870900
  H        4.6948240     0.4527130    -0.4608140
  H        0.3841050    -1.1350190    -0.3229170
  H       -2.0760942    -1.2394295    -0.7335937
  H       -1.1648060     1.5075440     0.3065060
  H       -4.5255200    -1.4457790     0.3033390
  H       -5.4853170     0.0231860     0.5310900
  H       -4.0942820    -0.3029910     1.5815520
  H        3.6028580    -1.6773980    -0.0043180
units angstrom
no_reorient  #important for SAPT in psi4, default
symmetry c1  #important for SAPT in psi4, default
}

set PROPERTIES_ORIGIN ["COM"]
properties('MP2/aug-cc-pvtz', properties = ['dipole'])
--------------------------------------------------------------------------

    Molecular point group: c1
  Charge       = 0
  Multiplicity = 1
  Basis Set: AUG-CC-PVTZ
    Blend: AUG-CC-PVTZ
  Basis Set: (AUG-CC-PVTZ AUX)
    Blend: AUG-CC-PVTZ-JKFIT

    Orbital Energies [Eh]
    ---------------------

    Doubly Occupied:

       1A    -20.558505     2A    -11.286128     3A    -11.226124
       4A    -11.224089     5A    -11.223063     6A    -11.222222
       7A    -11.221525     8A    -11.220313     9A    -11.212544
      10A     -1.360380    11A     -1.096466    12A     -1.061061
      13A     -1.014733    14A     -0.962268    15A     -0.875287
      16A     -0.828150    17A     -0.754431    18A     -0.747391
      19A     -0.695134    20A     -0.637670    21A     -0.626590
      22A     -0.616809    23A     -0.590777    24A     -0.581231
      25A     -0.546506    26A     -0.544096    27A     -0.529840
      28A     -0.518244    29A     -0.501405    30A     -0.492922
      31A     -0.479593    32A     -0.465199    33A     -0.452512
      34A     -0.416037    35A     -0.298608

  @DF-RHF Final Energy:  -386.06234461643641

   => Energetics <=

    Nuclear Repulsion Energy =            417.8035978405267201
    One-Electron Energy =               -1351.5561778058188338
    Two-Electron Energy =                 547.6902353488558219
    Total Energy =                       -386.0623446164363486
  Basis Set: (AUG-CC-PVTZ AUX)
    Blend: AUG-CC-PVTZ-RI
    Molecular point group: c1

    Geometry (in Angstrom), charge = 0, multiplicity = 1:

       Center              X                  Y                   Z               Mass
    ------------   -----------------  -----------------  -----------------  -----------------
         O            2.694675759286    -1.336284931041    -0.026793869353    15.994914619570
         C            2.752265759286     0.023648068959     0.406618130647    12.000000000000
         C            1.362092759286     0.574683068959     0.395026130647    12.000000000000
         C           -3.547791240714     0.360318068959    -0.410521869353    12.000000000000
         C            3.672316759286     0.839194068959    -0.496217869353    12.000000000000
         C            0.271823759286    -0.104266931041    -0.001021869353    12.000000000000
         C           -2.161772240714    -0.202271931041    -0.409411869353    12.000000000000
         C           -1.075374840714     0.486956468959    -0.013885369353    12.000000000000
         C           -4.468869240714    -0.385320931041     0.558034130647    12.000000000000
         H            3.137529759286     0.067003068959     1.440121130647     1.007825032230
         H            1.266930759286     1.610090068959     0.724945130647     1.007825032230
         H           -3.509940240714     1.423090068959    -0.144637869353     1.007825032230
         H           -3.969933240714     0.303229068959    -1.422364869353     1.007825032230
         H            3.307418759286     0.780959068959    -1.524081869353     1.007825032230
         H            3.700463759286     1.888134068959    -0.187452869353     1.007825032230
         H            4.696235759286     0.450915068959    -0.461176869353     1.007825032230
         H            0.385516759286    -1.136816931041    -0.323279869353     1.007825032230
         H           -2.074682440714    -1.241227431041    -0.733956569353     1.007825032230
         H           -1.163394240714     1.505746068959     0.306143130647     1.007825032230
         H           -4.524108240714    -1.447576931041     0.302976130647     1.007825032230
         H           -5.483905240714     0.021388068959     0.530727130647     1.007825032230
         H           -4.092870240714    -0.304788931041     1.581189130647     1.007825032230
         H            3.604269759286    -1.679195931041    -0.004680869353     1.007825032230

  Basis Set: AUG-CC-PVTZ
    Blend: AUG-CC-PVTZ
  Basis Set: (AUG-CC-PVTZ AUX)
    Blend: AUG-CC-PVTZ-JKFIT
	 Reference Energy          =    -386.0623446164364054 [Eh]
	 Singles Energy            =      -0.0000000000000000 [Eh]
	 Same-Spin Energy          =      -0.4000611536555431 [Eh]
	 Opposite-Spin Energy      =      -1.3780680588187311 [Eh]
	 Correlation Energy        =      -1.7781292124742740 [Eh]
	 Total Energy              =    -387.8404738289106604 [Eh]

	 ================> DF-SCS-MP2 Energies <==================
	-----------------------------------------------------------
	 SCS Same-Spin Scale       =       0.3333333333333333 [-]
	 SCS Opposite-Spin Scale   =       1.2000000000000000 [-]
	 SCS Same-Spin Energy      =      -0.1333537178851810 [Eh]
	 SCS Opposite-Spin Energy  =      -1.6536816705824773 [Eh]
	 SCS Correlation Energy    =      -1.7870353884676584 [Eh]
	 SCS Total Energy          =    -387.8493800049040487 [Eh]
	-----------------------------------------------------------

  Dipole Moment: [D]
     X:     1.1936      Y:     0.7332      Z:     0.3074     Total:     1.4341

*** Psi4 exiting successfully. Buy a developer a beer!
