                               Psi4 1.3.2 release

  ==> Input File <==

--------------------------------------------------------------------------
#psi4
#
memory 32 gb

molecule  {
0 1
  O        2.6932640    -1.3344870    -0.0264310
  C        2.7508540     0.0254460     0.4069810
  C        1.3606810     0.5764810     0.3953890
  C       -3.5537397     0.3507787    -0.4147722
  C        3.6709050     0.8409920    -0.4958550
  C        0.2704120    -0.1024690    -0.0006590
  C       -2.1631840    -0.2004740    -0.4090490
  C       -1.0569795     0.4603383    -0.0199796
  C       -4.4702810    -0.3835230     0.5583970
  H        3.1361180     0.0688010     1.4404840
  H        1.2655190     1.6118880     0.7253080
  H       -3.5113520     1.4248880    -0.1442750
  H       -3.9713450     0.3050270    -1.4220020
  H        3.3060070     0.7827570    -1.5237190
  H        3.6990520     1.8899320    -0.1870900
  H        4.6948240     0.4527130    -0.4608140
  H        0.3841050    -1.1350190    -0.3229170
  H       -2.0573220    -1.2386810    -0.7303930
  H       -1.1648060     1.5075440     0.3065060
  H       -4.5255200    -1.4457790     0.3033390
  H       -5.4853170     0.0231860     0.5310900
  H       -4.0942820    -0.3029910     1.5815520
  H        3.6028580    -1.6773980    -0.0043180
units angstrom
no_reorient  #important for SAPT in psi4, default
symmetry c1  #important for SAPT in psi4, default
}

set PROPERTIES_ORIGIN ["COM"]
properties('MP2/aug-cc-pvtz', properties = ['dipole'])
--------------------------------------------------------------------------

    Molecular point group: c1
  Charge       = 0
  Multiplicity = 1
  Basis Set: AUG-CC-PVTZ
    Blend: AUG-CC-PVTZ
  Basis Set: (AUG-CC-PVTZ AUX)
    Blend: AUG-CC-PVTZ-JKFIT

    Orbital Energies [Eh]
    ---------------------

    Doubly Occupied:

       1A    -20.558813     2A    -11.286703     3A    -11.225962
       4A    -11.223892     5A    -11.223692     6A    -11.223380
       7A    -11.221651     8A    -11.220708     9A    -11.212750
      10A     -1.360726    11A     -1.098608    12A     -1.061707
      13A     -1.017228    14A     -0.962845    15A     -0.877422
      16A     -0.828681    17A     -0.751877    18A     -0.747671
      19A     -0.695326    20A     -0.637124    21A     -0.629191
      22A     -0.616704    23A     -0.589991    24A     -0.583456
      25A     -0.546650    26A     -0.543851    27A     -0.526292
      28A     -0.520904    29A     -0.500654    30A     -0.491863
      31A     -0.475833    32A     -0.468615    33A     -0.453272
      34A     -0.419781    35A     -0.297190

  @DF-RHF Final Energy:  -386.06187046696368

   => Energetics <=

    Nuclear Repulsion Energy =            418.0956578852335497
    One-Electron Energy =               -1352.1130246141105999
    Two-Electron Energy =                 547.9554962619133676
    Total Energy =                       -386.0618704669636827
  Basis Set: (AUG-CC-PVTZ AUX)
    Blend: AUG-CC-PVTZ-RI
    Molecular point group: c1

    Geometry (in Angstrom), charge = 0, multiplicity = 1:

       Center              X                  Y                   Z               Mass
    ------------   -----------------  -----------------  -----------------  -----------------
         O            2.693072613094    -1.332508011305    -0.025766008410    15.994914619570
         C            2.750662613094     0.027424988695     0.407645991590    12.000000000000
         C            1.360489613094     0.578459988695     0.396053991590    12.000000000000
         C           -3.553931086906     0.352757688695    -0.414107208410    12.000000000000
         C            3.670713613094     0.842970988695    -0.495190008410    12.000000000000
         C            0.270220613094    -0.100490011305     0.000005991590    12.000000000000
         C           -2.163375386906    -0.198495011305    -0.408384008410    12.000000000000
         C           -1.057170886906     0.462317288695    -0.019314608410    12.000000000000
         C           -4.470472386906    -0.381544011305     0.559061991590    12.000000000000
         H            3.135926613094     0.070779988695     1.441148991590     1.007825032230
         H            1.265327613094     1.613866988695     0.725972991590     1.007825032230
         H           -3.511543386906     1.426866988695    -0.143610008410     1.007825032230
         H           -3.971536386906     0.307005988695    -1.421337008410     1.007825032230
         H            3.305815613094     0.784735988695    -1.523054008410     1.007825032230
         H            3.698860613094     1.891910988695    -0.186425008410     1.007825032230
         H            4.694632613094     0.454691988695    -0.460149008410     1.007825032230
         H            0.383913613094    -1.133040011305    -0.322252008410     1.007825032230
         H           -2.057513386906    -1.236702011305    -0.729728008410     1.007825032230
         H           -1.164997386906     1.509522988695     0.307170991590     1.007825032230
         H           -4.525711386906    -1.443800011305     0.304003991590     1.007825032230
         H           -5.485508386906     0.025164988695     0.531754991590     1.007825032230
         H           -4.094473386906    -0.301012011305     1.582216991590     1.007825032230
         H            3.602666613094    -1.675419011305    -0.003653008410     1.007825032230

  Basis Set: AUG-CC-PVTZ
    Blend: AUG-CC-PVTZ
  Basis Set: (AUG-CC-PVTZ AUX)
    Blend: AUG-CC-PVTZ-JKFIT
	 Reference Energy          =    -386.0618704669636827 [Eh]
	 Singles Energy            =      -0.0000000000000000 [Eh]
	 Same-Spin Energy          =      -0.4005303710007848 [Eh]
	 Opposite-Spin Energy      =      -1.3785424289943289 [Eh]
	 Correlation Energy        =      -1.7790727999951137 [Eh]
	 Total Energy              =    -387.8409432669587886 [Eh]

	 ================> DF-SCS-MP2 Energies <==================
	-----------------------------------------------------------
	 SCS Same-Spin Scale       =       0.3333333333333333 [-]
	 SCS Opposite-Spin Scale   =       1.2000000000000000 [-]
	 SCS Same-Spin Energy      =      -0.1335101236669282 [Eh]
	 SCS Opposite-Spin Energy  =      -1.6542509147931945 [Eh]
	 SCS Correlation Energy    =      -1.7877610384601228 [Eh]
	 SCS Total Energy          =    -387.8496315054238153 [Eh]
	-----------------------------------------------------------

  Dipole Moment: [D]
     X:     1.2158      Y:     0.7202      Z:     0.3086     Total:     1.4464

*** Psi4 exiting successfully. Buy a developer a beer!
