                               Psi4 1.3.2 release

  ==> Input File <==

--------------------------------------------------------------------------
#psi4
#
memory 32 gb

molecule  {
0 1
  O        2.7011148    -1.3317977    -0.0357332
  C        2.7508540     0.0254460     0.4069810
  C        1.3606810     0.5764810     0.3953890
  C       -3.5492030     0.3621160    -0.4101590
  C        3.6733326     0.8301042    -0.5031180
  C        0.2704120    -0.1024690    -0.0006590
  C       -2.1631840    -0.2004740    -0.4090490
  C       -1.0635270     0.4697970    -0.0176060
  C       -4.4702810    -0.3835230     0.5583970
  H        3.1361180     0.0688010     1.4404840
  H        1.2655190     1.6118880     0.7253080
  H       -3.5113520     1.4248880    -0.1442750
  H       -3.9713450     0.3050270    -1.4220020
  H        3.3060070     0.7827570    -1.5237190
  H        3.6990520     1.8899320    -0.1870900
  H        4.6948240     0.4527130    -0.4608140
  H        0.3841050    -1.1350190    -0.3229170
  H       -2.0573220    -1.2386810    -0.7303930
  H       -1.1648060     1.5075440     0.3065060
  H       -4.5255200    -1.4457790     0.3033390
  H       -5.4853170     0.0231860     0.5310900
  H       -4.0942820    -0.3029910     1.5815520
  H        3.6028580    -1.6773980    -0.0043180
units angstrom
no_reorient  #important for SAPT in psi4, default
symmetry c1  #important for SAPT in psi4, default
}

set PROPERTIES_ORIGIN ["COM"]
properties('MP2/aug-cc-pvtz', properties = ['dipole'])
--------------------------------------------------------------------------

    Molecular point group: c1
  Charge       = 0
  Multiplicity = 1
  Basis Set: AUG-CC-PVTZ
    Blend: AUG-CC-PVTZ
  Basis Set: (AUG-CC-PVTZ AUX)
    Blend: AUG-CC-PVTZ-JKFIT

    Orbital Energies [Eh]
    ---------------------

    Doubly Occupied:

       1A    -20.557391     2A    -11.286533     3A    -11.226092
       4A    -11.223881     5A    -11.223370     6A    -11.223143
       7A    -11.222020     8A    -11.220055     9A    -11.212891
      10A     -1.361456    11A     -1.098023    12A     -1.061415
      13A     -1.016027    14A     -0.962508    15A     -0.876840
      16A     -0.828784    17A     -0.752566    18A     -0.748607
      19A     -0.696234    20A     -0.637424    21A     -0.628427
      22A     -0.615361    23A     -0.590187    24A     -0.583052
      25A     -0.548520    26A     -0.543219    27A     -0.526136
      28A     -0.518781    29A     -0.500871    30A     -0.492104
      31A     -0.479232    32A     -0.468224    33A     -0.452694
      34A     -0.418437    35A     -0.297696

  @DF-RHF Final Energy:  -386.06282283768502

   => Energetics <=

    Nuclear Repulsion Energy =            418.0115159701026073
    One-Electron Energy =               -1351.9522661482833428
    Two-Electron Energy =                 547.8779273404956029
    Total Energy =                       -386.0628228376850757
  Basis Set: (AUG-CC-PVTZ AUX)
    Blend: AUG-CC-PVTZ-RI
    Molecular point group: c1

    Geometry (in Angstrom), charge = 0, multiplicity = 1:

       Center              X                  Y                   Z               Mass
    ------------   -----------------  -----------------  -----------------  -----------------
         O            2.699887966207    -1.331102674754    -0.033862047354    15.994914619570
         C            2.749627166207     0.026141025246     0.408852152646    12.000000000000
         C            1.359454166207     0.577176025246     0.397260152646    12.000000000000
         C           -3.550429833793     0.362811025246    -0.408287847354    12.000000000000
         C            3.672105766207     0.830799225246    -0.501246847354    12.000000000000
         C            0.269185166207    -0.101773974754     0.001212152646    12.000000000000
         C           -2.164410833793    -0.199778974754    -0.407177847354    12.000000000000
         C           -1.064753833793     0.470492025246    -0.015734847354    12.000000000000
         C           -4.471507833793    -0.382827974754     0.560268152646    12.000000000000
         H            3.134891166207     0.069496025246     1.442355152646     1.007825032230
         H            1.264292166207     1.612583025246     0.727179152646     1.007825032230
         H           -3.512578833793     1.425583025246    -0.142403847354     1.007825032230
         H           -3.972571833793     0.305722025246    -1.420130847354     1.007825032230
         H            3.304780166207     0.783452025246    -1.521847847354     1.007825032230
         H            3.697825166207     1.890627025246    -0.185218847354     1.007825032230
         H            4.693597166207     0.453408025246    -0.458942847354     1.007825032230
         H            0.382878166207    -1.134323974754    -0.321045847354     1.007825032230
         H           -2.058548833793    -1.237985974754    -0.728521847354     1.007825032230
         H           -1.166032833793     1.508239025246     0.308377152646     1.007825032230
         H           -4.526746833793    -1.445083974754     0.305210152646     1.007825032230
         H           -5.486543833793     0.023881025246     0.532961152646     1.007825032230
         H           -4.095508833793    -0.302295974754     1.583423152646     1.007825032230
         H            3.601631166207    -1.676702974754    -0.002446847354     1.007825032230

  Basis Set: AUG-CC-PVTZ
    Blend: AUG-CC-PVTZ
  Basis Set: (AUG-CC-PVTZ AUX)
    Blend: AUG-CC-PVTZ-JKFIT
	 Reference Energy          =    -386.0628228376850188 [Eh]
	 Singles Energy            =      -0.0000000000000000 [Eh]
	 Same-Spin Energy          =      -0.4002371727865790 [Eh]
	 Opposite-Spin Energy      =      -1.3780718726533161 [Eh]
	 Correlation Energy        =      -1.7783090454398951 [Eh]
	 Total Energy              =    -387.8411318831248877 [Eh]

	 ================> DF-SCS-MP2 Energies <==================
	-----------------------------------------------------------
	 SCS Same-Spin Scale       =       0.3333333333333333 [-]
	 SCS Opposite-Spin Scale   =       1.2000000000000000 [-]
	 SCS Same-Spin Energy      =      -0.1334123909288596 [Eh]
	 SCS Opposite-Spin Energy  =      -1.6536862471839793 [Eh]
	 SCS Correlation Energy    =      -1.7870986381128389 [Eh]
	 SCS Total Energy          =    -387.8499214757978848 [Eh]
	-----------------------------------------------------------

  Dipole Moment: [D]
     X:     1.1809      Y:     0.7179      Z:     0.3299     Total:     1.4208

*** Psi4 exiting successfully. Buy a developer a beer!
