                               Psi4 1.3.2 release

  ==> Input File <==

--------------------------------------------------------------------------
#psi4
#
memory 32 gb

molecule  {
0 1
  O        2.6932640    -1.3344870    -0.0264310
  C        2.7508540     0.0254460     0.4069810
  C        1.3851726     0.6316586     0.3455364
  C       -3.5492030     0.3621160    -0.4101590
  C        3.6086563     0.8878160    -0.5134619
  C        0.2704120    -0.1024690    -0.0006590
  C       -2.1631840    -0.2004740    -0.4090490
  C       -1.0635270     0.4697970    -0.0176060
  C       -4.4702810    -0.3835230     0.5583970
  H        3.1361180     0.0688010     1.4404840
  H        1.2655190     1.6118880     0.7253080
  H       -3.5113520     1.4248880    -0.1442750
  H       -3.9713450     0.3050270    -1.4220020
  H        3.3060070     0.7827570    -1.5237190
  H        3.6990520     1.8899320    -0.1870900
  H        4.6948240     0.4527130    -0.4608140
  H        0.3841050    -1.1350190    -0.3229170
  H       -2.0573220    -1.2386810    -0.7303930
  H       -1.1648060     1.5075440     0.3065060
  H       -4.5255200    -1.4457790     0.3033390
  H       -5.4853170     0.0231860     0.5310900
  H       -4.0942820    -0.3029910     1.5815520
  H        3.6028580    -1.6773980    -0.0043180
units angstrom
no_reorient  #important for SAPT in psi4, default
symmetry c1  #important for SAPT in psi4, default
}

set PROPERTIES_ORIGIN ["COM"]
properties('MP2/aug-cc-pvtz', properties = ['dipole'])
--------------------------------------------------------------------------

    Molecular point group: c1
  Charge       = 0
  Multiplicity = 1
  Basis Set: AUG-CC-PVTZ
    Blend: AUG-CC-PVTZ
  Basis Set: (AUG-CC-PVTZ AUX)
    Blend: AUG-CC-PVTZ-JKFIT

    Orbital Energies [Eh]
    ---------------------

    Doubly Occupied:

       1A    -20.561411     2A    -11.287114     3A    -11.227665
       4A    -11.225644     5A    -11.223819     6A    -11.223169
       7A    -11.222818     8A    -11.220748     9A    -11.212745
      10A     -1.361634    11A     -1.096249    12A     -1.062073
      13A     -1.016476    14A     -0.958365    15A     -0.875285
      16A     -0.826479    17A     -0.756707    18A     -0.750720
      19A     -0.696839    20A     -0.637713    21A     -0.624936
      22A     -0.621192    23A     -0.590179    24A     -0.581656
      25A     -0.555740    26A     -0.542801    27A     -0.526656
      28A     -0.518584    29A     -0.503753    30A     -0.487823
      31A     -0.478286    32A     -0.461922    33A     -0.456398
      34A     -0.414712    35A     -0.292212

  @DF-RHF Final Energy:  -386.04994328316604

   => Energetics <=

    Nuclear Repulsion Energy =            417.8952922830925445
    One-Electron Energy =               -1351.6894273021880508
    Two-Electron Energy =                 547.7441917359294621
    Total Energy =                       -386.0499432831660442
  Basis Set: (AUG-CC-PVTZ AUX)
    Blend: AUG-CC-PVTZ-RI
    Molecular point group: c1

    Geometry (in Angstrom), charge = 0, multiplicity = 1:

       Center              X                  Y                   Z               Mass
    ------------   -----------------  -----------------  -----------------  -----------------
         O            2.696856894639    -1.344193332671    -0.020011474662    15.994914619570
         C            2.754446894639     0.015739667329     0.413400525338    12.000000000000
         C            1.388765494639     0.621952267329     0.351955925338    12.000000000000
         C           -3.545610105361     0.352409667329    -0.403739474662    12.000000000000
         C            3.612249194639     0.878109667329    -0.507042374662    12.000000000000
         C            0.274004894639    -0.112175332671     0.005760525338    12.000000000000
         C           -2.159591105361    -0.210180332671    -0.402629474662    12.000000000000
         C           -1.059934105361     0.460090667329    -0.011186474662    12.000000000000
         C           -4.466688105361    -0.393229332671     0.564816525338    12.000000000000
         H            3.139710894639     0.059094667329     1.446903525338     1.007825032230
         H            1.269111894639     1.602181667329     0.731727525338     1.007825032230
         H           -3.507759105361     1.415181667329    -0.137855474662     1.007825032230
         H           -3.967752105361     0.295320667329    -1.415582474662     1.007825032230
         H            3.309599894639     0.773050667329    -1.517299474662     1.007825032230
         H            3.702644894639     1.880225667329    -0.180670474662     1.007825032230
         H            4.698416894639     0.443006667329    -0.454394474662     1.007825032230
         H            0.387697894639    -1.144725332671    -0.316497474662     1.007825032230
         H           -2.053729105361    -1.248387332671    -0.723973474662     1.007825032230
         H           -1.161213105361     1.497837667329     0.312925525338     1.007825032230
         H           -4.521927105361    -1.455485332671     0.309758525338     1.007825032230
         H           -5.481724105361     0.013479667329     0.537509525338     1.007825032230
         H           -4.090689105361    -0.312697332671     1.587971525338     1.007825032230
         H            3.606450894639    -1.687104332671     0.002101525338     1.007825032230

  Basis Set: AUG-CC-PVTZ
    Blend: AUG-CC-PVTZ
  Basis Set: (AUG-CC-PVTZ AUX)
    Blend: AUG-CC-PVTZ-JKFIT
	 Reference Energy          =    -386.0499432831660442 [Eh]
	 Singles Energy            =      -0.0000000000000000 [Eh]
	 Same-Spin Energy          =      -0.4011630774983443 [Eh]
	 Opposite-Spin Energy      =      -1.3800549414872672 [Eh]
	 Correlation Energy        =      -1.7812180189856115 [Eh]
	 Total Energy              =    -387.8311613021516564 [Eh]

	 ================> DF-SCS-MP2 Energies <==================
	-----------------------------------------------------------
	 SCS Same-Spin Scale       =       0.3333333333333333 [-]
	 SCS Opposite-Spin Scale   =       1.2000000000000000 [-]
	 SCS Same-Spin Energy      =      -0.1337210258327814 [Eh]
	 SCS Opposite-Spin Energy  =      -1.6560659297847204 [Eh]
	 SCS Correlation Energy    =      -1.7897869556175019 [Eh]
	 SCS Total Energy          =    -387.8397302387835452 [Eh]
	-----------------------------------------------------------

  Dipole Moment: [D]
     X:     1.1490      Y:     0.7307      Z:     0.3898     Total:     1.4164

*** Psi4 exiting successfully. Buy a developer a beer!
