                               Psi4 1.3.2 release

  ==> Input File <==

--------------------------------------------------------------------------
#psi4
#
memory 32 gb

molecule  {
0 1
  O        2.6932640    -1.3344870    -0.0264310
  C        2.7755289     0.0232711     0.4098095
  C        1.3606810     0.5764810     0.3953890
  C       -3.5492030     0.3621160    -0.4101590
  C        3.6709050     0.8409920    -0.4958550
  C        0.2704120    -0.1024690    -0.0006590
  C       -2.1631840    -0.2004740    -0.4090490
  C       -1.0635270     0.4697970    -0.0176060
  C       -4.4702810    -0.3835230     0.5583970
  H        3.1361180     0.0688010     1.4404840
  H        1.2655190     1.6118880     0.7253080
  H       -3.5113520     1.4248880    -0.1442750
  H       -3.9713450     0.3050270    -1.4220020
  H        3.3060070     0.7827570    -1.5237190
  H        3.6990520     1.8899320    -0.1870900
  H        4.6948240     0.4527130    -0.4608140
  H        0.3841050    -1.1350190    -0.3229170
  H       -2.0573220    -1.2386810    -0.7303930
  H       -1.1648060     1.5075440     0.3065060
  H       -4.5255200    -1.4457790     0.3033390
  H       -5.4853170     0.0231860     0.5310900
  H       -4.0942820    -0.3029910     1.5815520
  H        3.6082654    -1.6622803     0.0011779
units angstrom
no_reorient  #important for SAPT in psi4, default
symmetry c1  #important for SAPT in psi4, default
}

set PROPERTIES_ORIGIN ["COM"]
properties('MP2/aug-cc-pvtz', properties = ['dipole'])
--------------------------------------------------------------------------

    Molecular point group: c1
  Charge       = 0
  Multiplicity = 1
  Basis Set: AUG-CC-PVTZ
    Blend: AUG-CC-PVTZ
  Basis Set: (AUG-CC-PVTZ AUX)
    Blend: AUG-CC-PVTZ-JKFIT

    Orbital Energies [Eh]
    ---------------------

    Doubly Occupied:

       1A    -20.559965     2A    -11.286215     3A    -11.225518
       4A    -11.223578     5A    -11.223038     6A    -11.222801
       7A    -11.221520     8A    -11.220682     9A    -11.212585
      10A     -1.362160    11A     -1.096801    12A     -1.059754
      13A     -1.017265    14A     -0.962500    15A     -0.874920
      16A     -0.828380    17A     -0.752471    18A     -0.746455
      19A     -0.696579    20A     -0.636441    21A     -0.627905
      22A     -0.618440    23A     -0.589779    24A     -0.582090
      25A     -0.548694    26A     -0.544014    27A     -0.526914
      28A     -0.518269    29A     -0.500170    30A     -0.491906
      31A     -0.478620    32A     -0.465115    33A     -0.454965
      34A     -0.419165    35A     -0.297498

  @DF-RHF Final Energy:  -386.06170947313024

   => Energetics <=

    Nuclear Repulsion Energy =            417.8018510305074642
    One-Electron Energy =               -1351.5407798588794321
    Two-Electron Energy =                 547.6772193552417320
    Total Energy =                       -386.0617094731302359
  Basis Set: (AUG-CC-PVTZ AUX)
    Blend: AUG-CC-PVTZ-RI
    Molecular point group: c1

    Geometry (in Angstrom), charge = 0, multiplicity = 1:

       Center              X                  Y                   Z               Mass
    ------------   -----------------  -----------------  -----------------  -----------------
         O            2.690872699610    -1.334400800719    -0.026743947657    15.994914619570
         C            2.773137599610     0.023357299281     0.409496552343    12.000000000000
         C            1.358289699610     0.576567199281     0.395076052343    12.000000000000
         C           -3.551594300390     0.362202199281    -0.410471947657    12.000000000000
         C            3.668513699610     0.841078199281    -0.496167947657    12.000000000000
         C            0.268020699610    -0.102382800719    -0.000971947657    12.000000000000
         C           -2.165575300390    -0.200387800719    -0.409361947657    12.000000000000
         C           -1.065918300390     0.469883199281    -0.017918947657    12.000000000000
         C           -4.472672300390    -0.383436800719     0.558084052343    12.000000000000
         H            3.133726699610     0.068887199281     1.440171052343     1.007825032230
         H            1.263127699610     1.611974199281     0.724995052343     1.007825032230
         H           -3.513743300390     1.424974199281    -0.144587947657     1.007825032230
         H           -3.973736300390     0.305113199281    -1.422314947657     1.007825032230
         H            3.303615699610     0.782843199281    -1.524031947657     1.007825032230
         H            3.696660699610     1.890018199281    -0.187402947657     1.007825032230
         H            4.692432699610     0.452799199281    -0.461126947657     1.007825032230
         H            0.381713699610    -1.134932800719    -0.323229947657     1.007825032230
         H           -2.059713300390    -1.238594800719    -0.730705947657     1.007825032230
         H           -1.167197300390     1.507630199281     0.306193052343     1.007825032230
         H           -4.527911300390    -1.445692800719     0.303026052343     1.007825032230
         H           -5.487708300390     0.023272199281     0.530777052343     1.007825032230
         H           -4.096673300390    -0.302904800719     1.581239052343     1.007825032230
         H            3.605874099610    -1.662194100719     0.000864952343     1.007825032230

  Basis Set: AUG-CC-PVTZ
    Blend: AUG-CC-PVTZ
  Basis Set: (AUG-CC-PVTZ AUX)
    Blend: AUG-CC-PVTZ-JKFIT
	 Reference Energy          =    -386.0617094731302359 [Eh]
	 Singles Energy            =      -0.0000000000000000 [Eh]
	 Same-Spin Energy          =      -0.4003325222174982 [Eh]
	 Opposite-Spin Energy      =      -1.3784841113425266 [Eh]
	 Correlation Energy        =      -1.7788166335600248 [Eh]
	 Total Energy              =    -387.8405261066902767 [Eh]

	 ================> DF-SCS-MP2 Energies <==================
	-----------------------------------------------------------
	 SCS Same-Spin Scale       =       0.3333333333333333 [-]
	 SCS Opposite-Spin Scale   =       1.2000000000000000 [-]
	 SCS Same-Spin Energy      =      -0.1334441740724994 [Eh]
	 SCS Opposite-Spin Energy  =      -1.6541809336110318 [Eh]
	 SCS Correlation Energy    =      -1.7876251076835312 [Eh]
	 SCS Total Energy          =    -387.8493345808137747 [Eh]
	-----------------------------------------------------------

  Dipole Moment: [D]
     X:     1.2502      Y:     0.7472      Z:     0.3135     Total:     1.4899

*** Psi4 exiting successfully. Buy a developer a beer!
