                               Psi4 1.4a3.dev225

  ==> Input File <==

--------------------------------------------------------------------------
#psi4
#
memory 32 gb

molecule  {
0 1
  O       -2.7161510     1.3794200    -0.1343610
  C       -2.7832390     0.0721360     0.4401970
  C       -1.3979030    -0.4954620     0.4743180
  C        3.5083460    -0.4405980    -0.4123350
  C       -3.7239960    -0.8239440    -0.3625680
  C       -0.3030690     0.1219220    -0.0067100
  C        2.1098506     0.1471893    -0.4549689
  C        1.0245920    -0.4684390     0.0236420
  C        4.4606410     0.4027870     0.4416180
  H       -3.1581590     0.1412460     1.4762970
  H       -1.3112260    -1.4900120     0.9147240
  H        3.4619600    -1.4629760    -0.0187660
  H        3.9104550    -0.5133060    -1.4317100
  H       -3.3684670    -0.8811940    -1.3941910
  H       -3.7626400    -1.8335820     0.0574350
  H       -4.7426360    -0.4191700    -0.3608330
  H       -0.4078810     1.1149080    -0.4388390
  H        2.0311270     1.1370710    -0.8883280
  H        1.1170930    -1.4649260     0.4609700
  H        4.5263310     1.4251690     0.0574090
  H        5.4690900    -0.0219830     0.4454750
  H        4.1044230     0.4539160     1.4740500
  H       -3.6221830     1.7324190    -0.1413340
units angstrom
no_reorient  #important for SAPT in psi4, default
symmetry c1  #important for SAPT in psi4, default
}

set PROPERTIES_ORIGIN ["COM"]
properties('MP2/aug-cc-pvtz', properties = ['dipole'])
--------------------------------------------------------------------------

    Molecular point group: c1
  Charge       = 0
  Multiplicity = 1
  Basis Set: AUG-CC-PVTZ
    Blend: AUG-CC-PVTZ
  Basis Set: (AUG-CC-PVTZ AUX)
    Blend: AUG-CC-PVTZ-JKFIT

    Orbital Energies [Eh]
    ---------------------

    Doubly Occupied:

       1A    -20.558743     2A    -11.286890     3A    -11.225184
       4A    -11.224260     5A    -11.223822     6A    -11.222556
       7A    -11.221944     8A    -11.220860     9A    -11.212811
      10A     -1.360056    11A     -1.097374    12A     -1.059139
      13A     -1.015402    14A     -0.963088    15A     -0.875007
      16A     -0.827806    17A     -0.753443    18A     -0.747922
      19A     -0.694991    20A     -0.637051    21A     -0.626481
      22A     -0.616347    23A     -0.589028    24A     -0.582737
      25A     -0.546681    26A     -0.544325    27A     -0.528506
      28A     -0.517026    29A     -0.500415    30A     -0.491845
      31A     -0.480129    32A     -0.464587    33A     -0.452823
      34A     -0.419304    35A     -0.298985

  @DF-RHF Final Energy:  -386.06267438802200

   => Energetics <=

    Nuclear Repulsion Energy =            417.5301155615609332
    One-Electron Energy =               -1351.0104399245242348
    Two-Electron Energy =                 547.4176499749413551
    Total Energy =                       -386.0626743880219465
  Basis Set: (AUG-CC-PVTZ AUX)
    Blend: AUG-CC-PVTZ-RI
    Molecular point group: c1

    Geometry (in Angstrom), charge = 0, multiplicity = 1:

       Center              X                  Y                   Z               Mass
    ------------   -----------------  -----------------  -----------------  -----------------
         O           -2.681089513647     1.362354103723    -0.132642148831    15.994914619570
         C           -2.748177513647     0.055070103723     0.441915851169    12.000000000000
         C           -1.362841513647    -0.512527896277     0.476036851169    12.000000000000
         C            3.543407486353    -0.457663896277    -0.410616148831    12.000000000000
         C           -3.688934513647    -0.841009896277    -0.360849148831    12.000000000000
         C           -0.268007513647     0.104856103723    -0.004991148831    12.000000000000
         C            2.144912086353     0.130123403723    -0.453250048831    12.000000000000
         C            1.059653486353    -0.485504896277     0.025360851169    12.000000000000
         C            4.495702486353     0.385721103723     0.443336851169    12.000000000000
         H           -3.123097513647     0.124180103723     1.478015851169     1.007825032230
         H           -1.276164513647    -1.507077896277     0.916442851169     1.007825032230
         H            3.497021486353    -1.480041896277    -0.017047148831     1.007825032230
         H            3.945516486353    -0.530371896277    -1.429991148831     1.007825032230
         H           -3.333405513647    -0.898259896277    -1.392472148831     1.007825032230
         H           -3.727578513647    -1.850647896277     0.059153851169     1.007825032230
         H           -4.707574513647    -0.436235896277    -0.359114148831     1.007825032230
         H           -0.372819513647     1.097842103723    -0.437120148831     1.007825032230
         H            2.066188486353     1.120005103723    -0.886609148831     1.007825032230
         H            1.152154486353    -1.481991896277     0.462688851169     1.007825032230
         H            4.561392486353     1.408103103723     0.059127851169     1.007825032230
         H            5.504151486353    -0.039048896277     0.447193851169     1.007825032230
         H            4.139484486353     0.436850103723     1.475768851169     1.007825032230
         H           -3.587121513647     1.715353103723    -0.139615148831     1.007825032230

  Basis Set: AUG-CC-PVTZ
    Blend: AUG-CC-PVTZ
  Basis Set: (AUG-CC-PVTZ AUX)
    Blend: AUG-CC-PVTZ-JKFIT
	 Reference Energy          =    -386.0626743880220033 [Eh]
	 Singles Energy            =      -0.0000000000000000 [Eh]
	 Same-Spin Energy          =      -0.3999572138524211 [Eh]
	 Opposite-Spin Energy      =      -1.3779813075012726 [Eh]
	 Correlation Energy        =      -1.7779385213536938 [Eh]
	 Total Energy              =    -387.8406129093756931 [Eh]

	 ================> DF-SCS-MP2 Energies <==================
	-----------------------------------------------------------
	 SCS Same-Spin Scale       =       0.3333333333333333 [-]
	 SCS Opposite-Spin Scale   =       1.2000000000000000 [-]
	 SCS Same-Spin Energy      =      -0.1333190712841404 [Eh]
	 SCS Opposite-Spin Energy  =      -1.6535775690015271 [Eh]
	 SCS Correlation Energy    =      -1.7868966402856674 [Eh]
	 SCS Total Energy          =    -387.8495710283076505 [Eh]
	-----------------------------------------------------------

  Dipole Moment: [D]
     X:    -1.2198      Y:    -0.6815      Z:     0.3910     Total:     1.4509

*** Psi4 exiting successfully. Buy a developer a beer!
