                               Psi4 1.3.2 release

  ==> Input File <==

--------------------------------------------------------------------------
#psi4
#
memory 32 gb

molecule  {
0 1
  O        2.7179861    -1.3361800    -0.0236868
  C        2.7508540     0.0254460     0.4069810
  C        1.3699379     0.5993932     0.4037886
  C       -3.5492030     0.3621160    -0.4101590
  C        3.6709050     0.8409920    -0.4958550
  C        0.2704120    -0.1024690    -0.0006590
  C       -2.1631840    -0.2004740    -0.4090490
  C       -1.0635270     0.4697970    -0.0176060
  C       -4.4702810    -0.3835230     0.5583970
  H        3.1361180     0.0688010     1.4404840
  H        1.2655190     1.6118880     0.7253080
  H       -3.5113520     1.4248880    -0.1442750
  H       -3.9713450     0.3050270    -1.4220020
  H        3.3060070     0.7827570    -1.5237190
  H        3.6990520     1.8899320    -0.1870900
  H        4.6948240     0.4527130    -0.4608140
  H        0.3841050    -1.1350190    -0.3229170
  H       -2.0573220    -1.2386810    -0.7303930
  H       -1.1648060     1.5075440     0.3065060
  H       -4.5255200    -1.4457790     0.3033390
  H       -5.4853170     0.0231860     0.5310900
  H       -4.0942820    -0.3029910     1.5815520
  H        3.6028580    -1.6773980    -0.0043180
units angstrom
no_reorient  #important for SAPT in psi4, default
symmetry c1  #important for SAPT in psi4, default
}

set PROPERTIES_ORIGIN ["COM"]
properties('MP2/aug-cc-pvtz', properties = ['dipole'])
--------------------------------------------------------------------------

    Molecular point group: c1
  Charge       = 0
  Multiplicity = 1
  Basis Set: AUG-CC-PVTZ
    Blend: AUG-CC-PVTZ
  Basis Set: (AUG-CC-PVTZ AUX)
    Blend: AUG-CC-PVTZ-JKFIT

    Orbital Energies [Eh]
    ---------------------

    Doubly Occupied:

       1A    -20.556073     2A    -11.286768     3A    -11.226879
       4A    -11.226157     5A    -11.224286     6A    -11.223498
       7A    -11.223262     8A    -11.219752     9A    -11.212955
      10A     -1.364624    11A     -1.097239    12A     -1.061579
      13A     -1.016142    14A     -0.960784    15A     -0.877207
      16A     -0.828098    17A     -0.756417    18A     -0.751118
      19A     -0.696587    20A     -0.638439    21A     -0.626679
      22A     -0.617030    23A     -0.591887    24A     -0.583556
      25A     -0.547961    26A     -0.543394    27A     -0.527979
      28A     -0.519325    29A     -0.503989    30A     -0.490898
      31A     -0.479175    32A     -0.468251    33A     -0.452906
      34A     -0.416550    35A     -0.294873

  @DF-RHF Final Energy:  -386.06193377395152

   => Energetics <=

    Nuclear Repulsion Energy =            417.5971981985637740
    One-Electron Energy =               -1351.0936302452505515
    Two-Electron Energy =                 547.4344982727352544
    Total Energy =                       -386.0619337739515231
  Basis Set: (AUG-CC-PVTZ AUX)
    Blend: AUG-CC-PVTZ-RI
    Molecular point group: c1

    Geometry (in Angstrom), charge = 0, multiplicity = 1:

       Center              X                  Y                   Z               Mass
    ------------   -----------------  -----------------  -----------------  -----------------
         O            2.713969463302    -1.338145510885    -0.024834036427    15.994914619570
         C            2.746837363302     0.023480489115     0.405833763573    12.000000000000
         C            1.365921263302     0.597427689115     0.402641363573    12.000000000000
         C           -3.553219636698     0.360150489115    -0.411306236427    12.000000000000
         C            3.666888363302     0.839026489115    -0.497002236427    12.000000000000
         C            0.266395363302    -0.104434510885    -0.001806236427    12.000000000000
         C           -2.167200636698    -0.202439510885    -0.410196236427    12.000000000000
         C           -1.067543636698     0.467831489115    -0.018753236427    12.000000000000
         C           -4.474297636698    -0.385488510885     0.557249763573    12.000000000000
         H            3.132101363302     0.066835489115     1.439336763573     1.007825032230
         H            1.261502363302     1.609922489115     0.724160763573     1.007825032230
         H           -3.515368636698     1.422922489115    -0.145422236427     1.007825032230
         H           -3.975361636698     0.303061489115    -1.423149236427     1.007825032230
         H            3.301990363302     0.780791489115    -1.524866236427     1.007825032230
         H            3.695035363302     1.887966489115    -0.188237236427     1.007825032230
         H            4.690807363302     0.450747489115    -0.461961236427     1.007825032230
         H            0.380088363302    -1.136984510885    -0.324064236427     1.007825032230
         H           -2.061338636698    -1.240646510885    -0.731540236427     1.007825032230
         H           -1.168822636698     1.505578489115     0.305358763573     1.007825032230
         H           -4.529536636698    -1.447744510885     0.302191763573     1.007825032230
         H           -5.489333636698     0.021220489115     0.529942763573     1.007825032230
         H           -4.098298636698    -0.304956510885     1.580404763573     1.007825032230
         H            3.598841363302    -1.679363510885    -0.005465236427     1.007825032230

  Basis Set: AUG-CC-PVTZ
    Blend: AUG-CC-PVTZ
  Basis Set: (AUG-CC-PVTZ AUX)
    Blend: AUG-CC-PVTZ-JKFIT
	 Reference Energy          =    -386.0619337739515231 [Eh]
	 Singles Energy            =      -0.0000000000000000 [Eh]
	 Same-Spin Energy          =      -0.4001854926494672 [Eh]
	 Opposite-Spin Energy      =      -1.3779064008486217 [Eh]
	 Correlation Energy        =      -1.7780918934980889 [Eh]
	 Total Energy              =    -387.8400256674495949 [Eh]

	 ================> DF-SCS-MP2 Energies <==================
	-----------------------------------------------------------
	 SCS Same-Spin Scale       =       0.3333333333333333 [-]
	 SCS Opposite-Spin Scale   =       1.2000000000000000 [-]
	 SCS Same-Spin Energy      =      -0.1333951642164891 [Eh]
	 SCS Opposite-Spin Energy  =      -1.6534876810183461 [Eh]
	 SCS Correlation Energy    =      -1.7868828452348351 [Eh]
	 SCS Total Energy          =    -387.8488166191863797 [Eh]
	-----------------------------------------------------------

  Dipole Moment: [D]
     X:     1.1485      Y:     0.7484      Z:     0.3169     Total:     1.4070

*** Psi4 exiting successfully. Buy a developer a beer!
