                               Psi4 1.3.2 release

  ==> Input File <==

--------------------------------------------------------------------------
#psi4
#
memory 32 gb

molecule  {
0 1
  O        2.6932640    -1.3344870    -0.0264310
  C        2.7508540     0.0254460     0.4069810
  C        1.3606810     0.5764810     0.3953890
  C       -3.5492030     0.3621160    -0.4101590
  C        3.6709050     0.8409920    -0.4958550
  C        0.2704120    -0.1024690    -0.0006590
  C       -2.1631840    -0.2004740    -0.4090490
  C       -1.0635270     0.4697970    -0.0176060
  C       -4.4702810    -0.3835230     0.5583970
  H        3.1012155     0.0648733     1.3468550
  H        1.2655190     1.6118880     0.7253080
  H       -3.5113520     1.4248880    -0.1442750
  H       -3.9713450     0.3050270    -1.4220020
  H        3.3060070     0.7827570    -1.5237190
  H        3.6990520     1.8899320    -0.1870900
  H        4.6948240     0.4527130    -0.4608140
  H        0.3841050    -1.1350190    -0.3229170
  H       -2.0573220    -1.2386810    -0.7303930
  H       -1.1648060     1.5075440     0.3065060
  H       -4.5255200    -1.4457790     0.3033390
  H       -5.4853170     0.0231860     0.5310900
  H       -4.0942820    -0.3029910     1.5815520
  H        3.6028580    -1.6773980    -0.0043180
units angstrom
no_reorient  #important for SAPT in psi4, default
symmetry c1  #important for SAPT in psi4, default
}

set PROPERTIES_ORIGIN ["COM"]
properties('MP2/aug-cc-pvtz', properties = ['dipole'])
--------------------------------------------------------------------------

    Molecular point group: c1
  Charge       = 0
  Multiplicity = 1
  Basis Set: AUG-CC-PVTZ
    Blend: AUG-CC-PVTZ
  Basis Set: (AUG-CC-PVTZ AUX)
    Blend: AUG-CC-PVTZ-JKFIT

    Orbital Energies [Eh]
    ---------------------

    Doubly Occupied:

       1A    -20.557002     2A    -11.273597     3A    -11.225567
       4A    -11.223181     5A    -11.222960     6A    -11.222510
       7A    -11.221113     8A    -11.219578     9A    -11.212634
      10A     -1.359834    11A     -1.097751    12A     -1.062593
      13A     -1.017895    14A     -0.962201    15A     -0.878958
      16A     -0.833418    17A     -0.755585    18A     -0.747820
      19A     -0.704084    20A     -0.636798    21A     -0.629277
      22A     -0.617043    23A     -0.589571    24A     -0.582453
      25A     -0.546385    26A     -0.543431    27A     -0.527515
      28A     -0.518675    29A     -0.500328    30A     -0.494567
      31A     -0.479050    32A     -0.468018    33A     -0.455232
      34A     -0.419031    35A     -0.297499

  @DF-RHF Final Energy:  -386.05754014400213

   => Energetics <=

    Nuclear Repulsion Energy =            418.5441114575951360
    One-Electron Energy =               -1352.9969988887862655
    Two-Electron Energy =                 548.3953472871889971
    Total Energy =                       -386.0575401440021324
  Basis Set: (AUG-CC-PVTZ AUX)
    Blend: AUG-CC-PVTZ-RI
    Molecular point group: c1

    Geometry (in Angstrom), charge = 0, multiplicity = 1:

       Center              X                  Y                   Z               Mass
    ------------   -----------------  -----------------  -----------------  -----------------
         O            2.693542899480    -1.334455551905    -0.025682585115    15.994914619570
         C            2.751132899480     0.025477448095     0.407729414885    12.000000000000
         C            1.360959899480     0.576512448095     0.396137414885    12.000000000000
         C           -3.548924100520     0.362147448095    -0.409410585115    12.000000000000
         C            3.671183899480     0.841023448095    -0.495106585115    12.000000000000
         C            0.270690899480    -0.102437551905     0.000089414885    12.000000000000
         C           -2.162905100520    -0.200442551905    -0.408300585115    12.000000000000
         C           -1.063248100520     0.469828448095    -0.016857585115    12.000000000000
         C           -4.470002100520    -0.383491551905     0.559145414885    12.000000000000
         H            3.101494399480     0.064904748095     1.347603414885     1.007825032230
         H            1.265797899480     1.611919448095     0.726056414885     1.007825032230
         H           -3.511073100520     1.424919448095    -0.143526585115     1.007825032230
         H           -3.971066100520     0.305058448095    -1.421253585115     1.007825032230
         H            3.306285899480     0.782788448095    -1.522970585115     1.007825032230
         H            3.699330899480     1.889963448095    -0.186341585115     1.007825032230
         H            4.695102899480     0.452744448095    -0.460065585115     1.007825032230
         H            0.384383899480    -1.134987551905    -0.322168585115     1.007825032230
         H           -2.057043100520    -1.238649551905    -0.729644585115     1.007825032230
         H           -1.164527100520     1.507575448095     0.307254414885     1.007825032230
         H           -4.525241100520    -1.445747551905     0.304087414885     1.007825032230
         H           -5.485038100520     0.023217448095     0.531838414885     1.007825032230
         H           -4.094003100520    -0.302959551905     1.582300414885     1.007825032230
         H            3.603136899480    -1.677366551905    -0.003569585115     1.007825032230

  Basis Set: AUG-CC-PVTZ
    Blend: AUG-CC-PVTZ
  Basis Set: (AUG-CC-PVTZ AUX)
    Blend: AUG-CC-PVTZ-JKFIT
	 Reference Energy          =    -386.0575401440021324 [Eh]
	 Singles Energy            =      -0.0000000000000000 [Eh]
	 Same-Spin Energy          =      -0.4002404322601942 [Eh]
	 Opposite-Spin Energy      =      -1.3777166329757953 [Eh]
	 Correlation Energy        =      -1.7779570652359895 [Eh]
	 Total Energy              =    -387.8354972092380990 [Eh]

	 ================> DF-SCS-MP2 Energies <==================
	-----------------------------------------------------------
	 SCS Same-Spin Scale       =       0.3333333333333333 [-]
	 SCS Opposite-Spin Scale   =       1.2000000000000000 [-]
	 SCS Same-Spin Energy      =      -0.1334134774200647 [Eh]
	 SCS Opposite-Spin Energy  =      -1.6532599595709543 [Eh]
	 SCS Correlation Energy    =      -1.7866734369910191 [Eh]
	 SCS Total Energy          =    -387.8442135809931415 [Eh]
	-----------------------------------------------------------

  Dipole Moment: [D]
     X:     1.2409      Y:     0.7505      Z:     0.3732     Total:     1.4975

*** Psi4 exiting successfully. Buy a developer a beer!
