                               Psi4 1.4a3.dev225

  ==> Input File <==

--------------------------------------------------------------------------
#psi4
#
memory 32 gb

molecule  {
0 1
  O       -2.7161510     1.3794200    -0.1343610
  C       -2.7832390     0.0721360     0.4401970
  C       -1.3979030    -0.4954620     0.4743180
  C        3.5083460    -0.4405980    -0.4123350
  C       -3.7239960    -0.8239440    -0.3625680
  C       -0.3030690     0.1219220    -0.0067100
  C        2.1282810     0.1394430    -0.4544070
  C        1.0655404    -0.4458857     0.0059057
  C        4.4606410     0.4027870     0.4416180
  H       -3.1581590     0.1412460     1.4762970
  H       -1.3112260    -1.4900120     0.9147240
  H        3.4619600    -1.4629760    -0.0187660
  H        3.9104550    -0.5133060    -1.4317100
  H       -3.3684670    -0.8811940    -1.3941910
  H       -3.7626400    -1.8335820     0.0574350
  H       -4.7426360    -0.4191700    -0.3608330
  H       -0.4078810     1.1149080    -0.4388390
  H        2.0311270     1.1370710    -0.8883280
  H        1.1170930    -1.4649260     0.4609700
  H        4.5263310     1.4251690     0.0574090
  H        5.4690900    -0.0219830     0.4454750
  H        4.1044230     0.4539160     1.4740500
  H       -3.6221830     1.7324190    -0.1413340
units angstrom
no_reorient  #important for SAPT in psi4, default
symmetry c1  #important for SAPT in psi4, default
}

set PROPERTIES_ORIGIN ["COM"]
properties('MP2/aug-cc-pvtz', properties = ['dipole'])
--------------------------------------------------------------------------

    Molecular point group: c1
  Charge       = 0
  Multiplicity = 1
  Basis Set: AUG-CC-PVTZ
    Blend: AUG-CC-PVTZ
  Basis Set: (AUG-CC-PVTZ AUX)
    Blend: AUG-CC-PVTZ-JKFIT

    Orbital Energies [Eh]
    ---------------------

    Doubly Occupied:

       1A    -20.558800     2A    -11.287550     3A    -11.225536
       4A    -11.223720     5A    -11.223190     6A    -11.221537
       7A    -11.221151     8A    -11.218229     9A    -11.212953
      10A     -1.360159    11A     -1.099929    12A     -1.061688
      13A     -1.014450    14A     -0.967108    15A     -0.874468
      16A     -0.830307    17A     -0.750742    18A     -0.745322
      19A     -0.694535    20A     -0.636664    21A     -0.627758
      22A     -0.616585    23A     -0.592477    24A     -0.581777
      25A     -0.546446    26A     -0.543218    27A     -0.527367
      28A     -0.519675    29A     -0.500445    30A     -0.491122
      31A     -0.480077    32A     -0.459742    33A     -0.452747
      34A     -0.419161    35A     -0.306624

  @DF-RHF Final Energy:  -386.06103027273213

   => Energetics <=

    Nuclear Repulsion Energy =            417.7038791369434421
    One-Electron Energy =               -1351.3432987949383914
    Two-Electron Energy =                 547.5783893852628808
    Total Energy =                       -386.0610302727320686
  Basis Set: (AUG-CC-PVTZ AUX)
    Blend: AUG-CC-PVTZ-RI
    Molecular point group: c1

    Geometry (in Angstrom), charge = 0, multiplicity = 1:

       Center              X                  Y                   Z               Mass
    ------------   -----------------  -----------------  -----------------  -----------------
         O           -2.686739952746     1.360945081451    -0.131007846668    15.994914619570
         C           -2.753827952746     0.053661081451     0.443550153332    12.000000000000
         C           -1.368491952746    -0.513936918549     0.477671153332    12.000000000000
         C            3.537757047254    -0.459072918549    -0.408981846668    12.000000000000
         C           -3.694584952746    -0.842418918549    -0.359214846668    12.000000000000
         C           -0.273657952746     0.103447081451    -0.003356846668    12.000000000000
         C            2.157692047254     0.120968081451    -0.451053846668    12.000000000000
         C            1.094951447254    -0.464360618549     0.009258853332    12.000000000000
         C            4.490052047254     0.384312081451     0.444971153332    12.000000000000
         H           -3.128747952746     0.122771081451     1.479650153332     1.007825032230
         H           -1.281814952746    -1.508486918549     0.918077153332     1.007825032230
         H            3.491371047254    -1.481450918549    -0.015412846668     1.007825032230
         H            3.939866047254    -0.531780918549    -1.428356846668     1.007825032230
         H           -3.339055952746    -0.899668918549    -1.390837846668     1.007825032230
         H           -3.733228952746    -1.852056918549     0.060788153332     1.007825032230
         H           -4.713224952746    -0.437644918549    -0.357479846668     1.007825032230
         H           -0.378469952746     1.096433081451    -0.435485846668     1.007825032230
         H            2.060538047254     1.118596081451    -0.884974846668     1.007825032230
         H            1.146504047254    -1.483400918549     0.464323153332     1.007825032230
         H            4.555742047254     1.406694081451     0.060762153332     1.007825032230
         H            5.498501047254    -0.040457918549     0.448828153332     1.007825032230
         H            4.133834047254     0.435441081451     1.477403153332     1.007825032230
         H           -3.592771952746     1.713944081451    -0.137980846668     1.007825032230

  Basis Set: AUG-CC-PVTZ
    Blend: AUG-CC-PVTZ
  Basis Set: (AUG-CC-PVTZ AUX)
    Blend: AUG-CC-PVTZ-JKFIT
	 Reference Energy          =    -386.0610302727321255 [Eh]
	 Singles Energy            =      -0.0000000000000000 [Eh]
	 Same-Spin Energy          =      -0.3994872213393122 [Eh]
	 Opposite-Spin Energy      =      -1.3770768710519095 [Eh]
	 Correlation Energy        =      -1.7765640923912216 [Eh]
	 Total Energy              =    -387.8375943651233229 [Eh]

	 ================> DF-SCS-MP2 Energies <==================
	-----------------------------------------------------------
	 SCS Same-Spin Scale       =       0.3333333333333333 [-]
	 SCS Opposite-Spin Scale   =       1.2000000000000000 [-]
	 SCS Same-Spin Energy      =      -0.1331624071131041 [Eh]
	 SCS Opposite-Spin Energy  =      -1.6524922452622912 [Eh]
	 SCS Correlation Energy    =      -1.7856546523753953 [Eh]
	 SCS Total Energy          =    -387.8466849251075246 [Eh]
	-----------------------------------------------------------

  Dipole Moment: [D]
     X:    -1.2153      Y:    -0.6706      Z:     0.3825     Total:     1.4398

*** Psi4 exiting successfully. Buy a developer a beer!
