                               Psi4 1.3.2 release

  ==> Input File <==

--------------------------------------------------------------------------
#psi4
#
memory 32 gb

molecule  {
0 1
  O        2.6932640    -1.3344870    -0.0264310
  C        2.7508540     0.0254460     0.4069810
  C        1.3606810     0.5764810     0.3953890
  C       -3.5492030     0.3621160    -0.4101590
  C        3.6709050     0.8409920    -0.4958550
  C        0.2572965    -0.0834951     0.0036139
  C       -2.1631840    -0.2004740    -0.4090490
  C       -1.0635270     0.4697970    -0.0176060
  C       -4.4702810    -0.3835230     0.5583970
  H        3.1361180     0.0688010     1.4404840
  H        1.2467737     1.6110141     0.7220945
  H       -3.5113520     1.4248880    -0.1442750
  H       -3.9713450     0.3050270    -1.4220020
  H        3.3060070     0.7827570    -1.5237190
  H        3.6990520     1.8899320    -0.1870900
  H        4.6948240     0.4527130    -0.4608140
  H        0.3841050    -1.1350190    -0.3229170
  H       -2.0573220    -1.2386810    -0.7303930
  H       -1.1648060     1.5075440     0.3065060
  H       -4.5255200    -1.4457790     0.3033390
  H       -5.4853170     0.0231860     0.5310900
  H       -4.0942820    -0.3029910     1.5815520
  H        3.6028580    -1.6773980    -0.0043180
units angstrom
no_reorient  #important for SAPT in psi4, default
symmetry c1  #important for SAPT in psi4, default
}

set PROPERTIES_ORIGIN ["COM"]
properties('MP2/aug-cc-pvtz', properties = ['dipole'])
--------------------------------------------------------------------------

    Molecular point group: c1
  Charge       = 0
  Multiplicity = 1
  Basis Set: AUG-CC-PVTZ
    Blend: AUG-CC-PVTZ
  Basis Set: (AUG-CC-PVTZ AUX)
    Blend: AUG-CC-PVTZ-JKFIT

    Orbital Energies [Eh]
    ---------------------

    Doubly Occupied:

       1A    -20.558912     2A    -11.287461     3A    -11.226658
       4A    -11.223575     5A    -11.223339     6A    -11.222224
       7A    -11.221448     8A    -11.220711     9A    -11.213064
      10A     -1.360752    11A     -1.099632    12A     -1.061321
      13A     -1.017472    14A     -0.962652    15A     -0.877865
      16A     -0.828976    17A     -0.754286    18A     -0.745140
      19A     -0.695579    20A     -0.636861    21A     -0.629311
      22A     -0.617001    23A     -0.590208    24A     -0.583815
      25A     -0.546215    26A     -0.543095    27A     -0.527651
      28A     -0.518494    29A     -0.497360    30A     -0.491117
      31A     -0.479488    32A     -0.470012    33A     -0.453425
      34A     -0.420526    35A     -0.296315

  @DF-RHF Final Energy:  -386.06137159368018

   => Energetics <=

    Nuclear Repulsion Energy =            418.1009962895597027
    One-Electron Energy =               -1352.1208209179133064
    Two-Electron Energy =                 547.9584530346734255
    Total Energy =                       -386.0613715936801782
  Basis Set: (AUG-CC-PVTZ AUX)
    Blend: AUG-CC-PVTZ-RI
    Molecular point group: c1

    Geometry (in Angstrom), charge = 0, multiplicity = 1:

       Center              X                  Y                   Z               Mass
    ------------   -----------------  -----------------  -----------------  -----------------
         O            2.694661831861    -1.336285498973    -0.026811790208    15.994914619570
         C            2.752251831861     0.023647501027     0.406600209792    12.000000000000
         C            1.362078831861     0.574682501027     0.395008209792    12.000000000000
         C           -3.547805168139     0.360317501027    -0.410539790208    12.000000000000
         C            3.672302831861     0.839193501027    -0.496235790208    12.000000000000
         C            0.258694331861    -0.085293598973     0.003233109792    12.000000000000
         C           -2.161786168139    -0.202272498973    -0.409429790208    12.000000000000
         C           -1.062129168139     0.467998501027    -0.017986790208    12.000000000000
         C           -4.468883168139    -0.385321498973     0.558016209792    12.000000000000
         H            3.137515831861     0.067002501027     1.440103209792     1.007825032230
         H            1.248171531861     1.609215601027     0.721713709792     1.007825032230
         H           -3.509954168139     1.423089501027    -0.144655790208     1.007825032230
         H           -3.969947168139     0.303228501027    -1.422382790208     1.007825032230
         H            3.307404831861     0.780958501027    -1.524099790208     1.007825032230
         H            3.700449831861     1.888133501027    -0.187470790208     1.007825032230
         H            4.696221831861     0.450914501027    -0.461194790208     1.007825032230
         H            0.385502831861    -1.136817498973    -0.323297790208     1.007825032230
         H           -2.055924168139    -1.240479498973    -0.730773790208     1.007825032230
         H           -1.163408168139     1.505745501027     0.306125209792     1.007825032230
         H           -4.524122168139    -1.447577498973     0.302958209792     1.007825032230
         H           -5.483919168139     0.021387501027     0.530709209792     1.007825032230
         H           -4.092884168139    -0.304789498973     1.581171209792     1.007825032230
         H            3.604255831861    -1.679196498973    -0.004698790208     1.007825032230

  Basis Set: AUG-CC-PVTZ
    Blend: AUG-CC-PVTZ
  Basis Set: (AUG-CC-PVTZ AUX)
    Blend: AUG-CC-PVTZ-JKFIT
	 Reference Energy          =    -386.0613715936801782 [Eh]
	 Singles Energy            =      -0.0000000000000000 [Eh]
	 Same-Spin Energy          =      -0.4006665415272436 [Eh]
	 Opposite-Spin Energy      =      -1.3786457224751141 [Eh]
	 Correlation Energy        =      -1.7793122640023578 [Eh]
	 Total Energy              =    -387.8406838576825635 [Eh]

	 ================> DF-SCS-MP2 Energies <==================
	-----------------------------------------------------------
	 SCS Same-Spin Scale       =       0.3333333333333333 [-]
	 SCS Opposite-Spin Scale   =       1.2000000000000000 [-]
	 SCS Same-Spin Energy      =      -0.1335555138424145 [Eh]
	 SCS Opposite-Spin Energy  =      -1.6543748669701368 [Eh]
	 SCS Correlation Energy    =      -1.7879303808125513 [Eh]
	 SCS Total Energy          =    -387.8493019744927324 [Eh]
	-----------------------------------------------------------

  Dipole Moment: [D]
     X:     1.1925      Y:     0.7277      Z:     0.3060     Total:     1.4302

*** Psi4 exiting successfully. Buy a developer a beer!
