                               Psi4 1.3.2 release

  ==> Input File <==

--------------------------------------------------------------------------
#psi4
#
memory 32 gb

molecule  {
0 1
  O        2.6932640    -1.3344870    -0.0264310
  C        2.7508540     0.0254460     0.4069810
  C        1.3606810     0.5764810     0.3953890
  C       -3.5492030     0.3621160    -0.4101590
  C        3.6709050     0.8409920    -0.4958550
  C        0.2704120    -0.1024690    -0.0006590
  C       -2.1631840    -0.2004740    -0.4090490
  C       -1.0635270     0.4697970    -0.0176060
  C       -4.4702810    -0.3835230     0.5583970
  H        3.2059231     0.0766564     1.6277420
  H        1.2655190     1.6118880     0.7253080
  H       -3.5113520     1.4248880    -0.1442750
  H       -3.9713450     0.3050270    -1.4220020
  H        3.3060070     0.7827570    -1.5237190
  H        3.6990520     1.8899320    -0.1870900
  H        4.6948240     0.4527130    -0.4608140
  H        0.3841050    -1.1350190    -0.3229170
  H       -2.0573220    -1.2386810    -0.7303930
  H       -1.1648060     1.5075440     0.3065060
  H       -4.5255200    -1.4457790     0.3033390
  H       -5.4853170     0.0231860     0.5310900
  H       -4.0942820    -0.3029910     1.5815520
  H        3.6028580    -1.6773980    -0.0043180
units angstrom
no_reorient  #important for SAPT in psi4, default
symmetry c1  #important for SAPT in psi4, default
}

set PROPERTIES_ORIGIN ["COM"]
properties('MP2/aug-cc-pvtz', properties = ['dipole'])
--------------------------------------------------------------------------

    Molecular point group: c1
  Charge       = 0
  Multiplicity = 1
  Basis Set: AUG-CC-PVTZ
    Blend: AUG-CC-PVTZ
  Basis Set: (AUG-CC-PVTZ AUX)
    Blend: AUG-CC-PVTZ-JKFIT

    Orbital Energies [Eh]
    ---------------------

    Doubly Occupied:

       1A    -20.563441     2A    -11.309998     3A    -11.227271
       4A    -11.225573     5A    -11.224419     6A    -11.224028
       7A    -11.223695     8A    -11.223337     9A    -11.213427
      10A     -1.363670    11A     -1.098917    12A     -1.061023
      13A     -1.015023    14A     -0.963716    15A     -0.875351
      16A     -0.823685    17A     -0.750915    18A     -0.748727
      19A     -0.680658    20A     -0.639208    21A     -0.626300
      22A     -0.614201    23A     -0.591379    24A     -0.583905
      25A     -0.547670    26A     -0.544790    27A     -0.528029
      28A     -0.519277    29A     -0.501954    30A     -0.489619
      31A     -0.479697    32A     -0.468922    33A     -0.445326
      34A     -0.414834    35A     -0.297783

  @DF-RHF Final Energy:  -386.04319521147914

   => Energetics <=

    Nuclear Repulsion Energy =            417.0668164285364128
    One-Electron Energy =               -1350.0004923805659018
    Two-Electron Energy =                 546.8904807405502879
    Total Energy =                       -386.0431952114792011
  Basis Set: (AUG-CC-PVTZ AUX)
    Blend: AUG-CC-PVTZ-RI
    Molecular point group: c1

    Geometry (in Angstrom), charge = 0, multiplicity = 1:

       Center              X                  Y                   Z               Mass
    ------------   -----------------  -----------------  -----------------  -----------------
         O            2.692706077879    -1.334549722268    -0.027927429893    15.994914619570
         C            2.750296077879     0.025383277732     0.405484570107    12.000000000000
         C            1.360123077879     0.576418277732     0.393892570107    12.000000000000
         C           -3.549760922121     0.362053277732    -0.411655429893    12.000000000000
         C            3.670347077879     0.840929277732    -0.497351429893    12.000000000000
         C            0.269854077879    -0.102531722268    -0.002155429893    12.000000000000
         C           -2.163741922121    -0.200536722268    -0.410545429893    12.000000000000
         C           -1.064084922121     0.469734277732    -0.019102429893    12.000000000000
         C           -4.470838922121    -0.383585722268     0.556900570107    12.000000000000
         H            3.205365177879     0.076593677732     1.626245570107     1.007825032230
         H            1.264961077879     1.611825277732     0.723811570107     1.007825032230
         H           -3.511909922121     1.424825277732    -0.145771429893     1.007825032230
         H           -3.971902922121     0.304964277732    -1.423498429893     1.007825032230
         H            3.305449077879     0.782694277732    -1.525215429893     1.007825032230
         H            3.698494077879     1.889869277732    -0.188586429893     1.007825032230
         H            4.694266077879     0.452650277732    -0.462310429893     1.007825032230
         H            0.383547077879    -1.135081722268    -0.324413429893     1.007825032230
         H           -2.057879922121    -1.238743722268    -0.731889429893     1.007825032230
         H           -1.165363922121     1.507481277732     0.305009570107     1.007825032230
         H           -4.526077922121    -1.445841722268     0.301842570107     1.007825032230
         H           -5.485874922121     0.023123277732     0.529593570107     1.007825032230
         H           -4.094839922121    -0.303053722268     1.580055570107     1.007825032230
         H            3.602300077879    -1.677460722268    -0.005814429893     1.007825032230

  Basis Set: AUG-CC-PVTZ
    Blend: AUG-CC-PVTZ
  Basis Set: (AUG-CC-PVTZ AUX)
    Blend: AUG-CC-PVTZ-JKFIT
	 Reference Energy          =    -386.0431952114791443 [Eh]
	 Singles Energy            =      -0.0000000000000000 [Eh]
	 Same-Spin Energy          =      -0.4006690270103901 [Eh]
	 Opposite-Spin Energy      =      -1.3801483258292395 [Eh]
	 Correlation Energy        =      -1.7808173528396296 [Eh]
	 Total Energy              =    -387.8240125643187639 [Eh]

	 ================> DF-SCS-MP2 Energies <==================
	-----------------------------------------------------------
	 SCS Same-Spin Scale       =       0.3333333333333333 [-]
	 SCS Opposite-Spin Scale   =       1.2000000000000000 [-]
	 SCS Same-Spin Energy      =      -0.1335563423367967 [Eh]
	 SCS Opposite-Spin Energy  =      -1.6561779909950873 [Eh]
	 SCS Correlation Energy    =      -1.7897343333318840 [Eh]
	 SCS Total Energy          =    -387.8329295448110088 [Eh]
	-----------------------------------------------------------

  Dipole Moment: [D]
     X:     1.0721      Y:     0.6768      Z:     0.0932     Total:     1.2713

*** Psi4 exiting successfully. Buy a developer a beer!
