                               Psi4 1.3.2 release

  ==> Input File <==

--------------------------------------------------------------------------
#psi4
#
memory 32 gb

molecule  {
0 1
  O        2.6932640    -1.3344870    -0.0264310
  C        2.7508540     0.0254460     0.4069810
  C        1.3606810     0.5764810     0.3953890
  C       -3.5492030     0.3621160    -0.4101590
  C        3.6709050     0.8409920    -0.4958550
  C        0.2704120    -0.1024690    -0.0006590
  C       -2.1631840    -0.2004740    -0.4090490
  C       -1.0681243     0.4588126    -0.0219277
  C       -4.4702810    -0.3835230     0.5583970
  H        3.1361180     0.0688010     1.4404840
  H        1.2655190     1.6118880     0.7253080
  H       -3.5113520     1.4248880    -0.1442750
  H       -3.9713450     0.3050270    -1.4220020
  H        3.3060070     0.7827570    -1.5237190
  H        3.6990520     1.8899320    -0.1870900
  H        4.6948240     0.4527130    -0.4608140
  H        0.3747618    -1.1355055    -0.3245147
  H       -2.0573220    -1.2386810    -0.7303930
  H       -1.1648060     1.5075440     0.3065060
  H       -4.5255200    -1.4457790     0.3033390
  H       -5.4853170     0.0231860     0.5310900
  H       -4.0942820    -0.3029910     1.5815520
  H        3.6028580    -1.6773980    -0.0043180
units angstrom
no_reorient  #important for SAPT in psi4, default
symmetry c1  #important for SAPT in psi4, default
}

set PROPERTIES_ORIGIN ["COM"]
properties('MP2/aug-cc-pvtz', properties = ['dipole'])
--------------------------------------------------------------------------

    Molecular point group: c1
  Charge       = 0
  Multiplicity = 1
  Basis Set: AUG-CC-PVTZ
    Blend: AUG-CC-PVTZ
  Basis Set: (AUG-CC-PVTZ AUX)
    Blend: AUG-CC-PVTZ-JKFIT

    Orbital Energies [Eh]
    ---------------------

    Doubly Occupied:

       1A    -20.558659     2A    -11.286667     3A    -11.224586
       4A    -11.223866     5A    -11.223276     6A    -11.222527
       7A    -11.221913     8A    -11.220650     9A    -11.212825
      10A     -1.360557    11A     -1.098694    12A     -1.061618
      13A     -1.016306    14A     -0.963522    15A     -0.876707
      16A     -0.829016    17A     -0.751962    18A     -0.747422
      19A     -0.695210    20A     -0.637375    21A     -0.628381
      22A     -0.616678    23A     -0.590388    24A     -0.582801
      25A     -0.546577    26A     -0.543692    27A     -0.526716
      28A     -0.519271    29A     -0.500448    30A     -0.491777
      31A     -0.479070    32A     -0.466904    33A     -0.453028
      34A     -0.419143    35A     -0.299134

  @DF-RHF Final Energy:  -386.06273614621051

   => Energetics <=

    Nuclear Repulsion Energy =            418.0864291420175505
    One-Electron Energy =               -1352.1036000630797389
    Two-Electron Energy =                 547.9544347748517339
    Total Energy =                       -386.0627361462104545
  Basis Set: (AUG-CC-PVTZ AUX)
    Blend: AUG-CC-PVTZ-RI
    Molecular point group: c1

    Geometry (in Angstrom), charge = 0, multiplicity = 1:

       Center              X                  Y                   Z               Mass
    ------------   -----------------  -----------------  -----------------  -----------------
         O            2.693776105320    -1.333437787210    -0.026006848399    15.994914619570
         C            2.751366105320     0.026495212790     0.407405151601    12.000000000000
         C            1.361193105320     0.577530212790     0.395813151601    12.000000000000
         C           -3.548690894680     0.363165212790    -0.409734848399    12.000000000000
         C            3.671417105320     0.842041212790    -0.495430848399    12.000000000000
         C            0.270924105320    -0.101419787210    -0.000234848399    12.000000000000
         C           -2.162671894680    -0.199424787210    -0.408624848399    12.000000000000
         C           -1.067612194680     0.459861812790    -0.021503548399    12.000000000000
         C           -4.469768894680    -0.382473787210     0.558821151601    12.000000000000
         H            3.136630105320     0.069850212790     1.440908151601     1.007825032230
         H            1.266031105320     1.612937212790     0.725732151601     1.007825032230
         H           -3.510839894680     1.425937212790    -0.143850848399     1.007825032230
         H           -3.970832894680     0.306076212790    -1.421577848399     1.007825032230
         H            3.306519105320     0.783806212790    -1.523294848399     1.007825032230
         H            3.699564105320     1.890981212790    -0.186665848399     1.007825032230
         H            4.695336105320     0.453762212790    -0.460389848399     1.007825032230
         H            0.375273905320    -1.134456287210    -0.324090548399     1.007825032230
         H           -2.056809894680    -1.237631787210    -0.729968848399     1.007825032230
         H           -1.164293894680     1.508593212790     0.306930151601     1.007825032230
         H           -4.525007894680    -1.444729787210     0.303763151601     1.007825032230
         H           -5.484804894680     0.024235212790     0.531514151601     1.007825032230
         H           -4.093769894680    -0.301941787210     1.581976151601     1.007825032230
         H            3.603370105320    -1.676348787210    -0.003893848399     1.007825032230

  Basis Set: AUG-CC-PVTZ
    Blend: AUG-CC-PVTZ
  Basis Set: (AUG-CC-PVTZ AUX)
    Blend: AUG-CC-PVTZ-JKFIT
	 Reference Energy          =    -386.0627361462105114 [Eh]
	 Singles Energy            =      -0.0000000000000000 [Eh]
	 Same-Spin Energy          =      -0.4002453660360206 [Eh]
	 Opposite-Spin Energy      =      -1.3780949271126848 [Eh]
	 Correlation Energy        =      -1.7783402931487053 [Eh]
	 Total Energy              =    -387.8410764393591990 [Eh]

	 ================> DF-SCS-MP2 Energies <==================
	-----------------------------------------------------------
	 SCS Same-Spin Scale       =       0.3333333333333333 [-]
	 SCS Opposite-Spin Scale   =       1.2000000000000000 [-]
	 SCS Same-Spin Energy      =      -0.1334151220120068 [Eh]
	 SCS Opposite-Spin Energy  =      -1.6537139125352216 [Eh]
	 SCS Correlation Energy    =      -1.7871290345472284 [Eh]
	 SCS Total Energy          =    -387.8498651807577176 [Eh]
	-----------------------------------------------------------

  Dipole Moment: [D]
     X:     1.2067      Y:     0.7244      Z:     0.3080     Total:     1.4408

*** Psi4 exiting successfully. Buy a developer a beer!
