                               Psi4 1.4a3.dev225

  ==> Input File <==

--------------------------------------------------------------------------
#psi4
#
memory 32 gb

molecule  {
0 1
  O       -2.7161510     1.3794200    -0.1343610
  C       -2.7832390     0.0721360     0.4401970
  C       -1.3979030    -0.4954620     0.4743180
  C        3.5083460    -0.4405980    -0.4123350
  C       -3.7239960    -0.8239440    -0.3625680
  C       -0.3030690     0.1219220    -0.0067100
  C        2.1282810     0.1394430    -0.4544070
  C        1.0082126    -0.4774603     0.0307365
  C        4.4606410     0.4027870     0.4416180
  H       -3.1581590     0.1412460     1.4762970
  H       -1.3112260    -1.4900120     0.9147240
  H        3.4619600    -1.4629760    -0.0187660
  H        3.9104550    -0.5133060    -1.4317100
  H       -3.3684670    -0.8811940    -1.3941910
  H       -3.7626400    -1.8335820     0.0574350
  H       -4.7426360    -0.4191700    -0.3608330
  H       -0.4078810     1.1149080    -0.4388390
  H        2.0311270     1.1370710    -0.8883280
  H        1.1170930    -1.4649260     0.4609700
  H        4.5263310     1.4251690     0.0574090
  H        5.4690900    -0.0219830     0.4454750
  H        4.1044230     0.4539160     1.4740500
  H       -3.6221830     1.7324190    -0.1413340
units angstrom
no_reorient  #important for SAPT in psi4, default
symmetry c1  #important for SAPT in psi4, default
}

set PROPERTIES_ORIGIN ["COM"]
properties('MP2/aug-cc-pvtz', properties = ['dipole'])
--------------------------------------------------------------------------

    Molecular point group: c1
  Charge       = 0
  Multiplicity = 1
  Basis Set: AUG-CC-PVTZ
    Blend: AUG-CC-PVTZ
  Basis Set: (AUG-CC-PVTZ AUX)
    Blend: AUG-CC-PVTZ-JKFIT

    Orbital Energies [Eh]
    ---------------------

    Doubly Occupied:

       1A    -20.558829     2A    -11.286830     3A    -11.229227
       4A    -11.225127     5A    -11.223952     6A    -11.223616
       7A    -11.221991     8A    -11.220862     9A    -11.213221
      10A     -1.360137    11A     -1.096539    12A     -1.060162
      13A     -1.016151    14A     -0.960026    15A     -0.877112
      16A     -0.827682    17A     -0.753492    18A     -0.748387
      19A     -0.695044    20A     -0.636921    21A     -0.627279
      22A     -0.616466    23A     -0.588995    24A     -0.583119
      25A     -0.546413    26A     -0.543746    27A     -0.527519
      28A     -0.517604    29A     -0.501160    30A     -0.493123
      31A     -0.479101    32A     -0.469816    33A     -0.452886
      34A     -0.417711    35A     -0.293573

  @DF-RHF Final Energy:  -386.06066819734900

   => Energetics <=

    Nuclear Repulsion Energy =            417.4343575528134807
    One-Electron Energy =               -1350.8024184791863718
    Two-Electron Energy =                 547.3073927290238316
    Total Energy =                       -386.0606681973490595
  Basis Set: (AUG-CC-PVTZ AUX)
    Blend: AUG-CC-PVTZ-RI
    Molecular point group: c1

    Geometry (in Angstrom), charge = 0, multiplicity = 1:

       Center              X                  Y                   Z               Mass
    ------------   -----------------  -----------------  -----------------  -----------------
         O           -2.681284685165     1.363949695124    -0.133370725729    15.994914619570
         C           -2.748372685165     0.056665695124     0.441187274271    12.000000000000
         C           -1.363036685165    -0.510932304876     0.475308274271    12.000000000000
         C            3.543212314835    -0.456068304876    -0.411344725729    12.000000000000
         C           -3.689129685165    -0.839414304876    -0.361577725729    12.000000000000
         C           -0.268202685165     0.106451695124    -0.005719725729    12.000000000000
         C            2.163147314835     0.123972695124    -0.453416725729    12.000000000000
         C            1.043078914835    -0.492930604876     0.031726774271    12.000000000000
         C            4.495507314835     0.387316695124     0.442608274271    12.000000000000
         H           -3.123292685165     0.125775695124     1.477287274271     1.007825032230
         H           -1.276359685165    -1.505482304876     0.915714274271     1.007825032230
         H            3.496826314835    -1.478446304876    -0.017775725729     1.007825032230
         H            3.945321314835    -0.528776304876    -1.430719725729     1.007825032230
         H           -3.333600685165    -0.896664304876    -1.393200725729     1.007825032230
         H           -3.727773685165    -1.849052304876     0.058425274271     1.007825032230
         H           -4.707769685165    -0.434640304876    -0.359842725729     1.007825032230
         H           -0.373014685165     1.099437695124    -0.437848725729     1.007825032230
         H            2.065993314835     1.121600695124    -0.887337725729     1.007825032230
         H            1.151959314835    -1.480396304876     0.461960274271     1.007825032230
         H            4.561197314835     1.409698695124     0.058399274271     1.007825032230
         H            5.503956314835    -0.037453304876     0.446465274271     1.007825032230
         H            4.139289314835     0.438445695124     1.475040274271     1.007825032230
         H           -3.587316685165     1.716948695124    -0.140343725729     1.007825032230

  Basis Set: AUG-CC-PVTZ
    Blend: AUG-CC-PVTZ
  Basis Set: (AUG-CC-PVTZ AUX)
    Blend: AUG-CC-PVTZ-JKFIT
	 Reference Energy          =    -386.0606681973490026 [Eh]
	 Singles Energy            =      -0.0000000000000000 [Eh]
	 Same-Spin Energy          =      -0.4006519297994136 [Eh]
	 Opposite-Spin Energy      =      -1.3790671134610148 [Eh]
	 Correlation Energy        =      -1.7797190432604284 [Eh]
	 Total Energy              =    -387.8403872406094592 [Eh]

	 ================> DF-SCS-MP2 Energies <==================
	-----------------------------------------------------------
	 SCS Same-Spin Scale       =       0.3333333333333333 [-]
	 SCS Opposite-Spin Scale   =       1.2000000000000000 [-]
	 SCS Same-Spin Energy      =      -0.1335506432664712 [Eh]
	 SCS Opposite-Spin Energy  =      -1.6548805361532177 [Eh]
	 SCS Correlation Energy    =      -1.7884311794196890 [Eh]
	 SCS Total Energy          =    -387.8490993767686632 [Eh]
	-----------------------------------------------------------

  Dipole Moment: [D]
     X:    -1.2084      Y:    -0.6910      Z:     0.3943     Total:     1.4468

*** Psi4 exiting successfully. Buy a developer a beer!
