                               Psi4 1.4a3.dev225

  ==> Input File <==

--------------------------------------------------------------------------
#psi4
#
memory 32 gb

molecule  {
0 1
  O       -2.7161510     1.3794200    -0.1343610
  C       -2.7832390     0.0721360     0.4401970
  C       -1.3979030    -0.4954620     0.4743180
  C        3.5083460    -0.4405980    -0.4123350
  C       -3.7239960    -0.8239440    -0.3625680
  C       -0.3193392     0.1127471     0.0004385
  C        2.1282810     0.1394430    -0.4544070
  C        1.0245920    -0.4684390     0.0236420
  C        4.4606410     0.4027870     0.4416180
  H       -3.1581590     0.1412460     1.4762970
  H       -1.3112260    -1.4900120     0.9147240
  H        3.4619600    -1.4629760    -0.0187660
  H        3.9104550    -0.5133060    -1.4317100
  H       -3.3684670    -0.8811940    -1.3941910
  H       -3.7626400    -1.8335820     0.0574350
  H       -4.7426360    -0.4191700    -0.3608330
  H       -0.4078810     1.1149080    -0.4388390
  H        2.0311270     1.1370710    -0.8883280
  H        1.1170930    -1.4649260     0.4609700
  H        4.5263310     1.4251690     0.0574090
  H        5.4690900    -0.0219830     0.4454750
  H        4.1044230     0.4539160     1.4740500
  H       -3.6221830     1.7324190    -0.1413340
units angstrom
no_reorient  #important for SAPT in psi4, default
symmetry c1  #important for SAPT in psi4, default
}

set PROPERTIES_ORIGIN ["COM"]
properties('MP2/aug-cc-pvtz', properties = ['dipole'])
--------------------------------------------------------------------------

    Molecular point group: c1
  Charge       = 0
  Multiplicity = 1
  Basis Set: AUG-CC-PVTZ
    Blend: AUG-CC-PVTZ
  Basis Set: (AUG-CC-PVTZ AUX)
    Blend: AUG-CC-PVTZ-JKFIT

    Orbital Energies [Eh]
    ---------------------

    Doubly Occupied:

       1A    -20.558754     2A    -11.286942     3A    -11.226711
       4A    -11.224389     5A    -11.223744     6A    -11.222339
       7A    -11.220975     8A    -11.220194     9A    -11.213130
      10A     -1.360136    11A     -1.097219    12A     -1.062130
      13A     -1.014954    14A     -0.963818    15A     -0.875547
      16A     -0.829192    17A     -0.752359    18A     -0.746346
      19A     -0.694512    20A     -0.636818    21A     -0.627852
      22A     -0.616520    23A     -0.590091    24A     -0.582927
      25A     -0.546352    26A     -0.543814    27A     -0.527475
      28A     -0.518504    29A     -0.499273    30A     -0.492589
      31A     -0.479289    32A     -0.465343    33A     -0.453165
      34A     -0.418121    35A     -0.300975

  @DF-RHF Final Energy:  -386.06280532122145

   => Energetics <=

    Nuclear Repulsion Energy =            417.6254080634373622
    One-Electron Energy =               -1351.1914346991836737
    Two-Electron Energy =                 547.5032213145248079
    Total Energy =                       -386.0628053212215036
  Basis Set: (AUG-CC-PVTZ AUX)
    Blend: AUG-CC-PVTZ-RI
    Molecular point group: c1

    Geometry (in Angstrom), charge = 0, multiplicity = 1:

       Center              X                  Y                   Z               Mass
    ------------   -----------------  -----------------  -----------------  -----------------
         O           -2.681295076550     1.363964311577    -0.133375864326    15.994914619570
         C           -2.748383076550     0.056680311577     0.441182135674    12.000000000000
         C           -1.363047076550    -0.510917688423     0.475303135674    12.000000000000
         C            3.543201923450    -0.456053688423    -0.411349864326    12.000000000000
         C           -3.689140076550    -0.839399688423    -0.361582864326    12.000000000000
         C           -0.284483276550     0.097291411577     0.001423635674    12.000000000000
         C            2.163136923450     0.123987311577    -0.453421864326    12.000000000000
         C            1.059447923450    -0.483894688423     0.024627135674    12.000000000000
         C            4.495496923450     0.387331311577     0.442603135674    12.000000000000
         H           -3.123303076550     0.125790311577     1.477282135674     1.007825032230
         H           -1.276370076550    -1.505467688423     0.915709135674     1.007825032230
         H            3.496815923450    -1.478431688423    -0.017780864326     1.007825032230
         H            3.945310923450    -0.528761688423    -1.430724864326     1.007825032230
         H           -3.333611076550    -0.896649688423    -1.393205864326     1.007825032230
         H           -3.727784076550    -1.849037688423     0.058420135674     1.007825032230
         H           -4.707780076550    -0.434625688423    -0.359847864326     1.007825032230
         H           -0.373025076550     1.099452311577    -0.437853864326     1.007825032230
         H            2.065982923450     1.121615311577    -0.887342864326     1.007825032230
         H            1.151948923450    -1.480381688423     0.461955135674     1.007825032230
         H            4.561186923450     1.409713311577     0.058394135674     1.007825032230
         H            5.503945923450    -0.037438688423     0.446460135674     1.007825032230
         H            4.139278923450     0.438460311577     1.475035135674     1.007825032230
         H           -3.587327076550     1.716963311577    -0.140348864326     1.007825032230

  Basis Set: AUG-CC-PVTZ
    Blend: AUG-CC-PVTZ
  Basis Set: (AUG-CC-PVTZ AUX)
    Blend: AUG-CC-PVTZ-JKFIT
	 Reference Energy          =    -386.0628053212214468 [Eh]
	 Singles Energy            =      -0.0000000000000000 [Eh]
	 Same-Spin Energy          =      -0.3999422374064217 [Eh]
	 Opposite-Spin Energy      =      -1.3778307223573938 [Eh]
	 Correlation Energy        =      -1.7777729597638154 [Eh]
	 Total Energy              =    -387.8405782809852553 [Eh]

	 ================> DF-SCS-MP2 Energies <==================
	-----------------------------------------------------------
	 SCS Same-Spin Scale       =       0.3333333333333333 [-]
	 SCS Opposite-Spin Scale   =       1.2000000000000000 [-]
	 SCS Same-Spin Energy      =      -0.1333140791354739 [Eh]
	 SCS Opposite-Spin Energy  =      -1.6533968668288725 [Eh]
	 SCS Correlation Energy    =      -1.7867109459643464 [Eh]
	 SCS Total Energy          =    -387.8495162671857770 [Eh]
	-----------------------------------------------------------

  Dipole Moment: [D]
     X:    -1.2123      Y:    -0.6862      Z:     0.3925     Total:     1.4473

*** Psi4 exiting successfully. Buy a developer a beer!
