                               Psi4 1.3.2 release

  ==> Input File <==

--------------------------------------------------------------------------
#psi4
#
memory 32 gb

molecule  {
0 1
  O        2.6932640    -1.3344870    -0.0264310
  C        2.7757292     0.0943456     0.4346174
  C        1.3606810     0.5764810     0.3953890
  C       -3.5492030     0.3621160    -0.4101590
  C        3.6709050     0.8409920    -0.4958550
  C        0.2319127    -0.0453218     0.0136076
  C       -2.1631840    -0.2004740    -0.4090490
  C       -1.0635270     0.4697970    -0.0176060
  C       -4.4702810    -0.3835230     0.5583970
  H        3.1361180     0.0688010     1.4404840
  H        1.2655190     1.6118880     0.7253080
  H       -3.5113520     1.4248880    -0.1442750
  H       -3.9713450     0.3050270    -1.4220020
  H        3.3060070     0.7827570    -1.5237190
  H        3.6990520     1.8899320    -0.1870900
  H        4.6948240     0.4527130    -0.4608140
  H        0.3841050    -1.1350190    -0.3229170
  H       -2.0573220    -1.2386810    -0.7303930
  H       -1.1648060     1.5075440     0.3065060
  H       -4.5255200    -1.4457790     0.3033390
  H       -5.4853170     0.0231860     0.5310900
  H       -4.0942820    -0.3029910     1.5815520
  H        3.6028580    -1.6773980    -0.0043180
units angstrom
no_reorient  #important for SAPT in psi4, default
symmetry c1  #important for SAPT in psi4, default
}

set PROPERTIES_ORIGIN ["COM"]
properties('MP2/aug-cc-pvtz', properties = ['dipole'])
--------------------------------------------------------------------------

    Molecular point group: c1
  Charge       = 0
  Multiplicity = 1
  Basis Set: AUG-CC-PVTZ
    Blend: AUG-CC-PVTZ
  Basis Set: (AUG-CC-PVTZ AUX)
    Blend: AUG-CC-PVTZ-JKFIT

    Orbital Energies [Eh]
    ---------------------

    Doubly Occupied:

       1A    -20.549656     2A    -11.288536     3A    -11.229549
       4A    -11.225818     5A    -11.224890     6A    -11.223488
       7A    -11.222676     8A    -11.220613     9A    -11.214068
      10A     -1.332675    11A     -1.104300    12A     -1.064873
      13A     -1.026249    14A     -0.965250    15A     -0.882179
      16A     -0.831221    17A     -0.759842    18A     -0.736948
      19A     -0.689303    20A     -0.636439    21A     -0.630170
      22A     -0.611958    23A     -0.591971    24A     -0.580855
      25A     -0.551137    26A     -0.543902    27A     -0.519840
      28A     -0.518043    29A     -0.496547    30A     -0.484276
      31A     -0.480901    32A     -0.467207    33A     -0.455950
      34A     -0.429018    35A     -0.296131

  @DF-RHF Final Energy:  -386.04768500715159

   => Energetics <=

    Nuclear Repulsion Energy =            417.6216683923951791
    One-Electron Energy =               -1351.1657493860302566
    Two-Electron Energy =                 547.4963959864835488
    Total Energy =                       -386.0476850071515855
  Basis Set: (AUG-CC-PVTZ AUX)
    Blend: AUG-CC-PVTZ-RI
    Molecular point group: c1

    Geometry (in Angstrom), charge = 0, multiplicity = 1:

       Center              X                  Y                   Z               Mass
    ------------   -----------------  -----------------  -----------------  -----------------
         O            2.694560417668    -1.346481454664    -0.030418322661    15.994914619570
         C            2.777025617668     0.082351145336     0.430630077339    12.000000000000
         C            1.361977417668     0.564486545336     0.391401677339    12.000000000000
         C           -3.547906582332     0.350121545336    -0.414146322661    12.000000000000
         C            3.672201417668     0.828997545336    -0.499842322661    12.000000000000
         C            0.233209117668    -0.057316254664     0.009620277339    12.000000000000
         C           -2.161887582332    -0.212468454664    -0.413036322661    12.000000000000
         C           -1.062230582332     0.457802545336    -0.021593322661    12.000000000000
         C           -4.468984582332    -0.395517454664     0.554409677339    12.000000000000
         H            3.137414417668     0.056806545336     1.436496677339     1.007825032230
         H            1.266815417668     1.599893545336     0.721320677339     1.007825032230
         H           -3.510055582332     1.412893545336    -0.148262322661     1.007825032230
         H           -3.970048582332     0.293032545336    -1.425989322661     1.007825032230
         H            3.307303417668     0.770762545336    -1.527706322661     1.007825032230
         H            3.700348417668     1.877937545336    -0.191077322661     1.007825032230
         H            4.696120417668     0.440718545336    -0.464801322661     1.007825032230
         H            0.385401417668    -1.147013454664    -0.326904322661     1.007825032230
         H           -2.056025582332    -1.250675454664    -0.734380322661     1.007825032230
         H           -1.163509582332     1.495549545336     0.302518677339     1.007825032230
         H           -4.524223582332    -1.457773454664     0.299351677339     1.007825032230
         H           -5.484020582332     0.011191545336     0.527102677339     1.007825032230
         H           -4.092985582332    -0.314985454664     1.577564677339     1.007825032230
         H            3.604154417668    -1.689392454664    -0.008305322661     1.007825032230

  Basis Set: AUG-CC-PVTZ
    Blend: AUG-CC-PVTZ
  Basis Set: (AUG-CC-PVTZ AUX)
    Blend: AUG-CC-PVTZ-JKFIT
	 Reference Energy          =    -386.0476850071515855 [Eh]
	 Singles Energy            =      -0.0000000000000000 [Eh]
	 Same-Spin Energy          =      -0.4017825964216397 [Eh]
	 Opposite-Spin Energy      =      -1.3813224196318299 [Eh]
	 Correlation Energy        =      -1.7831050160534696 [Eh]
	 Total Energy              =    -387.8307900232050542 [Eh]

	 ================> DF-SCS-MP2 Energies <==================
	-----------------------------------------------------------
	 SCS Same-Spin Scale       =       0.3333333333333333 [-]
	 SCS Opposite-Spin Scale   =       1.2000000000000000 [-]
	 SCS Same-Spin Energy      =      -0.1339275321405465 [Eh]
	 SCS Opposite-Spin Energy  =      -1.6575869035581958 [Eh]
	 SCS Correlation Energy    =      -1.7915144356987422 [Eh]
	 SCS Total Energy          =    -387.8391994428503153 [Eh]
	-----------------------------------------------------------

  Dipole Moment: [D]
     X:     1.1376      Y:     0.9640      Z:     0.3375     Total:     1.5289

*** Psi4 exiting successfully. Buy a developer a beer!
