                               Psi4 1.3.2 release

  ==> Input File <==

--------------------------------------------------------------------------
#psi4
#
memory 32 gb

molecule  {
0 1
  O        2.6932640    -1.3344870    -0.0264310
  C        2.7508540     0.0254460     0.4069810
  C        1.3606810     0.5764810     0.3953890
  C       -3.5492030     0.3621160    -0.4101590
  C        3.6709050     0.8409920    -0.4958550
  C        0.2704120    -0.1024690    -0.0006590
  C       -2.1450653    -0.1533866    -0.3956099
  C       -1.0635270     0.4697970    -0.0176060
  C       -4.4702810    -0.3835230     0.5583970
  H        3.1361180     0.0688010     1.4404840
  H        1.2655190     1.6118880     0.7253080
  H       -3.4733241     1.4220595    -0.1411358
  H       -3.9713450     0.3050270    -1.4220020
  H        3.3060070     0.7827570    -1.5237190
  H        3.6990520     1.8899320    -0.1870900
  H        4.6948240     0.4527130    -0.4608140
  H        0.3841050    -1.1350190    -0.3229170
  H       -2.0573220    -1.2386810    -0.7303930
  H       -1.1648060     1.5075440     0.3065060
  H       -4.5255200    -1.4457790     0.3033390
  H       -5.4853170     0.0231860     0.5310900
  H       -4.0942820    -0.3029910     1.5815520
  H        3.6028580    -1.6773980    -0.0043180
units angstrom
no_reorient  #important for SAPT in psi4, default
symmetry c1  #important for SAPT in psi4, default
}

set PROPERTIES_ORIGIN ["COM"]
properties('MP2/aug-cc-pvtz', properties = ['dipole'])
--------------------------------------------------------------------------

    Molecular point group: c1
  Charge       = 0
  Multiplicity = 1
  Basis Set: AUG-CC-PVTZ
    Blend: AUG-CC-PVTZ
  Basis Set: (AUG-CC-PVTZ AUX)
    Blend: AUG-CC-PVTZ-JKFIT

    Orbital Energies [Eh]
    ---------------------

    Doubly Occupied:

       1A    -20.558855     2A    -11.286780     3A    -11.224002
       4A    -11.223861     5A    -11.223072     6A    -11.222359
       7A    -11.220802     8A    -11.217246     9A    -11.213793
      10A     -1.360772    11A     -1.102206    12A     -1.062064
      13A     -1.017405    14A     -0.966633    15A     -0.876890
      16A     -0.831677    17A     -0.749554    18A     -0.743415
      19A     -0.695653    20A     -0.636709    21A     -0.629926
      22A     -0.616925    23A     -0.591260    24A     -0.583920
      25A     -0.546467    26A     -0.541941    27A     -0.525470
      28A     -0.522281    29A     -0.501921    30A     -0.492653
      31A     -0.477990    32A     -0.459381    33A     -0.453413
      34A     -0.422664    35A     -0.303508

  @DF-RHF Final Energy:  -386.05987195245865

   => Energetics <=

    Nuclear Repulsion Energy =            418.5316609378861585
    One-Electron Energy =               -1352.9761334112629356
    Two-Electron Energy =                 548.3846005209180703
    Total Energy =                       -386.0598719524587068
  Basis Set: (AUG-CC-PVTZ AUX)
    Blend: AUG-CC-PVTZ-RI
    Molecular point group: c1

    Geometry (in Angstrom), charge = 0, multiplicity = 1:

       Center              X                  Y                   Z               Mass
    ------------   -----------------  -----------------  -----------------  -----------------
         O            2.691235879799    -1.338945136005    -0.027734809151    15.994914619570
         C            2.748825879799     0.020987863995     0.405677190849    12.000000000000
         C            1.358652879799     0.572022863995     0.394085190849    12.000000000000
         C           -3.551231120201     0.357657863995    -0.411462809151    12.000000000000
         C            3.668876879799     0.836533863995    -0.497158809151    12.000000000000
         C            0.268383879799    -0.106927136005    -0.001962809151    12.000000000000
         C           -2.147093420201    -0.157844736005    -0.396913709151    12.000000000000
         C           -1.065555120201     0.465338863995    -0.018909809151    12.000000000000
         C           -4.472309120201    -0.387981136005     0.557093190849    12.000000000000
         H            3.134089879799     0.064342863995     1.439180190849     1.007825032230
         H            1.263490879799     1.607429863995     0.724004190849     1.007825032230
         H           -3.475352220201     1.417601363995    -0.142439609151     1.007825032230
         H           -3.973373120201     0.300568863995    -1.423305809151     1.007825032230
         H            3.303978879799     0.778298863995    -1.525022809151     1.007825032230
         H            3.697023879799     1.885473863995    -0.188393809151     1.007825032230
         H            4.692795879799     0.448254863995    -0.462117809151     1.007825032230
         H            0.382076879799    -1.139477136005    -0.324220809151     1.007825032230
         H           -2.059350120201    -1.243139136005    -0.731696809151     1.007825032230
         H           -1.166834120201     1.503085863995     0.305202190849     1.007825032230
         H           -4.527548120201    -1.450237136005     0.302035190849     1.007825032230
         H           -5.487345120201     0.018727863995     0.529786190849     1.007825032230
         H           -4.096310120201    -0.307449136005     1.580248190849     1.007825032230
         H            3.600829879799    -1.681856136005    -0.005621809151     1.007825032230

  Basis Set: AUG-CC-PVTZ
    Blend: AUG-CC-PVTZ
  Basis Set: (AUG-CC-PVTZ AUX)
    Blend: AUG-CC-PVTZ-JKFIT
	 Reference Energy          =    -386.0598719524586500 [Eh]
	 Singles Energy            =      -0.0000000000000000 [Eh]
	 Same-Spin Energy          =      -0.4000664409972596 [Eh]
	 Opposite-Spin Energy      =      -1.3776281175536336 [Eh]
	 Correlation Energy        =      -1.7776945585508932 [Eh]
	 Total Energy              =    -387.8375665110095269 [Eh]

	 ================> DF-SCS-MP2 Energies <==================
	-----------------------------------------------------------
	 SCS Same-Spin Scale       =       0.3333333333333333 [-]
	 SCS Opposite-Spin Scale   =       1.2000000000000000 [-]
	 SCS Same-Spin Energy      =      -0.1333554803324199 [Eh]
	 SCS Opposite-Spin Energy  =      -1.6531537410643602 [Eh]
	 SCS Correlation Energy    =      -1.7865092213967801 [Eh]
	 SCS Total Energy          =    -387.8463811738554341 [Eh]
	-----------------------------------------------------------

  Dipole Moment: [D]
     X:     1.2095      Y:     0.7437      Z:     0.3307     Total:     1.4579

*** Psi4 exiting successfully. Buy a developer a beer!
