                               Psi4 1.3.2 release

  ==> Input File <==

--------------------------------------------------------------------------
#psi4
#
memory 32 gb

molecule  {
0 1
  O        2.6932640    -1.3344870    -0.0264310
  C        2.7508540     0.0254460     0.4069810
  C        1.3606810     0.5764810     0.3953890
  C       -3.5492030     0.3621160    -0.4101590
  C        3.6709050     0.8409920    -0.4958550
  C        0.2704120    -0.1024690    -0.0006590
  C       -2.1631840    -0.2004740    -0.4090490
  C       -1.0635270     0.4697970    -0.0176060
  C       -4.4702810    -0.3835230     0.5583970
  H        3.0663129     0.0609456     1.2532260
  H        1.2655190     1.6118880     0.7253080
  H       -3.5113520     1.4248880    -0.1442750
  H       -3.9713450     0.3050270    -1.4220020
  H        3.3060070     0.7827570    -1.5237190
  H        3.6990520     1.8899320    -0.1870900
  H        4.6948240     0.4527130    -0.4608140
  H        0.3841050    -1.1350190    -0.3229170
  H       -2.0573220    -1.2386810    -0.7303930
  H       -1.1648060     1.5075440     0.3065060
  H       -4.5255200    -1.4457790     0.3033390
  H       -5.4853170     0.0231860     0.5310900
  H       -4.0942820    -0.3029910     1.5815520
  H        3.6028580    -1.6773980    -0.0043180
units angstrom
no_reorient  #important for SAPT in psi4, default
symmetry c1  #important for SAPT in psi4, default
}

set PROPERTIES_ORIGIN ["COM"]
properties('MP2/aug-cc-pvtz', properties = ['dipole'])
--------------------------------------------------------------------------

    Molecular point group: c1
  Charge       = 0
  Multiplicity = 1
  Basis Set: AUG-CC-PVTZ
    Blend: AUG-CC-PVTZ
  Basis Set: (AUG-CC-PVTZ AUX)
    Blend: AUG-CC-PVTZ-JKFIT

    Orbital Energies [Eh]
    ---------------------

    Doubly Occupied:

       1A    -20.555787     2A    -11.260669     3A    -11.225423
       4A    -11.223011     5A    -11.222812     6A    -11.222216
       7A    -11.220702     8A    -11.218907     9A    -11.212568
      10A     -1.359670    11A     -1.098079    12A     -1.065095
      13A     -1.020641    14A     -0.962196    15A     -0.883580
      16A     -0.839861    17A     -0.760502    18A     -0.747702
      19A     -0.711739    20A     -0.636529    21A     -0.630427
      22A     -0.617165    23A     -0.589327    24A     -0.582265
      25A     -0.546467    26A     -0.543331    27A     -0.527865
      28A     -0.518730    29A     -0.500290    30A     -0.496851
      31A     -0.479088    32A     -0.468360    33A     -0.456667
      34A     -0.419592    35A     -0.297668

  @DF-RHF Final Energy:  -386.03199723415150

   => Energetics <=

    Nuclear Repulsion Energy =            419.1603361381136779
    One-Electron Energy =               -1354.1411012794053477
    Two-Electron Energy =                 548.9487679071401089
    Total Energy =                       -386.0319972341515040
  Basis Set: (AUG-CC-PVTZ AUX)
    Blend: AUG-CC-PVTZ-RI
    Molecular point group: c1

    Geometry (in Angstrom), charge = 0, multiplicity = 1:

       Center              X                  Y                   Z               Mass
    ------------   -----------------  -----------------  -----------------  -----------------
         O            2.693821840546    -1.334424161785    -0.024934303523    15.994914619570
         C            2.751411840546     0.025508838215     0.408477696477    12.000000000000
         C            1.361238840546     0.576543838215     0.396885696477    12.000000000000
         C           -3.548645159454     0.362178838215    -0.408662303523    12.000000000000
         C            3.671462840546     0.841054838215    -0.494358303523    12.000000000000
         C            0.270969840546    -0.102406161785     0.000837696477    12.000000000000
         C           -2.162626159454    -0.200411161785    -0.407552303523    12.000000000000
         C           -1.062969159454     0.469859838215    -0.016109303523    12.000000000000
         C           -4.469723159454    -0.383460161785     0.559893696477    12.000000000000
         H            3.066870740546     0.061008438215     1.254722696477     1.007825032230
         H            1.266076840546     1.611950838215     0.726804696477     1.007825032230
         H           -3.510794159454     1.424950838215    -0.142778303523     1.007825032230
         H           -3.970787159454     0.305089838215    -1.420505303523     1.007825032230
         H            3.306564840546     0.782819838215    -1.522222303523     1.007825032230
         H            3.699609840546     1.889994838215    -0.185593303523     1.007825032230
         H            4.695381840546     0.452775838215    -0.459317303523     1.007825032230
         H            0.384662840546    -1.134956161785    -0.321420303523     1.007825032230
         H           -2.056764159454    -1.238618161785    -0.728896303523     1.007825032230
         H           -1.164248159454     1.507606838215     0.308002696477     1.007825032230
         H           -4.524962159454    -1.445716161785     0.304835696477     1.007825032230
         H           -5.484759159454     0.023248838215     0.532586696477     1.007825032230
         H           -4.093724159454    -0.302928161785     1.583048696477     1.007825032230
         H            3.603415840546    -1.677335161785    -0.002821303523     1.007825032230

  Basis Set: AUG-CC-PVTZ
    Blend: AUG-CC-PVTZ
  Basis Set: (AUG-CC-PVTZ AUX)
    Blend: AUG-CC-PVTZ-JKFIT
	 Reference Energy          =    -386.0319972341515040 [Eh]
	 Singles Energy            =      -0.0000000000000000 [Eh]
	 Same-Spin Energy          =      -0.4002031743352746 [Eh]
	 Opposite-Spin Energy      =      -1.3774568119012076 [Eh]
	 Correlation Energy        =      -1.7776599862364821 [Eh]
	 Total Energy              =    -387.8096572203879759 [Eh]

	 ================> DF-SCS-MP2 Energies <==================
	-----------------------------------------------------------
	 SCS Same-Spin Scale       =       0.3333333333333333 [-]
	 SCS Opposite-Spin Scale   =       1.2000000000000000 [-]
	 SCS Same-Spin Energy      =      -0.1334010581117582 [Eh]
	 SCS Opposite-Spin Energy  =      -1.6529481742814491 [Eh]
	 SCS Correlation Energy    =      -1.7863492323932073 [Eh]
	 SCS Total Energy          =    -387.8183464665447104 [Eh]
	-----------------------------------------------------------

  Dipole Moment: [D]
     X:     1.2574      Y:     0.7689      Z:     0.4090     Total:     1.5296

*** Psi4 exiting successfully. Buy a developer a beer!
