                               Psi4 1.3.2 release

  ==> Input File <==

--------------------------------------------------------------------------
#psi4
#
memory 32 gb

molecule  {
0 1
  O        2.6932640    -1.3344870    -0.0264310
  C        2.7014591     0.0285525     0.4009289
  C        1.3606810     0.5764810     0.3953890
  C       -3.5492030     0.3621160    -0.4101590
  C        3.6709050     0.8409920    -0.4958550
  C        0.2704120    -0.1024690    -0.0006590
  C       -2.1631840    -0.2004740    -0.4090490
  C       -1.0635270     0.4697970    -0.0176060
  C       -4.4702810    -0.3835230     0.5583970
  H        3.1361180     0.0688010     1.4404840
  H        1.2655190     1.6118880     0.7253080
  H       -3.5113520     1.4248880    -0.1442750
  H       -3.9713450     0.3050270    -1.4220020
  H        3.3060070     0.7827570    -1.5237190
  H        3.6990520     1.8899320    -0.1870900
  H        4.6948240     0.4527130    -0.4608140
  H        0.3841050    -1.1350190    -0.3229170
  H       -2.0573220    -1.2386810    -0.7303930
  H       -1.1648060     1.5075440     0.3065060
  H       -4.5255200    -1.4457790     0.3033390
  H       -5.4853170     0.0231860     0.5310900
  H       -4.0942820    -0.3029910     1.5815520
  H        3.5912138    -1.7073155    -0.0153283
units angstrom
no_reorient  #important for SAPT in psi4, default
symmetry c1  #important for SAPT in psi4, default
}

set PROPERTIES_ORIGIN ["COM"]
properties('MP2/aug-cc-pvtz', properties = ['dipole'])
--------------------------------------------------------------------------

    Molecular point group: c1
  Charge       = 0
  Multiplicity = 1
  Basis Set: AUG-CC-PVTZ
    Blend: AUG-CC-PVTZ
  Basis Set: (AUG-CC-PVTZ AUX)
    Blend: AUG-CC-PVTZ-JKFIT

    Orbital Energies [Eh]
    ---------------------

    Doubly Occupied:

       1A    -20.556220     2A    -11.287593     3A    -11.226653
       4A    -11.224215     5A    -11.223699     6A    -11.223360
       7A    -11.221191     8A    -11.220504     9A    -11.213189
      10A     -1.357695    11A     -1.100323    12A     -1.064939
      13A     -1.014351    14A     -0.961897    15A     -0.880043
      16A     -0.828977    17A     -0.752543    18A     -0.751407
      19A     -0.692077    20A     -0.640594    21A     -0.627772
      22A     -0.612892    23A     -0.590808    24A     -0.584079
      25A     -0.545211    26A     -0.540839    27A     -0.529884
      28A     -0.519491    29A     -0.503853    30A     -0.489847
      31A     -0.479923    32A     -0.471563    33A     -0.449656
      34A     -0.415432    35A     -0.296997

  @DF-RHF Final Energy:  -386.05957526102770

   => Energetics <=

    Nuclear Repulsion Energy =            418.4101530012015360
    One-Electron Energy =               -1352.7400225720932667
    Two-Electron Energy =                 548.2702943098640844
    Total Energy =                       -386.0595752610277032
  Basis Set: (AUG-CC-PVTZ AUX)
    Blend: AUG-CC-PVTZ-RI
    Molecular point group: c1

    Geometry (in Angstrom), charge = 0, multiplicity = 1:

       Center              X                  Y                   Z               Mass
    ------------   -----------------  -----------------  -----------------  -----------------
         O            2.698057398651    -1.334543453860    -0.025766959558    15.994914619570
         C            2.706252498651     0.028496046140     0.401592940442    12.000000000000
         C            1.365474398651     0.576424546140     0.396053040442    12.000000000000
         C           -3.544409601349     0.362059546140    -0.409494959558    12.000000000000
         C            3.675698398651     0.840935546140    -0.495190959558    12.000000000000
         C            0.275205398651    -0.102525453860     0.000005040442    12.000000000000
         C           -2.158390601349    -0.200530453860    -0.408384959558    12.000000000000
         C           -1.058733601349     0.469740546140    -0.016941959558    12.000000000000
         C           -4.465487601349    -0.383579453860     0.559061040442    12.000000000000
         H            3.140911398651     0.068744546140     1.441148040442     1.007825032230
         H            1.270312398651     1.611831546140     0.725972040442     1.007825032230
         H           -3.506558601349     1.424831546140    -0.143610959558     1.007825032230
         H           -3.966551601349     0.304970546140    -1.421337959558     1.007825032230
         H            3.310800398651     0.782700546140    -1.523054959558     1.007825032230
         H            3.703845398651     1.889875546140    -0.186425959558     1.007825032230
         H            4.699617398651     0.452656546140    -0.460149959558     1.007825032230
         H            0.388898398651    -1.135075453860    -0.322252959558     1.007825032230
         H           -2.052528601349    -1.238737453860    -0.729728959558     1.007825032230
         H           -1.160012601349     1.507487546140     0.307170040442     1.007825032230
         H           -4.520726601349    -1.445835453860     0.304003040442     1.007825032230
         H           -5.480523601349     0.023129546140     0.531754040442     1.007825032230
         H           -4.089488601349    -0.303047453860     1.582216040442     1.007825032230
         H            3.596007198651    -1.707371953860    -0.014664259558     1.007825032230

  Basis Set: AUG-CC-PVTZ
    Blend: AUG-CC-PVTZ
  Basis Set: (AUG-CC-PVTZ AUX)
    Blend: AUG-CC-PVTZ-JKFIT
	 Reference Energy          =    -386.0595752610277032 [Eh]
	 Singles Energy            =      -0.0000000000000000 [Eh]
	 Same-Spin Energy          =      -0.4006097648679918 [Eh]
	 Opposite-Spin Energy      =      -1.3783521494271027 [Eh]
	 Correlation Energy        =      -1.7789619142950945 [Eh]
	 Total Energy              =    -387.8385371753228128 [Eh]

	 ================> DF-SCS-MP2 Energies <==================
	-----------------------------------------------------------
	 SCS Same-Spin Scale       =       0.3333333333333333 [-]
	 SCS Opposite-Spin Scale   =       1.2000000000000000 [-]
	 SCS Same-Spin Energy      =      -0.1335365882893306 [Eh]
	 SCS Opposite-Spin Energy  =      -1.6540225793125232 [Eh]
	 SCS Correlation Energy    =      -1.7875591676018538 [Eh]
	 SCS Total Energy          =    -387.8471344286295448 [Eh]
	-----------------------------------------------------------

  Dipole Moment: [D]
     X:     1.1164      Y:     0.6906      Z:     0.2987     Total:     1.3462

*** Psi4 exiting successfully. Buy a developer a beer!
