                               Psi4 1.4a3.dev225

  ==> Input File <==

--------------------------------------------------------------------------
#psi4
#
memory 32 gb

molecule  {
0 1
  O       -2.7161510     1.3794200    -0.1343610
  C       -2.7832390     0.0721360     0.4401970
  C       -1.3979030    -0.4954620     0.4743180
  C        3.5083460    -0.4405980    -0.4123350
  C       -3.7239960    -0.8239440    -0.3625680
  C       -0.3030690     0.1219220    -0.0067100
  C        2.1282810     0.1394430    -0.4544070
  C        0.9789151    -0.4481282     0.0225978
  C        4.4606410     0.4027870     0.4416180
  H       -3.1581590     0.1412460     1.4762970
  H       -1.3112260    -1.4900120     0.9147240
  H        3.4619600    -1.4629760    -0.0187660
  H        3.9104550    -0.5133060    -1.4317100
  H       -3.3684670    -0.8811940    -1.3941910
  H       -3.7626400    -1.8335820     0.0574350
  H       -4.7426360    -0.4191700    -0.3608330
  H       -0.4078810     1.1149080    -0.4388390
  H        2.0311270     1.1370710    -0.8883280
  H        1.1170930    -1.4649260     0.4609700
  H        4.5263310     1.4251690     0.0574090
  H        5.4690900    -0.0219830     0.4454750
  H        4.1044230     0.4539160     1.4740500
  H       -3.6221830     1.7324190    -0.1413340
units angstrom
no_reorient  #important for SAPT in psi4, default
symmetry c1  #important for SAPT in psi4, default
}

set PROPERTIES_ORIGIN ["COM"]
properties('MP2/aug-cc-pvtz', properties = ['dipole'])
--------------------------------------------------------------------------

    Molecular point group: c1
  Charge       = 0
  Multiplicity = 1
  Basis Set: AUG-CC-PVTZ
    Blend: AUG-CC-PVTZ
  Basis Set: (AUG-CC-PVTZ AUX)
    Blend: AUG-CC-PVTZ-JKFIT

    Orbital Energies [Eh]
    ---------------------

    Doubly Occupied:

       1A    -20.559132     2A    -11.287340     3A    -11.230481
       4A    -11.226116     5A    -11.225225     6A    -11.224414
       7A    -11.221236     8A    -11.220075     9A    -11.213689
      10A     -1.360475    11A     -1.099579    12A     -1.060383
      13A     -1.018899    14A     -0.959263    15A     -0.880068
      16A     -0.827908    17A     -0.754086    18A     -0.746914
      19A     -0.695075    20A     -0.637454    21A     -0.629524
      22A     -0.616542    23A     -0.588062    24A     -0.585173
      25A     -0.546700    26A     -0.543802    27A     -0.524401
      28A     -0.518033    29A     -0.499611    30A     -0.491516
      31A     -0.476876    32A     -0.473892    33A     -0.453770
      34A     -0.421996    35A     -0.289915

  @DF-RHF Final Energy:  -386.05660409700511

   => Energetics <=

    Nuclear Repulsion Energy =            417.7501061631161292
    One-Electron Energy =               -1351.3981663259928609
    Two-Electron Energy =                 547.5914560658716255
    Total Energy =                       -386.0566040970051063
  Basis Set: (AUG-CC-PVTZ AUX)
    Blend: AUG-CC-PVTZ-RI
    Molecular point group: c1

    Geometry (in Angstrom), charge = 0, multiplicity = 1:

       Center              X                  Y                   Z               Mass
    ------------   -----------------  -----------------  -----------------  -----------------
         O           -2.678496758506     1.361158475956    -0.132596253549    15.994914619570
         C           -2.745584758506     0.053874475956     0.441961746451    12.000000000000
         C           -1.360248758506    -0.513723524044     0.476082746451    12.000000000000
         C            3.546000241494    -0.458859524044    -0.410570253549    12.000000000000
         C           -3.686341758506    -0.842205524044    -0.360803253549    12.000000000000
         C           -0.265414758506     0.103660475956    -0.004945253549    12.000000000000
         C            2.165935241494     0.121181475956    -0.452642253549    12.000000000000
         C            1.016569341494    -0.466389724044     0.024362546451    12.000000000000
         C            4.498295241494     0.384525475956     0.443382746451    12.000000000000
         H           -3.120504758506     0.122984475956     1.478061746451     1.007825032230
         H           -1.273571758506    -1.508273524044     0.916488746451     1.007825032230
         H            3.499614241494    -1.481237524044    -0.017001253549     1.007825032230
         H            3.948109241494    -0.531567524044    -1.429945253549     1.007825032230
         H           -3.330812758506    -0.899455524044    -1.392426253549     1.007825032230
         H           -3.724985758506    -1.851843524044     0.059199746451     1.007825032230
         H           -4.704981758506    -0.437431524044    -0.359068253549     1.007825032230
         H           -0.370226758506     1.096646475956    -0.437074253549     1.007825032230
         H            2.068781241494     1.118809475956    -0.886563253549     1.007825032230
         H            1.154747241494    -1.483187524044     0.462734746451     1.007825032230
         H            4.563985241494     1.406907475956     0.059173746451     1.007825032230
         H            5.506744241494    -0.040244524044     0.447239746451     1.007825032230
         H            4.142077241494     0.435654475956     1.475814746451     1.007825032230
         H           -3.584528758506     1.714157475956    -0.139569253549     1.007825032230

  Basis Set: AUG-CC-PVTZ
    Blend: AUG-CC-PVTZ
  Basis Set: (AUG-CC-PVTZ AUX)
    Blend: AUG-CC-PVTZ-JKFIT
	 Reference Energy          =    -386.0566040970051063 [Eh]
	 Singles Energy            =      -0.0000000000000000 [Eh]
	 Same-Spin Energy          =      -0.4014588253843495 [Eh]
	 Opposite-Spin Energy      =      -1.3800718794912761 [Eh]
	 Correlation Energy        =      -1.7815307048756255 [Eh]
	 Total Energy              =    -387.8381348018807557 [Eh]

	 ================> DF-SCS-MP2 Energies <==================
	-----------------------------------------------------------
	 SCS Same-Spin Scale       =       0.3333333333333333 [-]
	 SCS Opposite-Spin Scale   =       1.2000000000000000 [-]
	 SCS Same-Spin Energy      =      -0.1338196084614498 [Eh]
	 SCS Opposite-Spin Energy  =      -1.6560862553895312 [Eh]
	 SCS Correlation Energy    =      -1.7899058638509810 [Eh]
	 SCS Total Energy          =    -387.8465099608561104 [Eh]
	-----------------------------------------------------------

  Dipole Moment: [D]
     X:    -1.2278      Y:    -0.6787      Z:     0.3951     Total:     1.4575

*** Psi4 exiting successfully. Buy a developer a beer!
