                               Psi4 1.3.2 release

  ==> Input File <==

--------------------------------------------------------------------------
#psi4
#
memory 32 gb

molecule  {
0 1
  O        2.6932640    -1.3344870    -0.0264310
  C        2.7508540     0.0254460     0.4069810
  C        1.3606810     0.5764810     0.3953890
  C       -3.5492030     0.3621160    -0.4101590
  C        3.6709050     0.8409920    -0.4958550
  C        0.2704120    -0.1024690    -0.0006590
  C       -2.1668306    -0.2092888    -0.4001383
  C       -1.0635270     0.4697970    -0.0176060
  C       -4.4601432    -0.3915341     0.5617785
  H        3.1361180     0.0688010     1.4404840
  H        1.2655190     1.6118880     0.7253080
  H       -3.5113520     1.4248880    -0.1442750
  H       -3.9713450     0.3050270    -1.4220020
  H        3.3060070     0.7827570    -1.5237190
  H        3.6990520     1.8899320    -0.1870900
  H        4.6948240     0.4527130    -0.4608140
  H        0.3841050    -1.1350190    -0.3229170
  H       -2.0573220    -1.2386810    -0.7303930
  H       -1.1648060     1.5075440     0.3065060
  H       -4.5255200    -1.4457790     0.3033390
  H       -5.4853170     0.0231860     0.5310900
  H       -4.0942820    -0.3029910     1.5815520
  H        3.6028580    -1.6773980    -0.0043180
units angstrom
no_reorient  #important for SAPT in psi4, default
symmetry c1  #important for SAPT in psi4, default
}

set PROPERTIES_ORIGIN ["COM"]
properties('MP2/aug-cc-pvtz', properties = ['dipole'])
--------------------------------------------------------------------------

    Molecular point group: c1
  Charge       = 0
  Multiplicity = 1
  Basis Set: AUG-CC-PVTZ
    Blend: AUG-CC-PVTZ
  Basis Set: (AUG-CC-PVTZ AUX)
    Blend: AUG-CC-PVTZ-JKFIT

    Orbital Energies [Eh]
    ---------------------

    Doubly Occupied:

       1A    -20.558620     2A    -11.286372     3A    -11.226054
       4A    -11.223810     5A    -11.223291     6A    -11.223099
       7A    -11.221603     8A    -11.220469     9A    -11.212608
      10A     -1.360513    11A     -1.097441    12A     -1.061371
      13A     -1.015978    14A     -0.961778    15A     -0.876355
      16A     -0.828196    17A     -0.753548    18A     -0.747888
      19A     -0.695159    20A     -0.637351    21A     -0.628212
      22A     -0.616813    23A     -0.589271    24A     -0.582895
      25A     -0.546552    26A     -0.543349    27A     -0.527732
      28A     -0.518636    29A     -0.499905    30A     -0.492650
      31A     -0.481080    32A     -0.467180    33A     -0.452884
      34A     -0.417703    35A     -0.296622

  @DF-RHF Final Energy:  -386.06205713446224

   => Energetics <=

    Nuclear Repulsion Energy =            418.0263726053002529
    One-Electron Energy =               -1351.9908852494825169
    Two-Electron Energy =                 547.9024555097200846
    Total Energy =                       -386.0620571344621794
  Basis Set: (AUG-CC-PVTZ AUX)
    Blend: AUG-CC-PVTZ-RI
    Molecular point group: c1

    Geometry (in Angstrom), charge = 0, multiplicity = 1:

       Center              X                  Y                   Z               Mass
    ------------   -----------------  -----------------  -----------------  -----------------
         O            2.692646261814    -1.332885802845    -0.027600582625    15.994914619570
         C            2.750236261814     0.027047197155     0.405811417375    12.000000000000
         C            1.360063261814     0.578082197155     0.394219417375    12.000000000000
         C           -3.549820738186     0.363717197155    -0.411328582625    12.000000000000
         C            3.670287261814     0.842593197155    -0.497024582625    12.000000000000
         C            0.269794261814    -0.100867802845    -0.001828582625    12.000000000000
         C           -2.167448338186    -0.207687602845    -0.401307882625    12.000000000000
         C           -1.064144738186     0.471398197155    -0.018775582625    12.000000000000
         C           -4.460760938186    -0.389932902845     0.560608917375    12.000000000000
         H            3.135500261814     0.070402197155     1.439314417375     1.007825032230
         H            1.264901261814     1.613489197155     0.724138417375     1.007825032230
         H           -3.511969738186     1.426489197155    -0.145444582625     1.007825032230
         H           -3.971962738186     0.306628197155    -1.423171582625     1.007825032230
         H            3.305389261814     0.784358197155    -1.524888582625     1.007825032230
         H            3.698434261814     1.891533197155    -0.188259582625     1.007825032230
         H            4.694206261814     0.454314197155    -0.461983582625     1.007825032230
         H            0.383487261814    -1.133417802845    -0.324086582625     1.007825032230
         H           -2.057939738186    -1.237079802845    -0.731562582625     1.007825032230
         H           -1.165423738186     1.509145197155     0.305336417375     1.007825032230
         H           -4.526137738186    -1.444177802845     0.302169417375     1.007825032230
         H           -5.485934738186     0.024787197155     0.529920417375     1.007825032230
         H           -4.094899738186    -0.301389802845     1.580382417375     1.007825032230
         H            3.602240261814    -1.675796802845    -0.005487582625     1.007825032230

  Basis Set: AUG-CC-PVTZ
    Blend: AUG-CC-PVTZ
  Basis Set: (AUG-CC-PVTZ AUX)
    Blend: AUG-CC-PVTZ-JKFIT
	 Reference Energy          =    -386.0620571344622363 [Eh]
	 Singles Energy            =      -0.0000000000000000 [Eh]
	 Same-Spin Energy          =      -0.4004231767280320 [Eh]
	 Opposite-Spin Energy      =      -1.3784775325201006 [Eh]
	 Correlation Energy        =      -1.7789007092481326 [Eh]
	 Total Energy              =    -387.8409578437103846 [Eh]

	 ================> DF-SCS-MP2 Energies <==================
	-----------------------------------------------------------
	 SCS Same-Spin Scale       =       0.3333333333333333 [-]
	 SCS Opposite-Spin Scale   =       1.2000000000000000 [-]
	 SCS Same-Spin Energy      =      -0.1334743922426773 [Eh]
	 SCS Opposite-Spin Energy  =      -1.6541730390241207 [Eh]
	 SCS Correlation Energy    =      -1.7876474312667980 [Eh]
	 SCS Total Energy          =    -387.8497045657290414 [Eh]
	-----------------------------------------------------------

  Dipole Moment: [D]
     X:     1.2048      Y:     0.7266      Z:     0.2958     Total:     1.4377

*** Psi4 exiting successfully. Buy a developer a beer!
