                               Psi4 1.4a3.dev225

  ==> Input File <==

--------------------------------------------------------------------------
#psi4
#
memory 32 gb

molecule  {
0 1
  O       -2.7161510     1.3794200    -0.1343610
  C       -2.7832390     0.0721360     0.4401970
  C       -1.3979030    -0.4954620     0.4743180
  C        3.5083460    -0.4405980    -0.4123350
  C       -3.7239960    -0.8239440    -0.3625680
  C       -0.3030690     0.1219220    -0.0067100
  C        2.1282810     0.1394430    -0.4544070
  C        1.0245920    -0.4684390     0.0236420
  C        4.4606410     0.4027870     0.4416180
  H       -3.1581590     0.1412460     1.4762970
  H       -1.3112260    -1.4900120     0.9147240
  H        3.4619600    -1.4629760    -0.0187660
  H        3.9104550    -0.5133060    -1.4317100
  H       -3.3684670    -0.8811940    -1.3941910
  H       -3.7626400    -1.8335820     0.0574350
  H       -4.7426360    -0.4191700    -0.3608330
  H       -0.4078810     1.1149080    -0.4388390
  H        2.0293480     1.1553386    -0.8962735
  H        1.1170930    -1.4649260     0.4609700
  H        4.5263310     1.4251690     0.0574090
  H        5.4690900    -0.0219830     0.4454750
  H        4.1044230     0.4539160     1.4740500
  H       -3.6221830     1.7324190    -0.1413340
units angstrom
no_reorient  #important for SAPT in psi4, default
symmetry c1  #important for SAPT in psi4, default
}

set PROPERTIES_ORIGIN ["COM"]
properties('MP2/aug-cc-pvtz', properties = ['dipole'])
--------------------------------------------------------------------------

    Molecular point group: c1
  Charge       = 0
  Multiplicity = 1
  Basis Set: AUG-CC-PVTZ
    Blend: AUG-CC-PVTZ
  Basis Set: (AUG-CC-PVTZ AUX)
    Blend: AUG-CC-PVTZ-JKFIT

    Orbital Energies [Eh]
    ---------------------

    Doubly Occupied:

       1A    -20.558813     2A    -11.287041     3A    -11.228765
       4A    -11.224463     5A    -11.223996     6A    -11.223857
       7A    -11.222485     8A    -11.220947     9A    -11.213173
      10A     -1.360136    11A     -1.096861    12A     -1.060523
      13A     -1.015667    14A     -0.961875    15A     -0.876259
      16A     -0.828489    17A     -0.750304    18A     -0.747574
      19A     -0.694531    20A     -0.636594    21A     -0.627174
      22A     -0.616469    23A     -0.589691    24A     -0.582666
      25A     -0.546242    26A     -0.542990    27A     -0.526843
      28A     -0.518409    29A     -0.500814    30A     -0.492418
      31A     -0.478695    32A     -0.467646    33A     -0.452848
      34A     -0.417967    35A     -0.297434

  @DF-RHF Final Energy:  -386.06175010348011

   => Energetics <=

    Nuclear Repulsion Energy =            417.4128167921226122
    One-Electron Energy =               -1350.7678213045908251
    Two-Electron Energy =                 547.2932544089881048
    Total Energy =                       -386.0617501034801080
  Basis Set: (AUG-CC-PVTZ AUX)
    Blend: AUG-CC-PVTZ-RI
    Molecular point group: c1

    Geometry (in Angstrom), charge = 0, multiplicity = 1:

       Center              X                  Y                   Z               Mass
    ------------   -----------------  -----------------  -----------------  -----------------
         O           -2.682829118022     1.362945241043    -0.132632118466    15.994914619570
         C           -2.749917118022     0.055661241043     0.441925881534    12.000000000000
         C           -1.364581118022    -0.511936758957     0.476046881534    12.000000000000
         C            3.541667881978    -0.457072758957    -0.410606118466    12.000000000000
         C           -3.690674118022    -0.840418758957    -0.360839118466    12.000000000000
         C           -0.269747118022     0.105447241043    -0.004981118466    12.000000000000
         C            2.161602881978     0.122968241043    -0.452678118466    12.000000000000
         C            1.057913881978    -0.484913758957     0.025370881534    12.000000000000
         C            4.493962881978     0.386312241043     0.443346881534    12.000000000000
         H           -3.124837118022     0.124771241043     1.478025881534     1.007825032230
         H           -1.277904118022    -1.506486758957     0.916452881534     1.007825032230
         H            3.495281881978    -1.479450758957    -0.017037118466     1.007825032230
         H            3.943776881978    -0.529780758957    -1.429981118466     1.007825032230
         H           -3.335145118022    -0.897668758957    -1.392462118466     1.007825032230
         H           -3.729318118022    -1.850056758957     0.059163881534     1.007825032230
         H           -4.709314118022    -0.435644758957    -0.359104118466     1.007825032230
         H           -0.374559118022     1.098433241043    -0.437110118466     1.007825032230
         H            2.062669881978     1.138863841043    -0.894544618466     1.007825032230
         H            1.150414881978    -1.481400758957     0.462698881534     1.007825032230
         H            4.559652881978     1.408694241043     0.059137881534     1.007825032230
         H            5.502411881978    -0.038457758957     0.447203881534     1.007825032230
         H            4.137744881978     0.437441241043     1.475778881534     1.007825032230
         H           -3.588861118022     1.715944241043    -0.139605118466     1.007825032230

  Basis Set: AUG-CC-PVTZ
    Blend: AUG-CC-PVTZ
  Basis Set: (AUG-CC-PVTZ AUX)
    Blend: AUG-CC-PVTZ-JKFIT
	 Reference Energy          =    -386.0617501034801080 [Eh]
	 Singles Energy            =      -0.0000000000000000 [Eh]
	 Same-Spin Energy          =      -0.4003103402492530 [Eh]
	 Opposite-Spin Energy      =      -1.3785633013962775 [Eh]
	 Correlation Energy        =      -1.7788736416455304 [Eh]
	 Total Energy              =    -387.8406237451256402 [Eh]

	 ================> DF-SCS-MP2 Energies <==================
	-----------------------------------------------------------
	 SCS Same-Spin Scale       =       0.3333333333333333 [-]
	 SCS Opposite-Spin Scale   =       1.2000000000000000 [-]
	 SCS Same-Spin Energy      =      -0.1334367800830843 [Eh]
	 SCS Opposite-Spin Energy  =      -1.6542759616755329 [Eh]
	 SCS Correlation Energy    =      -1.7877127417586172 [Eh]
	 SCS Total Energy          =    -387.8494628452387474 [Eh]
	-----------------------------------------------------------

  Dipole Moment: [D]
     X:    -1.2057      Y:    -0.6950      Z:     0.3950     Total:     1.4467

*** Psi4 exiting successfully. Buy a developer a beer!
