                               Psi4 1.3.2 release

  ==> Input File <==

--------------------------------------------------------------------------
#psi4
#
memory 32 gb

molecule  {
0 1
  O        2.6932640    -1.3344870    -0.0264310
  C        2.7758962     0.0947421     0.4334504
  C        1.3606810     0.5764810     0.3953890
  C       -3.5492030     0.3621160    -0.4101590
  C        3.6709050     0.8409920    -0.4958550
  C        0.2704120    -0.1024690    -0.0006590
  C       -2.1631840    -0.2004740    -0.4090490
  C       -1.0635270     0.4697970    -0.0176060
  C       -4.4702810    -0.3835230     0.5583970
  H        3.1361180     0.0688010     1.4404840
  H        1.3220253     1.6128852     0.7335342
  H       -3.5113520     1.4248880    -0.1442750
  H       -3.9713450     0.3050270    -1.4220020
  H        3.3060070     0.7827570    -1.5237190
  H        3.6990520     1.8899320    -0.1870900
  H        4.6948240     0.4527130    -0.4608140
  H        0.3841050    -1.1350190    -0.3229170
  H       -2.0573220    -1.2386810    -0.7303930
  H       -1.1648060     1.5075440     0.3065060
  H       -4.5255200    -1.4457790     0.3033390
  H       -5.4853170     0.0231860     0.5310900
  H       -4.0942820    -0.3029910     1.5815520
  H        3.6028580    -1.6773980    -0.0043180
units angstrom
no_reorient  #important for SAPT in psi4, default
symmetry c1  #important for SAPT in psi4, default
}

set PROPERTIES_ORIGIN ["COM"]
properties('MP2/aug-cc-pvtz', properties = ['dipole'])
--------------------------------------------------------------------------

    Molecular point group: c1
  Charge       = 0
  Multiplicity = 1
  Basis Set: AUG-CC-PVTZ
    Blend: AUG-CC-PVTZ
  Basis Set: (AUG-CC-PVTZ AUX)
    Blend: AUG-CC-PVTZ-JKFIT

    Orbital Energies [Eh]
    ---------------------

    Doubly Occupied:

       1A    -20.548863     2A    -11.285563     3A    -11.226968
       4A    -11.226162     5A    -11.224026     6A    -11.223792
       7A    -11.223637     8A    -11.222208     9A    -11.213212
      10A     -1.332123    11A     -1.098647    12A     -1.064882
      13A     -1.022208    14A     -0.964618    15A     -0.878394
      16A     -0.829968    17A     -0.753747    18A     -0.745157
      19A     -0.688021    20A     -0.634194    21A     -0.629346
      22A     -0.611280    23A     -0.589798    24A     -0.579769
      25A     -0.550793    26A     -0.546511    27A     -0.521036
      28A     -0.518619    29A     -0.496783    30A     -0.489522
      31A     -0.479783    32A     -0.468646    33A     -0.454949
      34A     -0.421761    35A     -0.299511

  @DF-RHF Final Energy:  -386.05476504536676

   => Energetics <=

    Nuclear Repulsion Energy =            417.3136539923864916
    One-Electron Energy =               -1350.6078408454745841
    Two-Electron Energy =                 547.2394218077213282
    Total Energy =                       -386.0547650453668211
  Basis Set: (AUG-CC-PVTZ AUX)
    Blend: AUG-CC-PVTZ-RI
    Molecular point group: c1

    Geometry (in Angstrom), charge = 0, multiplicity = 1:

       Center              X                  Y                   Z               Mass
    ------------   -----------------  -----------------  -----------------  -----------------
         O            2.690429365977    -1.341089073066    -0.029015417303    15.994914619570
         C            2.773061565977     0.088140026934     0.430865982697    12.000000000000
         C            1.357846365977     0.569878926934     0.392804582697    12.000000000000
         C           -3.552037634023     0.355513926934    -0.412743417303    12.000000000000
         C            3.668070365977     0.834389926934    -0.498439417303    12.000000000000
         C            0.267577365977    -0.109071073066    -0.003243417303    12.000000000000
         C           -2.166018634023    -0.207076073066    -0.411633417303    12.000000000000
         C           -1.066361634023     0.463194926934    -0.020190417303    12.000000000000
         C           -4.473115634023    -0.390125073066     0.555812582697    12.000000000000
         H            3.133283365977     0.062198926934     1.437899582697     1.007825032230
         H            1.319190665977     1.606283126934     0.730949782697     1.007825032230
         H           -3.514186634023     1.418285926934    -0.146859417303     1.007825032230
         H           -3.974179634023     0.298424926934    -1.424586417303     1.007825032230
         H            3.303172365977     0.776154926934    -1.526303417303     1.007825032230
         H            3.696217365977     1.883329926934    -0.189674417303     1.007825032230
         H            4.691989365977     0.446110926934    -0.463398417303     1.007825032230
         H            0.381270365977    -1.141621073066    -0.325501417303     1.007825032230
         H           -2.060156634023    -1.245283073066    -0.732977417303     1.007825032230
         H           -1.167640634023     1.500941926934     0.303921582697     1.007825032230
         H           -4.528354634023    -1.452381073066     0.300754582697     1.007825032230
         H           -5.488151634023     0.016583926934     0.528505582697     1.007825032230
         H           -4.097116634023    -0.309593073066     1.578967582697     1.007825032230
         H            3.600023365977    -1.684000073066    -0.006902417303     1.007825032230

  Basis Set: AUG-CC-PVTZ
    Blend: AUG-CC-PVTZ
  Basis Set: (AUG-CC-PVTZ AUX)
    Blend: AUG-CC-PVTZ-JKFIT
	 Reference Energy          =    -386.0547650453667643 [Eh]
	 Singles Energy            =      -0.0000000000000000 [Eh]
	 Same-Spin Energy          =      -0.4007367029221399 [Eh]
	 Opposite-Spin Energy      =      -1.3801152094405518 [Eh]
	 Correlation Energy        =      -1.7808519123626916 [Eh]
	 Total Energy              =    -387.8356169577294281 [Eh]

	 ================> DF-SCS-MP2 Energies <==================
	-----------------------------------------------------------
	 SCS Same-Spin Scale       =       0.3333333333333333 [-]
	 SCS Opposite-Spin Scale   =       1.2000000000000000 [-]
	 SCS Same-Spin Energy      =      -0.1335789009740466 [Eh]
	 SCS Opposite-Spin Energy  =      -1.6561382513286620 [Eh]
	 SCS Correlation Energy    =      -1.7897171523027087 [Eh]
	 SCS Total Energy          =    -387.8444821976694925 [Eh]
	-----------------------------------------------------------

  Dipole Moment: [D]
     X:     1.1773      Y:     0.9636      Z:     0.3441     Total:     1.5598

*** Psi4 exiting successfully. Buy a developer a beer!
