                               Psi4 1.4a3.dev225

  ==> Input File <==

--------------------------------------------------------------------------
#psi4
#
memory 32 gb

molecule  {
0 1
  O       -2.7161510     1.3794200    -0.1343610
  C       -2.7832390     0.0721360     0.4401970
  C       -1.4441582    -0.4765104     0.4731787
  C        3.5083460    -0.4405980    -0.4123350
  C       -3.7239960    -0.8239440    -0.3625680
  C       -0.3030690     0.1219220    -0.0067100
  C        2.1282810     0.1394430    -0.4544070
  C        1.0245920    -0.4684390     0.0236420
  C        4.4606410     0.4027870     0.4416180
  H       -3.1581590     0.1412460     1.4762970
  H       -1.3112260    -1.4900120     0.9147240
  H        3.4619600    -1.4629760    -0.0187660
  H        3.9104550    -0.5133060    -1.4317100
  H       -3.3684670    -0.8811940    -1.3941910
  H       -3.7626400    -1.8335820     0.0574350
  H       -4.7426360    -0.4191700    -0.3608330
  H       -0.4078810     1.1149080    -0.4388390
  H        2.0311270     1.1370710    -0.8883280
  H        1.1170930    -1.4649260     0.4609700
  H        4.5263310     1.4251690     0.0574090
  H        5.4690900    -0.0219830     0.4454750
  H        4.1044230     0.4539160     1.4740500
  H       -3.6221830     1.7324190    -0.1413340
units angstrom
no_reorient  #important for SAPT in psi4, default
symmetry c1  #important for SAPT in psi4, default
}

set PROPERTIES_ORIGIN ["COM"]
properties('MP2/aug-cc-pvtz', properties = ['dipole'])
--------------------------------------------------------------------------

    Molecular point group: c1
  Charge       = 0
  Multiplicity = 1
  Basis Set: AUG-CC-PVTZ
    Blend: AUG-CC-PVTZ
  Basis Set: (AUG-CC-PVTZ AUX)
    Blend: AUG-CC-PVTZ-JKFIT

    Orbital Energies [Eh]
    ---------------------

    Doubly Occupied:

       1A    -20.559107     2A    -11.285046     3A    -11.227781
       4A    -11.227514     5A    -11.226086     6A    -11.224920
       7A    -11.224190     8A    -11.221560     9A    -11.213476
      10A     -1.361523    11A     -1.096253    12A     -1.063862
      13A     -1.016754    14A     -0.960440    15A     -0.880868
      16A     -0.829316    17A     -0.752874    18A     -0.744746
      19A     -0.697295    20A     -0.637517    21A     -0.627590
      22A     -0.617651    23A     -0.590562    24A     -0.581035
      25A     -0.546802    26A     -0.541023    27A     -0.529577
      28A     -0.518027    29A     -0.501080    30A     -0.490897
      31A     -0.480475    32A     -0.472701    33A     -0.454287
      34A     -0.414690    35A     -0.293115

  @DF-RHF Final Energy:  -386.05708081930680

   => Energetics <=

    Nuclear Repulsion Energy =            417.6753723813570787
    One-Electron Energy =               -1351.2436292663126096
    Two-Electron Energy =                 547.5111760656487832
    Total Energy =                       -386.0570808193067478
  Basis Set: (AUG-CC-PVTZ AUX)
    Blend: AUG-CC-PVTZ-RI
    Molecular point group: c1

    Geometry (in Angstrom), charge = 0, multiplicity = 1:

       Center              X                  Y                   Z               Mass
    ------------   -----------------  -----------------  -----------------  -----------------
         O           -2.678441727941     1.361287816341    -0.132587203909    15.994914619570
         C           -2.745529727941     0.054003816341     0.441970796091    12.000000000000
         C           -1.406448927941    -0.494642583659     0.474952496091    12.000000000000
         C            3.546055272059    -0.458730183659    -0.410561203909    12.000000000000
         C           -3.686286727941    -0.842076183659    -0.360794203909    12.000000000000
         C           -0.265359727941     0.103789816341    -0.004936203909    12.000000000000
         C            2.165990272059     0.121310816341    -0.452633203909    12.000000000000
         C            1.062301272059    -0.486571183659     0.025415796091    12.000000000000
         C            4.498350272059     0.384654816341     0.443391796091    12.000000000000
         H           -3.120449727941     0.123113816341     1.478070796091     1.007825032230
         H           -1.273516727941    -1.508144183659     0.916497796091     1.007825032230
         H            3.499669272059    -1.481108183659    -0.016992203909     1.007825032230
         H            3.948164272059    -0.531438183659    -1.429936203909     1.007825032230
         H           -3.330757727941    -0.899326183659    -1.392417203909     1.007825032230
         H           -3.724930727941    -1.851714183659     0.059208796091     1.007825032230
         H           -4.704926727941    -0.437302183659    -0.359059203909     1.007825032230
         H           -0.370171727941     1.096775816341    -0.437065203909     1.007825032230
         H            2.068836272059     1.118938816341    -0.886554203909     1.007825032230
         H            1.154802272059    -1.483058183659     0.462743796091     1.007825032230
         H            4.564040272059     1.407036816341     0.059182796091     1.007825032230
         H            5.506799272059    -0.040115183659     0.447248796091     1.007825032230
         H            4.142132272059     0.435783816341     1.475823796091     1.007825032230
         H           -3.584473727941     1.714286816341    -0.139560203909     1.007825032230

  Basis Set: AUG-CC-PVTZ
    Blend: AUG-CC-PVTZ
  Basis Set: (AUG-CC-PVTZ AUX)
    Blend: AUG-CC-PVTZ-JKFIT
	 Reference Energy          =    -386.0570808193068046 [Eh]
	 Singles Energy            =      -0.0000000000000000 [Eh]
	 Same-Spin Energy          =      -0.4012303015985180 [Eh]
	 Opposite-Spin Energy      =      -1.3798309853331541 [Eh]
	 Correlation Energy        =      -1.7810612869316720 [Eh]
	 Total Energy              =    -387.8381421062384788 [Eh]

	 ================> DF-SCS-MP2 Energies <==================
	-----------------------------------------------------------
	 SCS Same-Spin Scale       =       0.3333333333333333 [-]
	 SCS Opposite-Spin Scale   =       1.2000000000000000 [-]
	 SCS Same-Spin Energy      =      -0.1337434338661727 [Eh]
	 SCS Opposite-Spin Energy  =      -1.6557971823997848 [Eh]
	 SCS Correlation Energy    =      -1.7895406162659575 [Eh]
	 SCS Total Energy          =    -387.8466214355727857 [Eh]
	-----------------------------------------------------------

  Dipole Moment: [D]
     X:    -1.2144      Y:    -0.6834      Z:     0.3901     Total:     1.4471

*** Psi4 exiting successfully. Buy a developer a beer!
