                               Psi4 1.3.2 release

  ==> Input File <==

--------------------------------------------------------------------------
#psi4
#
memory 32 gb

molecule  {
0 1
  O        2.6932640    -1.3344870    -0.0264310
  C        2.7508540     0.0254460     0.4069810
  C        1.3606810     0.5764810     0.3953890
  C       -3.5492030     0.3621160    -0.4101590
  C        3.6709050     0.8409920    -0.4958550
  C        0.2704120    -0.1024690    -0.0006590
  C       -2.1435303    -0.1467091    -0.4624911
  C       -1.0635270     0.4697970    -0.0176060
  C       -4.5296083    -0.3342856     0.5365687
  H        3.1361180     0.0688010     1.4404840
  H        1.2655190     1.6118880     0.7253080
  H       -3.5113520     1.4248880    -0.1442750
  H       -3.9713450     0.3050270    -1.4220020
  H        3.3060070     0.7827570    -1.5237190
  H        3.6990520     1.8899320    -0.1870900
  H        4.6948240     0.4527130    -0.4608140
  H        0.3841050    -1.1350190    -0.3229170
  H       -2.0573220    -1.2386810    -0.7303930
  H       -1.1648060     1.5075440     0.3065060
  H       -4.5255200    -1.4457790     0.3033390
  H       -5.4853170     0.0231860     0.5310900
  H       -4.0942820    -0.3029910     1.5815520
  H        3.6028580    -1.6773980    -0.0043180
units angstrom
no_reorient  #important for SAPT in psi4, default
symmetry c1  #important for SAPT in psi4, default
}

set PROPERTIES_ORIGIN ["COM"]
properties('MP2/aug-cc-pvtz', properties = ['dipole'])
--------------------------------------------------------------------------

    Molecular point group: c1
  Charge       = 0
  Multiplicity = 1
  Basis Set: AUG-CC-PVTZ
    Blend: AUG-CC-PVTZ
  Basis Set: (AUG-CC-PVTZ AUX)
    Blend: AUG-CC-PVTZ-JKFIT

    Orbital Energies [Eh]
    ---------------------

    Doubly Occupied:

       1A    -20.559323     2A    -11.287371     3A    -11.226125
       4A    -11.224930     5A    -11.223287     6A    -11.223201
       7A    -11.221438     8A    -11.221258     9A    -11.215274
      10A     -1.361261    11A     -1.100514    12A     -1.061551
      13A     -1.017410    14A     -0.966684    15A     -0.878869
      16A     -0.831560    17A     -0.749894    18A     -0.745401
      19A     -0.695927    20A     -0.637458    21A     -0.627155
      22A     -0.616456    23A     -0.599099    24A     -0.580977
      25A     -0.547803    26A     -0.546822    27A     -0.529199
      28A     -0.521057    29A     -0.499040    30A     -0.488940
      31A     -0.470654    32A     -0.463230    33A     -0.453514
      34A     -0.421005    35A     -0.302418

  @DF-RHF Final Energy:  -386.05196860597505

   => Energetics <=

    Nuclear Repulsion Energy =            417.8105622984267029
    One-Electron Energy =               -1351.4928501116787629
    Two-Electron Energy =                 547.6303192072770116
    Total Energy =                       -386.0519686059750484
  Basis Set: (AUG-CC-PVTZ AUX)
    Blend: AUG-CC-PVTZ-RI
    Molecular point group: c1

    Geometry (in Angstrom), charge = 0, multiplicity = 1:

       Center              X                  Y                   Z               Mass
    ------------   -----------------  -----------------  -----------------  -----------------
         O            2.697039267246    -1.344288558482    -0.019268195668    15.994914619570
         C            2.754629267246     0.015644441518     0.414143804332    12.000000000000
         C            1.364456267246     0.566679441518     0.402551804332    12.000000000000
         C           -3.545427732754     0.352314441518    -0.402996195668    12.000000000000
         C            3.674680267246     0.831190441518    -0.488692195668    12.000000000000
         C            0.274187267246    -0.112270558482     0.006503804332    12.000000000000
         C           -2.139755032754    -0.156510658482    -0.455328295668    12.000000000000
         C           -1.059751732754     0.459995441518    -0.010443195668    12.000000000000
         C           -4.525833032754    -0.344087158482     0.543731504332    12.000000000000
         H            3.139893267246     0.058999441518     1.447646804332     1.007825032230
         H            1.269294267246     1.602086441518     0.732470804332     1.007825032230
         H           -3.507576732754     1.415086441518    -0.137112195668     1.007825032230
         H           -3.967569732754     0.295225441518    -1.414839195668     1.007825032230
         H            3.309782267246     0.772955441518    -1.516556195668     1.007825032230
         H            3.702827267246     1.880130441518    -0.179927195668     1.007825032230
         H            4.698599267246     0.442911441518    -0.453651195668     1.007825032230
         H            0.387880267246    -1.144820558482    -0.315754195668     1.007825032230
         H           -2.053546732754    -1.248482558482    -0.723230195668     1.007825032230
         H           -1.161030732754     1.497742441518     0.313668804332     1.007825032230
         H           -4.521744732754    -1.455580558482     0.310501804332     1.007825032230
         H           -5.481541732754     0.013384441518     0.538252804332     1.007825032230
         H           -4.090506732754    -0.312792558482     1.588714804332     1.007825032230
         H            3.606633267246    -1.687199558482     0.002844804332     1.007825032230

  Basis Set: AUG-CC-PVTZ
    Blend: AUG-CC-PVTZ
  Basis Set: (AUG-CC-PVTZ AUX)
    Blend: AUG-CC-PVTZ-JKFIT
	 Reference Energy          =    -386.0519686059750484 [Eh]
	 Singles Energy            =      -0.0000000000000000 [Eh]
	 Same-Spin Energy          =      -0.4002834550004254 [Eh]
	 Opposite-Spin Energy      =      -1.3782996814533954 [Eh]
	 Correlation Energy        =      -1.7785831364538209 [Eh]
	 Total Energy              =    -387.8305517424288951 [Eh]

	 ================> DF-SCS-MP2 Energies <==================
	-----------------------------------------------------------
	 SCS Same-Spin Scale       =       0.3333333333333333 [-]
	 SCS Opposite-Spin Scale   =       1.2000000000000000 [-]
	 SCS Same-Spin Energy      =      -0.1334278183334751 [Eh]
	 SCS Opposite-Spin Energy  =      -1.6539596177440745 [Eh]
	 SCS Correlation Energy    =      -1.7873874360775497 [Eh]
	 SCS Total Energy          =    -387.8393560420526001 [Eh]
	-----------------------------------------------------------

  Dipole Moment: [D]
     X:     1.2597      Y:     0.7554      Z:     0.3900     Total:     1.5197

*** Psi4 exiting successfully. Buy a developer a beer!
