                               Psi4 1.3.2 release

  ==> Input File <==

--------------------------------------------------------------------------
#psi4
#
memory 32 gb

molecule  {
0 1
  O        2.6932640    -1.3344870    -0.0264310
  C        2.7596284     0.0483862     0.4158112
  C        1.3606810     0.5764810     0.3953890
  C       -3.5492030     0.3621160    -0.4101590
  C        3.6709050     0.8409920    -0.4958550
  C        0.2704120    -0.1024690    -0.0006590
  C       -2.1631840    -0.2004740    -0.4090490
  C       -1.0635270     0.4697970    -0.0176060
  C       -4.4702810    -0.3835230     0.5583970
  H        3.1361180     0.0688010     1.4404840
  H        1.2843331     1.6125360     0.7281517
  H       -3.5113520     1.4248880    -0.1442750
  H       -3.9713450     0.3050270    -1.4220020
  H        3.3060070     0.7827570    -1.5237190
  H        3.6990520     1.8899320    -0.1870900
  H        4.6948240     0.4527130    -0.4608140
  H        0.3841050    -1.1350190    -0.3229170
  H       -2.0573220    -1.2386810    -0.7303930
  H       -1.1648060     1.5075440     0.3065060
  H       -4.5255200    -1.4457790     0.3033390
  H       -5.4853170     0.0231860     0.5310900
  H       -4.0942820    -0.3029910     1.5815520
  H        3.6028580    -1.6773980    -0.0043180
units angstrom
no_reorient  #important for SAPT in psi4, default
symmetry c1  #important for SAPT in psi4, default
}

set PROPERTIES_ORIGIN ["COM"]
properties('MP2/aug-cc-pvtz', properties = ['dipole'])
--------------------------------------------------------------------------

    Molecular point group: c1
  Charge       = 0
  Multiplicity = 1
  Basis Set: AUG-CC-PVTZ
    Blend: AUG-CC-PVTZ
  Basis Set: (AUG-CC-PVTZ AUX)
    Blend: AUG-CC-PVTZ-JKFIT

    Orbital Energies [Eh]
    ---------------------

    Doubly Occupied:

       1A    -20.555523     2A    -11.285879     3A    -11.226241
       4A    -11.224328     5A    -11.223458     6A    -11.223245
       7A    -11.222408     8A    -11.221062     9A    -11.212923
      10A     -1.350659    11A     -1.098047    12A     -1.062337
      13A     -1.018218    14A     -0.963204    15A     -0.877070
      16A     -0.828875    17A     -0.752751    18A     -0.746646
      19A     -0.692977    20A     -0.635283    21A     -0.628892
      22A     -0.614739    23A     -0.589511    24A     -0.581976
      25A     -0.546454    26A     -0.545648    27A     -0.524865
      28A     -0.518825    29A     -0.499257    30A     -0.492533
      31A     -0.479353    32A     -0.468430    33A     -0.454238
      34A     -0.419622    35A     -0.298165

  @DF-RHF Final Energy:  -386.06135200074112

   => Energetics <=

    Nuclear Repulsion Energy =            417.7633216905917379
    One-Electron Energy =               -1351.4820634134357533
    Two-Electron Energy =                 547.6573897221029483
    Total Energy =                       -386.0613520007410671
  Basis Set: (AUG-CC-PVTZ AUX)
    Blend: AUG-CC-PVTZ-RI
    Molecular point group: c1

    Geometry (in Angstrom), charge = 0, multiplicity = 1:

       Center              X                  Y                   Z               Mass
    ------------   -----------------  -----------------  -----------------  -----------------
         O            2.692278632318    -1.336675091910    -0.027293868283    15.994914619570
         C            2.758643032318     0.046198108090     0.414948331717    12.000000000000
         C            1.359695632318     0.574292908090     0.394526131717    12.000000000000
         C           -3.550188367682     0.359927908090    -0.411021868283    12.000000000000
         C            3.669919632318     0.838803908090    -0.496717868283    12.000000000000
         C            0.269426632318    -0.104657091910    -0.001521868283    12.000000000000
         C           -2.164169367682    -0.202662091910    -0.409911868283    12.000000000000
         C           -1.064512367682     0.467608908090    -0.018468868283    12.000000000000
         C           -4.471266367682    -0.385711091910     0.557534131717    12.000000000000
         H            3.135132632318     0.066612908090     1.439621131717     1.007825032230
         H            1.283347732318     1.610347908090     0.727288831717     1.007825032230
         H           -3.512337367682     1.422699908090    -0.145137868283     1.007825032230
         H           -3.972330367682     0.302838908090    -1.422864868283     1.007825032230
         H            3.305021632318     0.780568908090    -1.524581868283     1.007825032230
         H            3.698066632318     1.887743908090    -0.187952868283     1.007825032230
         H            4.693838632318     0.450524908090    -0.461676868283     1.007825032230
         H            0.383119632318    -1.137207091910    -0.323779868283     1.007825032230
         H           -2.058307367682    -1.240869091910    -0.731255868283     1.007825032230
         H           -1.165791367682     1.505355908090     0.305643131717     1.007825032230
         H           -4.526505367682    -1.447967091910     0.302476131717     1.007825032230
         H           -5.486302367682     0.020997908090     0.530227131717     1.007825032230
         H           -4.095267367682    -0.305179091910     1.580689131717     1.007825032230
         H            3.601872632318    -1.679586091910    -0.005180868283     1.007825032230

  Basis Set: AUG-CC-PVTZ
    Blend: AUG-CC-PVTZ
  Basis Set: (AUG-CC-PVTZ AUX)
    Blend: AUG-CC-PVTZ-JKFIT
	 Reference Energy          =    -386.0613520007411239 [Eh]
	 Singles Energy            =      -0.0000000000000000 [Eh]
	 Same-Spin Energy          =      -0.4004223345680370 [Eh]
	 Opposite-Spin Energy      =      -1.3788258574388019 [Eh]
	 Correlation Energy        =      -1.7792481920068388 [Eh]
	 Total Energy              =    -387.8406001927479565 [Eh]

	 ================> DF-SCS-MP2 Energies <==================
	-----------------------------------------------------------
	 SCS Same-Spin Scale       =       0.3333333333333333 [-]
	 SCS Opposite-Spin Scale   =       1.2000000000000000 [-]
	 SCS Same-Spin Energy      =      -0.1334741115226790 [Eh]
	 SCS Opposite-Spin Energy  =      -1.6545910289265622 [Eh]
	 SCS Correlation Energy    =      -1.7880651404492411 [Eh]
	 SCS Total Energy          =    -387.8494171411903721 [Eh]
	-----------------------------------------------------------

  Dipole Moment: [D]
     X:     1.1970      Y:     0.8088      Z:     0.3227     Total:     1.4802

*** Psi4 exiting successfully. Buy a developer a beer!
