                               Psi4 1.3.2 release

  ==> Input File <==

--------------------------------------------------------------------------
#psi4
#
memory 32 gb

molecule  {
0 1
  O        2.6932640    -1.3344870    -0.0264310
  C        2.7508540     0.0254460     0.4069810
  C        1.3606810     0.5764810     0.3953890
  C       -3.5492030     0.3621160    -0.4101590
  C        3.6709050     0.8409920    -0.4958550
  C        0.2704120    -0.1024690    -0.0006590
  C       -2.2558418    -0.1628639    -0.4091232
  C       -1.0635270     0.4697970    -0.0176060
  C       -4.4702810    -0.3835230     0.5583970
  H        3.1361180     0.0688010     1.4404840
  H        1.2655190     1.6118880     0.7253080
  H       -3.5113520     1.4248880    -0.1442750
  H       -3.9713450     0.3050270    -1.4220020
  H        3.3060070     0.7827570    -1.5237190
  H        3.6990520     1.8899320    -0.1870900
  H        4.6948240     0.4527130    -0.4608140
  H        0.3841050    -1.1350190    -0.3229170
  H       -2.0573220    -1.2386810    -0.7303930
  H       -1.1648060     1.5075440     0.3065060
  H       -4.5255200    -1.4457790     0.3033390
  H       -5.4853170     0.0231860     0.5310900
  H       -4.0942820    -0.3029910     1.5815520
  H        3.6028580    -1.6773980    -0.0043180
units angstrom
no_reorient  #important for SAPT in psi4, default
symmetry c1  #important for SAPT in psi4, default
}

set PROPERTIES_ORIGIN ["COM"]
properties('MP2/aug-cc-pvtz', properties = ['dipole'])
--------------------------------------------------------------------------

    Molecular point group: c1
  Charge       = 0
  Multiplicity = 1
  Basis Set: AUG-CC-PVTZ
    Blend: AUG-CC-PVTZ
  Basis Set: (AUG-CC-PVTZ AUX)
    Blend: AUG-CC-PVTZ-JKFIT

    Orbital Energies [Eh]
    ---------------------

    Doubly Occupied:

       1A    -20.558921     2A    -11.287010     3A    -11.233838
       4A    -11.230167     5A    -11.225138     6A    -11.223353
       7A    -11.220809     8A    -11.219509     9A    -11.214986
      10A     -1.360858    11A     -1.100989    12A     -1.070104
      13A     -1.016219    14A     -0.956757    15A     -0.884656
      16A     -0.830701    17A     -0.749678    18A     -0.745406
      19A     -0.694521    20A     -0.638169    21A     -0.633369
      22A     -0.617529    23A     -0.595186    24A     -0.582843
      25A     -0.546584    26A     -0.540891    27A     -0.530330
      28A     -0.519963    29A     -0.506588    30A     -0.493923
      31A     -0.477698    32A     -0.467700    33A     -0.452967
      34A     -0.411955    35A     -0.288036

  @DF-RHF Final Energy:  -386.04512733386764

   => Energetics <=

    Nuclear Repulsion Energy =            417.9547916067015194
    One-Electron Energy =               -1351.7451359649405731
    Two-Electron Energy =                 547.7452170243714136
    Total Energy =                       -386.0451273338676401
  Basis Set: (AUG-CC-PVTZ AUX)
    Blend: AUG-CC-PVTZ-RI
    Molecular point group: c1

    Geometry (in Angstrom), charge = 0, multiplicity = 1:

       Center              X                  Y                   Z               Mass
    ------------   -----------------  -----------------  -----------------  -----------------
         O            2.702081201325    -1.338065889050    -0.026423805895    15.994914619570
         C            2.759671201325     0.021867110950     0.406988194105    12.000000000000
         C            1.369498201325     0.572902110950     0.395396194105    12.000000000000
         C           -3.540385798675     0.358537110950    -0.410151805895    12.000000000000
         C            3.679722201325     0.837413110950    -0.495847805895    12.000000000000
         C            0.279229201325    -0.106047889050    -0.000651805895    12.000000000000
         C           -2.247024598675    -0.166442789050    -0.409116005895    12.000000000000
         C           -1.054709798675     0.466218110950    -0.017598805895    12.000000000000
         C           -4.461463798675    -0.387101889050     0.558404194105    12.000000000000
         H            3.144935201325     0.065222110950     1.440491194105     1.007825032230
         H            1.274336201325     1.608309110950     0.725315194105     1.007825032230
         H           -3.502534798675     1.421309110950    -0.144267805895     1.007825032230
         H           -3.962527798675     0.301448110950    -1.421994805895     1.007825032230
         H            3.314824201325     0.779178110950    -1.523711805895     1.007825032230
         H            3.707869201325     1.886353110950    -0.187082805895     1.007825032230
         H            4.703641201325     0.449134110950    -0.460806805895     1.007825032230
         H            0.392922201325    -1.138597889050    -0.322909805895     1.007825032230
         H           -2.048504798675    -1.242259889050    -0.730385805895     1.007825032230
         H           -1.155988798675     1.503965110950     0.306513194105     1.007825032230
         H           -4.516702798675    -1.449357889050     0.303346194105     1.007825032230
         H           -5.476499798675     0.019607110950     0.531097194105     1.007825032230
         H           -4.085464798675    -0.306569889050     1.581559194105     1.007825032230
         H            3.611675201325    -1.680976889050    -0.004310805895     1.007825032230

  Basis Set: AUG-CC-PVTZ
    Blend: AUG-CC-PVTZ
  Basis Set: (AUG-CC-PVTZ AUX)
    Blend: AUG-CC-PVTZ-JKFIT
	 Reference Energy          =    -386.0451273338676401 [Eh]
	 Singles Energy            =      -0.0000000000000000 [Eh]
	 Same-Spin Energy          =      -0.4025836361092311 [Eh]
	 Opposite-Spin Energy      =      -1.3815433228916805 [Eh]
	 Correlation Energy        =      -1.7841269590009117 [Eh]
	 Total Energy              =    -387.8292542928685407 [Eh]

	 ================> DF-SCS-MP2 Energies <==================
	-----------------------------------------------------------
	 SCS Same-Spin Scale       =       0.3333333333333333 [-]
	 SCS Opposite-Spin Scale   =       1.2000000000000000 [-]
	 SCS Same-Spin Energy      =      -0.1341945453697437 [Eh]
	 SCS Opposite-Spin Energy  =      -1.6578519874700166 [Eh]
	 SCS Correlation Energy    =      -1.7920465328397603 [Eh]
	 SCS Total Energy          =    -387.8371738667074169 [Eh]
	-----------------------------------------------------------

  Dipole Moment: [D]
     X:     1.1239      Y:     0.7516      Z:     0.3079     Total:     1.3866

*** Psi4 exiting successfully. Buy a developer a beer!
