                               Psi4 1.3.2 release

  ==> Input File <==

--------------------------------------------------------------------------
#psi4
#
memory 32 gb

molecule  {
0 1
  O        2.6932640    -1.3344870    -0.0264310
  C        2.7508540     0.0254460     0.4069810
  C        1.3464664     0.5388473     0.4286502
  C       -3.5492030     0.3621160    -0.4101590
  C        3.7110134     0.8085260    -0.4827390
  C        0.2704120    -0.1024690    -0.0006590
  C       -2.1631840    -0.2004740    -0.4090490
  C       -1.0635270     0.4697970    -0.0176060
  C       -4.4702810    -0.3835230     0.5583970
  H        3.1361180     0.0688010     1.4404840
  H        1.2655190     1.6118880     0.7253080
  H       -3.5113520     1.4248880    -0.1442750
  H       -3.9713450     0.3050270    -1.4220020
  H        3.3060070     0.7827570    -1.5237190
  H        3.6990520     1.8899320    -0.1870900
  H        4.6948240     0.4527130    -0.4608140
  H        0.3841050    -1.1350190    -0.3229170
  H       -2.0573220    -1.2386810    -0.7303930
  H       -1.1648060     1.5075440     0.3065060
  H       -4.5255200    -1.4457790     0.3033390
  H       -5.4853170     0.0231860     0.5310900
  H       -4.0942820    -0.3029910     1.5815520
  H        3.6028580    -1.6773980    -0.0043180
units angstrom
no_reorient  #important for SAPT in psi4, default
symmetry c1  #important for SAPT in psi4, default
}

set PROPERTIES_ORIGIN ["COM"]
properties('MP2/aug-cc-pvtz', properties = ['dipole'])
--------------------------------------------------------------------------

    Molecular point group: c1
  Charge       = 0
  Multiplicity = 1
  Basis Set: AUG-CC-PVTZ
    Blend: AUG-CC-PVTZ
  Basis Set: (AUG-CC-PVTZ AUX)
    Blend: AUG-CC-PVTZ-JKFIT

    Orbital Energies [Eh]
    ---------------------

    Doubly Occupied:

       1A    -20.556913     2A    -11.286546     3A    -11.226687
       4A    -11.223782     5A    -11.223551     6A    -11.222911
       7A    -11.221723     8A    -11.220128     9A    -11.213110
      10A     -1.360039    11A     -1.099340    12A     -1.061538
      13A     -1.016201    14A     -0.965353    15A     -0.878212
      16A     -0.830540    17A     -0.752978    18A     -0.743295
      19A     -0.694409    20A     -0.637711    21A     -0.631165
      22A     -0.615766    23A     -0.592585    24A     -0.582486
      25A     -0.550793    26A     -0.538467    27A     -0.525528
      28A     -0.518106    29A     -0.497695    30A     -0.491996
      31A     -0.479590    32A     -0.468827    33A     -0.450782
      34A     -0.419800    35A     -0.300920

  @DF-RHF Final Energy:  -386.05820049333192

   => Energetics <=

    Nuclear Repulsion Energy =            418.0594761214331356
    One-Electron Energy =               -1352.0364132060358315
    Two-Electron Energy =                 547.9187365912707719
    Total Energy =                       -386.0582004933319240
  Basis Set: (AUG-CC-PVTZ AUX)
    Blend: AUG-CC-PVTZ-RI
    Molecular point group: c1

    Geometry (in Angstrom), charge = 0, multiplicity = 1:

       Center              X                  Y                   Z               Mass
    ------------   -----------------  -----------------  -----------------  -----------------
         O            2.690799925922    -1.327816310661    -0.030844083953    15.994914619570
         C            2.748389925922     0.032116689339     0.402567916047    12.000000000000
         C            1.344002325922     0.545517989339     0.424237116047    12.000000000000
         C           -3.551667074078     0.368786689339    -0.414572083953    12.000000000000
         C            3.708549325922     0.815196689339    -0.487152083953    12.000000000000
         C            0.267947925922    -0.095798310661    -0.005072083953    12.000000000000
         C           -2.165648074078    -0.193803310661    -0.413462083953    12.000000000000
         C           -1.065991074078     0.476467689339    -0.022019083953    12.000000000000
         C           -4.472745074078    -0.376852310661     0.553983916047    12.000000000000
         H            3.133653925922     0.075471689339     1.436070916047     1.007825032230
         H            1.263054925922     1.618558689339     0.720894916047     1.007825032230
         H           -3.513816074078     1.431558689339    -0.148688083953     1.007825032230
         H           -3.973809074078     0.311697689339    -1.426415083953     1.007825032230
         H            3.303542925922     0.789427689339    -1.528132083953     1.007825032230
         H            3.696587925922     1.896602689339    -0.191503083953     1.007825032230
         H            4.692359925922     0.459383689339    -0.465227083953     1.007825032230
         H            0.381640925922    -1.128348310661    -0.327330083953     1.007825032230
         H           -2.059786074078    -1.232010310661    -0.734806083953     1.007825032230
         H           -1.167270074078     1.514214689339     0.302092916047     1.007825032230
         H           -4.527984074078    -1.439108310661     0.298925916047     1.007825032230
         H           -5.487781074078     0.029856689339     0.526676916047     1.007825032230
         H           -4.096746074078    -0.296320310661     1.577138916047     1.007825032230
         H            3.600393925922    -1.670727310661    -0.008731083953     1.007825032230

  Basis Set: AUG-CC-PVTZ
    Blend: AUG-CC-PVTZ
  Basis Set: (AUG-CC-PVTZ AUX)
    Blend: AUG-CC-PVTZ-JKFIT
	 Reference Energy          =    -386.0582004933319240 [Eh]
	 Singles Energy            =      -0.0000000000000000 [Eh]
	 Same-Spin Energy          =      -0.4001904850101957 [Eh]
	 Opposite-Spin Energy      =      -1.3780348113319150 [Eh]
	 Correlation Energy        =      -1.7782252963421108 [Eh]
	 Total Energy              =    -387.8364257896740241 [Eh]

	 ================> DF-SCS-MP2 Energies <==================
	-----------------------------------------------------------
	 SCS Same-Spin Scale       =       0.3333333333333333 [-]
	 SCS Opposite-Spin Scale   =       1.2000000000000000 [-]
	 SCS Same-Spin Energy      =      -0.1333968283367319 [Eh]
	 SCS Opposite-Spin Energy  =      -1.6536417735982980 [Eh]
	 SCS Correlation Energy    =      -1.7870386019350299 [Eh]
	 SCS Total Energy          =    -387.8452390952669475 [Eh]
	-----------------------------------------------------------

  Dipole Moment: [D]
     X:     1.1933      Y:     0.7152      Z:     0.2543     Total:     1.4143

*** Psi4 exiting successfully. Buy a developer a beer!
