                               Psi4 1.3.2 release

  ==> Input File <==

--------------------------------------------------------------------------
#psi4
#
memory 32 gb

molecule  {
0 1
  O        2.6932640    -1.3344870    -0.0264310
  C        2.7508540     0.0254460     0.4069810
  C        1.2677205     0.6133286     0.3946138
  C       -3.5492030     0.3621160    -0.4101590
  C        3.6709050     0.8409920    -0.4958550
  C        0.2704120    -0.1024690    -0.0006590
  C       -2.1631840    -0.2004740    -0.4090490
  C       -1.0635270     0.4697970    -0.0176060
  C       -4.4702810    -0.3835230     0.5583970
  H        3.1361180     0.0688010     1.4404840
  H        1.2655190     1.6118880     0.7253080
  H       -3.5113520     1.4248880    -0.1442750
  H       -3.9713450     0.3050270    -1.4220020
  H        3.3060070     0.7827570    -1.5237190
  H        3.6990520     1.8899320    -0.1870900
  H        4.6948240     0.4527130    -0.4608140
  H        0.3841050    -1.1350190    -0.3229170
  H       -2.0573220    -1.2386810    -0.7303930
  H       -1.1648060     1.5075440     0.3065060
  H       -4.5255200    -1.4457790     0.3033390
  H       -5.4853170     0.0231860     0.5310900
  H       -4.0942820    -0.3029910     1.5815520
  H        3.6028580    -1.6773980    -0.0043180
units angstrom
no_reorient  #important for SAPT in psi4, default
symmetry c1  #important for SAPT in psi4, default
}

set PROPERTIES_ORIGIN ["COM"]
properties('MP2/aug-cc-pvtz', properties = ['dipole'])
--------------------------------------------------------------------------

    Molecular point group: c1
  Charge       = 0
  Multiplicity = 1
  Basis Set: AUG-CC-PVTZ
    Blend: AUG-CC-PVTZ
  Basis Set: (AUG-CC-PVTZ AUX)
    Blend: AUG-CC-PVTZ-JKFIT

    Orbital Energies [Eh]
    ---------------------

    Doubly Occupied:

       1A    -20.558143     2A    -11.288948     3A    -11.223750
       4A    -11.222173     5A    -11.220969     6A    -11.219525
       7A    -11.218057     8A    -11.215006     9A    -11.212108
      10A     -1.358206    11A     -1.101763    12A     -1.059158
      13A     -1.012615    14A     -0.965202    15A     -0.868820
      16A     -0.825919    17A     -0.754923    18A     -0.751159
      19A     -0.690935    20A     -0.637447    21A     -0.631266
      22A     -0.614066    23A     -0.588344    24A     -0.585810
      25A     -0.552948    26A     -0.543385    27A     -0.524385
      28A     -0.519089    29A     -0.505196    30A     -0.488365
      31A     -0.477466    32A     -0.452567    33A     -0.447260
      34A     -0.425525    35A     -0.304597

  @DF-RHF Final Energy:  -386.05479807404049

   => Energetics <=

    Nuclear Repulsion Energy =            417.7694850920910312
    One-Electron Energy =               -1351.5183746807065290
    Two-Electron Energy =                 547.6940915145750068
    Total Energy =                       -386.0547980740404910
  Basis Set: (AUG-CC-PVTZ AUX)
    Blend: AUG-CC-PVTZ-RI
    Molecular point group: c1

    Geometry (in Angstrom), charge = 0, multiplicity = 1:

       Center              X                  Y                   Z               Mass
    ------------   -----------------  -----------------  -----------------  -----------------
         O            2.702110006015    -1.337993330160    -0.026357099296    15.994914619570
         C            2.759700006015     0.021939669840     0.407054900704    12.000000000000
         C            1.276566506015     0.609822269840     0.394687700704    12.000000000000
         C           -3.540356993985     0.358609669840    -0.410085099296    12.000000000000
         C            3.679751006015     0.837485669840    -0.495781099296    12.000000000000
         C            0.279258006015    -0.105975330160    -0.000585099296    12.000000000000
         C           -2.154337993985    -0.203980330160    -0.408975099296    12.000000000000
         C           -1.054680993985     0.466290669840    -0.017532099296    12.000000000000
         C           -4.461434993985    -0.387029330160     0.558470900704    12.000000000000
         H            3.144964006015     0.065294669840     1.440557900704     1.007825032230
         H            1.274365006015     1.608381669840     0.725381900704     1.007825032230
         H           -3.502505993985     1.421381669840    -0.144201099296     1.007825032230
         H           -3.962498993985     0.301520669840    -1.421928099296     1.007825032230
         H            3.314853006015     0.779250669840    -1.523645099296     1.007825032230
         H            3.707898006015     1.886425669840    -0.187016099296     1.007825032230
         H            4.703670006015     0.449206669840    -0.460740099296     1.007825032230
         H            0.392951006015    -1.138525330160    -0.322843099296     1.007825032230
         H           -2.048475993985    -1.242187330160    -0.730319099296     1.007825032230
         H           -1.155959993985     1.504037669840     0.306579900704     1.007825032230
         H           -4.516673993985    -1.449285330160     0.303412900704     1.007825032230
         H           -5.476470993985     0.019679669840     0.531163900704     1.007825032230
         H           -4.085435993985    -0.306497330160     1.581625900704     1.007825032230
         H            3.611704006015    -1.680904330160    -0.004244099296     1.007825032230

  Basis Set: AUG-CC-PVTZ
    Blend: AUG-CC-PVTZ
  Basis Set: (AUG-CC-PVTZ AUX)
    Blend: AUG-CC-PVTZ-JKFIT
	 Reference Energy          =    -386.0547980740404910 [Eh]
	 Singles Energy            =      -0.0000000000000000 [Eh]
	 Same-Spin Energy          =      -0.3992725213515269 [Eh]
	 Opposite-Spin Energy      =      -1.3768489259575385 [Eh]
	 Correlation Energy        =      -1.7761214473090654 [Eh]
	 Total Energy              =    -387.8309195213495286 [Eh]

	 ================> DF-SCS-MP2 Energies <==================
	-----------------------------------------------------------
	 SCS Same-Spin Scale       =       0.3333333333333333 [-]
	 SCS Opposite-Spin Scale   =       1.2000000000000000 [-]
	 SCS Same-Spin Energy      =      -0.1330908404505090 [Eh]
	 SCS Opposite-Spin Energy  =      -1.6522187111490461 [Eh]
	 SCS Correlation Energy    =      -1.7853095515995550 [Eh]
	 SCS Total Energy          =    -387.8401076256400302 [Eh]
	-----------------------------------------------------------

  Dipole Moment: [D]
     X:     1.2000      Y:     0.7403      Z:     0.3130     Total:     1.4443

*** Psi4 exiting successfully. Buy a developer a beer!
