                               Psi4 1.3.2 release

  ==> Input File <==

--------------------------------------------------------------------------
#psi4
#
memory 32 gb

molecule  {
0 1
  O        2.6932640    -1.3344870    -0.0264310
  C        2.7508540     0.0254460     0.4069810
  C        1.3606810     0.5764810     0.3953890
  C       -3.5492030     0.3621160    -0.4101590
  C        3.6709050     0.8409920    -0.4958550
  C        0.2704120    -0.1024690    -0.0006590
  C       -2.1631840    -0.2004740    -0.4090490
  C       -1.0635270     0.4697970    -0.0176060
  C       -4.4702810    -0.3835230     0.5583970
  H        3.1361180     0.0688010     1.4404840
  H        1.2655190     1.6118880     0.7253080
  H       -3.5182580     1.2309834    -0.1927860
  H       -3.9713450     0.3050270    -1.4220020
  H        3.3060070     0.7827570    -1.5237190
  H        3.6990520     1.8899320    -0.1870900
  H        4.6948240     0.4527130    -0.4608140
  H        0.3841050    -1.1350190    -0.3229170
  H       -2.0573220    -1.2386810    -0.7303930
  H       -1.1648060     1.5075440     0.3065060
  H       -4.5255200    -1.4457790     0.3033390
  H       -5.4853170     0.0231860     0.5310900
  H       -4.0942820    -0.3029910     1.5815520
  H        3.6028580    -1.6773980    -0.0043180
units angstrom
no_reorient  #important for SAPT in psi4, default
symmetry c1  #important for SAPT in psi4, default
}

set PROPERTIES_ORIGIN ["COM"]
properties('MP2/aug-cc-pvtz', properties = ['dipole'])
--------------------------------------------------------------------------

    Molecular point group: c1
  Charge       = 0
  Multiplicity = 1
  Basis Set: AUG-CC-PVTZ
    Blend: AUG-CC-PVTZ
  Basis Set: (AUG-CC-PVTZ AUX)
    Blend: AUG-CC-PVTZ-JKFIT

    Orbital Energies [Eh]
    ---------------------

    Doubly Occupied:

       1A    -20.558493     2A    -11.286250     3A    -11.224918
       4A    -11.223324     5A    -11.222574     6A    -11.221468
       7A    -11.220377     8A    -11.211471     9A    -11.198105
      10A     -1.360384    11A     -1.101146    12A     -1.066393
      13A     -1.019083    14A     -0.962701    15A     -0.879865
      16A     -0.839171    17A     -0.763547    18A     -0.747774
      19A     -0.695357    20A     -0.645513    21A     -0.627870
      22A     -0.618534    23A     -0.594166    24A     -0.583935
      25A     -0.546339    26A     -0.543230    27A     -0.527803
      28A     -0.518605    29A     -0.503482    30A     -0.495722
      31A     -0.489576    32A     -0.467151    33A     -0.452749
      34A     -0.417984    35A     -0.297038

  @DF-RHF Final Energy:  -386.02954045956830

   => Energetics <=

    Nuclear Repulsion Energy =            418.9748037715083910
    One-Electron Energy =               -1353.7444953064903075
    Two-Electron Energy =                 548.7401510754136780
    Total Energy =                       -386.0295404595682385
  Basis Set: (AUG-CC-PVTZ AUX)
    Blend: AUG-CC-PVTZ-RI
    Molecular point group: c1

    Geometry (in Angstrom), charge = 0, multiplicity = 1:

       Center              X                  Y                   Z               Mass
    ------------   -----------------  -----------------  -----------------  -----------------
         O            2.693319151863    -1.332937259312    -0.026043167508    15.994914619570
         C            2.750909151863     0.026995740688     0.407368832492    12.000000000000
         C            1.360736151863     0.578030740688     0.395776832492    12.000000000000
         C           -3.549147848137     0.363665740688    -0.409771167508    12.000000000000
         C            3.670960151863     0.842541740688    -0.495467167508    12.000000000000
         C            0.270467151863    -0.100919259312    -0.000271167508    12.000000000000
         C           -2.163128848137    -0.198924259312    -0.408661167508    12.000000000000
         C           -1.063471848137     0.471346740688    -0.017218167508    12.000000000000
         C           -4.470225848137    -0.381973259312     0.558784832492    12.000000000000
         H            3.136173151863     0.070350740688     1.440871832492     1.007825032230
         H            1.265574151863     1.613437740688     0.725695832492     1.007825032230
         H           -3.518202848137     1.232533140688    -0.192398167508     1.007825032230
         H           -3.971289848137     0.306576740688    -1.421614167508     1.007825032230
         H            3.306062151863     0.784306740688    -1.523331167508     1.007825032230
         H            3.699107151863     1.891481740688    -0.186702167508     1.007825032230
         H            4.694879151863     0.454262740688    -0.460426167508     1.007825032230
         H            0.384160151863    -1.133469259312    -0.322529167508     1.007825032230
         H           -2.057266848137    -1.237131259312    -0.730005167508     1.007825032230
         H           -1.164750848137     1.509093740688     0.306893832492     1.007825032230
         H           -4.525464848137    -1.444229259312     0.303726832492     1.007825032230
         H           -5.485261848137     0.024735740688     0.531477832492     1.007825032230
         H           -4.094226848137    -0.301441259312     1.581939832492     1.007825032230
         H            3.602913151863    -1.675848259312    -0.003930167508     1.007825032230

  Basis Set: AUG-CC-PVTZ
    Blend: AUG-CC-PVTZ
  Basis Set: (AUG-CC-PVTZ AUX)
    Blend: AUG-CC-PVTZ-JKFIT
	 Reference Energy          =    -386.0295404595682953 [Eh]
	 Singles Energy            =      -0.0000000000000000 [Eh]
	 Same-Spin Energy          =      -0.4003265300326863 [Eh]
	 Opposite-Spin Energy      =      -1.3775159447152934 [Eh]
	 Correlation Energy        =      -1.7778424747479797 [Eh]
	 Total Energy              =    -387.8073829343162515 [Eh]

	 ================> DF-SCS-MP2 Energies <==================
	-----------------------------------------------------------
	 SCS Same-Spin Scale       =       0.3333333333333333 [-]
	 SCS Opposite-Spin Scale   =       1.2000000000000000 [-]
	 SCS Same-Spin Energy      =      -0.1334421766775621 [Eh]
	 SCS Opposite-Spin Energy  =      -1.6530191336583520 [Eh]
	 SCS Correlation Energy    =      -1.7864613103359139 [Eh]
	 SCS Total Energy          =    -387.8160017699042328 [Eh]
	-----------------------------------------------------------

  Dipole Moment: [D]
     X:     1.1822      Y:     0.8265      Z:     0.3084     Total:     1.4751

*** Psi4 exiting successfully. Buy a developer a beer!
