                               Psi4 1.3.2 release

  ==> Input File <==

--------------------------------------------------------------------------
#psi4
#
memory 32 gb

molecule  {
0 1
  O        2.6932640    -1.3344870    -0.0264310
  C        2.7508540     0.0254460     0.4069810
  C        1.3399998     0.5197930     0.4452734
  C       -3.5492030     0.3621160    -0.4101590
  C        3.7306319     0.7919327    -0.4757735
  C        0.2704120    -0.1024690    -0.0006590
  C       -2.1631840    -0.2004740    -0.4090490
  C       -1.0635270     0.4697970    -0.0176060
  C       -4.4702810    -0.3835230     0.5583970
  H        3.1361180     0.0688010     1.4404840
  H        1.2655190     1.6118880     0.7253080
  H       -3.5113520     1.4248880    -0.1442750
  H       -3.9713450     0.3050270    -1.4220020
  H        3.3060070     0.7827570    -1.5237190
  H        3.6990520     1.8899320    -0.1870900
  H        4.6948240     0.4527130    -0.4608140
  H        0.3841050    -1.1350190    -0.3229170
  H       -2.0573220    -1.2386810    -0.7303930
  H       -1.1648060     1.5075440     0.3065060
  H       -4.5255200    -1.4457790     0.3033390
  H       -5.4853170     0.0231860     0.5310900
  H       -4.0942820    -0.3029910     1.5815520
  H        3.6028580    -1.6773980    -0.0043180
units angstrom
no_reorient  #important for SAPT in psi4, default
symmetry c1  #important for SAPT in psi4, default
}

set PROPERTIES_ORIGIN ["COM"]
properties('MP2/aug-cc-pvtz', properties = ['dipole'])
--------------------------------------------------------------------------

    Molecular point group: c1
  Charge       = 0
  Multiplicity = 1
  Basis Set: AUG-CC-PVTZ
    Blend: AUG-CC-PVTZ
  Basis Set: (AUG-CC-PVTZ AUX)
    Blend: AUG-CC-PVTZ-JKFIT

    Orbital Energies [Eh]
    ---------------------

    Doubly Occupied:

       1A    -20.556056     2A    -11.286769     3A    -11.227247
       4A    -11.224110     5A    -11.223867     6A    -11.223125
       7A    -11.222680     8A    -11.219510     9A    -11.213347
      10A     -1.359831    11A     -1.100205    12A     -1.061832
      13A     -1.016353    14A     -0.966859    15A     -0.879278
      16A     -0.831728    17A     -0.753511    18A     -0.740889
      19A     -0.694062    20A     -0.638170    21A     -0.632991
      22A     -0.616521    23A     -0.593950    24A     -0.582348
      25A     -0.553059    26A     -0.536260    27A     -0.524324
      28A     -0.517907    29A     -0.496048    30A     -0.490183
      31A     -0.479787    32A     -0.468627    33A     -0.449802
      34A     -0.420259    35A     -0.302633

  @DF-RHF Final Energy:  -386.05185438932847

   => Energetics <=

    Nuclear Repulsion Energy =            418.0860843456125053
    One-Electron Energy =               -1352.0676193270624026
    Two-Electron Energy =                 547.9296805921213718
    Total Energy =                       -386.0518543893284686
  Basis Set: (AUG-CC-PVTZ AUX)
    Blend: AUG-CC-PVTZ-RI
    Molecular point group: c1

    Geometry (in Angstrom), charge = 0, multiplicity = 1:

       Center              X                  Y                   Z               Mass
    ------------   -----------------  -----------------  -----------------  -----------------
         O            2.689548401641    -1.324424113566    -0.033088765772    15.994914619570
         C            2.747138401641     0.035508886434     0.400323234228    12.000000000000
         C            1.336284201641     0.529855886434     0.438615634228    12.000000000000
         C           -3.552918598359     0.372178886434    -0.416816765772    12.000000000000
         C            3.726916301641     0.801995586434    -0.482431265772    12.000000000000
         C            0.266696401641    -0.092406113566    -0.007316765772    12.000000000000
         C           -2.166899598359    -0.190411113566    -0.415706765772    12.000000000000
         C           -1.067242598359     0.479859886434    -0.024263765772    12.000000000000
         C           -4.473996598359    -0.373460113566     0.551739234228    12.000000000000
         H            3.132402401641     0.078863886434     1.433826234228     1.007825032230
         H            1.261803401641     1.621950886434     0.718650234228     1.007825032230
         H           -3.515067598359     1.434950886434    -0.150932765772     1.007825032230
         H           -3.975060598359     0.315089886434    -1.428659765772     1.007825032230
         H            3.302291401641     0.792819886434    -1.530376765772     1.007825032230
         H            3.695336401641     1.899994886434    -0.193747765772     1.007825032230
         H            4.691108401641     0.462775886434    -0.467471765772     1.007825032230
         H            0.380389401641    -1.124956113566    -0.329574765772     1.007825032230
         H           -2.061037598359    -1.228618113566    -0.737050765772     1.007825032230
         H           -1.168521598359     1.517606886434     0.299848234228     1.007825032230
         H           -4.529235598359    -1.435716113566     0.296681234228     1.007825032230
         H           -5.489032598359     0.033248886434     0.524432234228     1.007825032230
         H           -4.097997598359    -0.292928113566     1.574894234228     1.007825032230
         H            3.599142401641    -1.667335113566    -0.010975765772     1.007825032230

  Basis Set: AUG-CC-PVTZ
    Blend: AUG-CC-PVTZ
  Basis Set: (AUG-CC-PVTZ AUX)
    Blend: AUG-CC-PVTZ-JKFIT
	 Reference Energy          =    -386.0518543893284686 [Eh]
	 Singles Energy            =      -0.0000000000000000 [Eh]
	 Same-Spin Energy          =      -0.4002218054162439 [Eh]
	 Opposite-Spin Energy      =      -1.3781568524278072 [Eh]
	 Correlation Energy        =      -1.7783786578440510 [Eh]
	 Total Energy              =    -387.8302330471724986 [Eh]

	 ================> DF-SCS-MP2 Energies <==================
	-----------------------------------------------------------
	 SCS Same-Spin Scale       =       0.3333333333333333 [-]
	 SCS Opposite-Spin Scale   =       1.2000000000000000 [-]
	 SCS Same-Spin Energy      =      -0.1334072684720813 [Eh]
	 SCS Opposite-Spin Energy  =      -1.6537882229133685 [Eh]
	 SCS Correlation Energy    =      -1.7871954913854498 [Eh]
	 SCS Total Energy          =    -387.8390498807139011 [Eh]
	-----------------------------------------------------------

  Dipole Moment: [D]
     X:     1.1732      Y:     0.7042      Z:     0.2265     Total:     1.3870

*** Psi4 exiting successfully. Buy a developer a beer!
