                               Psi4 1.3.2 release

  ==> Input File <==

--------------------------------------------------------------------------
#psi4
#
memory 32 gb

molecule  {
0 1
  O        2.6932640    -1.3344870    -0.0264310
  C        2.7261616     0.0272066     0.4040205
  C        1.3606810     0.5764810     0.3953890
  C       -3.5492030     0.3621160    -0.4101590
  C        3.6709050     0.8409920    -0.4958550
  C        0.2704120    -0.1024690    -0.0006590
  C       -2.1631840    -0.2004740    -0.4090490
  C       -1.0635270     0.4697970    -0.0176060
  C       -4.4702810    -0.3835230     0.5583970
  H        3.1361180     0.0688010     1.4404840
  H        1.2655190     1.6118880     0.7253080
  H       -3.5113520     1.4248880    -0.1442750
  H       -3.9713450     0.3050270    -1.4220020
  H        3.3060070     0.7827570    -1.5237190
  H        3.6990520     1.8899320    -0.1870900
  H        4.6948240     0.4527130    -0.4608140
  H        0.3841050    -1.1350190    -0.3229170
  H       -2.0573220    -1.2386810    -0.7303930
  H       -1.1648060     1.5075440     0.3065060
  H       -4.5255200    -1.4457790     0.3033390
  H       -5.4853170     0.0231860     0.5310900
  H       -4.0942820    -0.3029910     1.5815520
  H        3.5971736    -1.6924113    -0.0098206
units angstrom
no_reorient  #important for SAPT in psi4, default
symmetry c1  #important for SAPT in psi4, default
}

set PROPERTIES_ORIGIN ["COM"]
properties('MP2/aug-cc-pvtz', properties = ['dipole'])
--------------------------------------------------------------------------

    Molecular point group: c1
  Charge       = 0
  Multiplicity = 1
  Basis Set: AUG-CC-PVTZ
    Blend: AUG-CC-PVTZ
  Basis Set: (AUG-CC-PVTZ AUX)
    Blend: AUG-CC-PVTZ-JKFIT

    Orbital Energies [Eh]
    ---------------------

    Doubly Occupied:

       1A    -20.557437     2A    -11.286931     3A    -11.226284
       4A    -11.223882     5A    -11.223457     6A    -11.223112
       7A    -11.221620     8A    -11.220486     9A    -11.212993
      10A     -1.359096    11A     -1.098990    12A     -1.063045
      13A     -1.015150    14A     -0.962260    15A     -0.878309
      16A     -0.828748    17A     -0.752392    18A     -0.749737
      19A     -0.693746    20A     -0.638751    21A     -0.627933
      22A     -0.614822    23A     -0.590319    24A     -0.583455
      25A     -0.545476    26A     -0.542506    27A     -0.528421
      28A     -0.519146    29A     -0.502071    30A     -0.491552
      31A     -0.479560    32A     -0.470037    33A     -0.451147
      34A     -0.417039    35A     -0.297301

  @DF-RHF Final Energy:  -386.06189901433169

   => Energetics <=

    Nuclear Repulsion Energy =            418.2018229328653547
    One-Electron Energy =               -1352.3330181218566395
    Two-Electron Energy =                 548.0692961746597121
    Total Energy =                       -386.0618990143316296
  Basis Set: (AUG-CC-PVTZ AUX)
    Blend: AUG-CC-PVTZ-RI
    Molecular point group: c1

    Geometry (in Angstrom), charge = 0, multiplicity = 1:

       Center              X                  Y                   Z               Mass
    ------------   -----------------  -----------------  -----------------  -----------------
         O            2.695659097882    -1.334534493240    -0.026105171198    15.994914619570
         C            2.728556697882     0.027159106760     0.404346328802    12.000000000000
         C            1.363076097882     0.576433506760     0.395714828802    12.000000000000
         C           -3.546807902118     0.362068506760    -0.409833171198    12.000000000000
         C            3.673300097882     0.840944506760    -0.495529171198    12.000000000000
         C            0.272807097882    -0.102516493240    -0.000333171198    12.000000000000
         C           -2.160788902118    -0.200521493240    -0.408723171198    12.000000000000
         C           -1.061131902118     0.469749506760    -0.017280171198    12.000000000000
         C           -4.467885902118    -0.383570493240     0.558722828802    12.000000000000
         H            3.138513097882     0.068753506760     1.440809828802     1.007825032230
         H            1.267914097882     1.611840506760     0.725633828802     1.007825032230
         H           -3.508956902118     1.424840506760    -0.143949171198     1.007825032230
         H           -3.968949902118     0.304979506760    -1.421676171198     1.007825032230
         H            3.308402097882     0.782709506760    -1.523393171198     1.007825032230
         H            3.701447097882     1.889884506760    -0.186764171198     1.007825032230
         H            4.697219097882     0.452665506760    -0.460488171198     1.007825032230
         H            0.386500097882    -1.135066493240    -0.322591171198     1.007825032230
         H           -2.054926902118    -1.238728493240    -0.730067171198     1.007825032230
         H           -1.162410902118     1.507496506760     0.306831828802     1.007825032230
         H           -4.523124902118    -1.445826493240     0.303664828802     1.007825032230
         H           -5.482921902118     0.023138506760     0.531415828802     1.007825032230
         H           -4.091886902118    -0.303038493240     1.581877828802     1.007825032230
         H            3.599568697882    -1.692458793240    -0.009494771198     1.007825032230

  Basis Set: AUG-CC-PVTZ
    Blend: AUG-CC-PVTZ
  Basis Set: (AUG-CC-PVTZ AUX)
    Blend: AUG-CC-PVTZ-JKFIT
	 Reference Energy          =    -386.0618990143316864 [Eh]
	 Singles Energy            =      -0.0000000000000000 [Eh]
	 Same-Spin Energy          =      -0.4004405099812656 [Eh]
	 Opposite-Spin Energy      =      -1.3782757156686927 [Eh]
	 Correlation Energy        =      -1.7787162256499582 [Eh]
	 Total Energy              =    -387.8406152399816165 [Eh]

	 ================> DF-SCS-MP2 Energies <==================
	-----------------------------------------------------------
	 SCS Same-Spin Scale       =       0.3333333333333333 [-]
	 SCS Opposite-Spin Scale   =       1.2000000000000000 [-]
	 SCS Same-Spin Energy      =      -0.1334801699937552 [Eh]
	 SCS Opposite-Spin Energy  =      -1.6539308588024311 [Eh]
	 SCS Correlation Energy    =      -1.7874110287961862 [Eh]
	 SCS Total Energy          =    -387.8493100431279004 [Eh]
	-----------------------------------------------------------

  Dipole Moment: [D]
     X:     1.1607      Y:     0.7099      Z:     0.3044     Total:     1.3943

*** Psi4 exiting successfully. Buy a developer a beer!
