                               Psi4 1.3.2 release

  ==> Input File <==

--------------------------------------------------------------------------
#psi4
#
memory 32 gb

molecule  {
0 1
  O        2.6932640    -1.3344870    -0.0264310
  C        2.7508540     0.0254460     0.4069810
  C        1.3606810     0.5764810     0.3953890
  C       -3.5492030     0.3621160    -0.4101590
  C        3.6709050     0.8409920    -0.4958550
  C        0.4326464    -0.0014397     0.0582738
  C       -2.1631840    -0.2004740    -0.4090490
  C       -1.0635270     0.4697970    -0.0176060
  C       -4.4702810    -0.3835230     0.5583970
  H        3.1361180     0.0688010     1.4404840
  H        1.2655190     1.6118880     0.7253080
  H       -3.5113520     1.4248880    -0.1442750
  H       -3.9713450     0.3050270    -1.4220020
  H        3.3060070     0.7827570    -1.5237190
  H        3.6990520     1.8899320    -0.1870900
  H        4.6948240     0.4527130    -0.4608140
  H        0.3841050    -1.1350190    -0.3229170
  H       -2.0573220    -1.2386810    -0.7303930
  H       -1.1648060     1.5075440     0.3065060
  H       -4.5255200    -1.4457790     0.3033390
  H       -5.4853170     0.0231860     0.5310900
  H       -4.0942820    -0.3029910     1.5815520
  H        3.6028580    -1.6773980    -0.0043180
units angstrom
no_reorient  #important for SAPT in psi4, default
symmetry c1  #important for SAPT in psi4, default
}

set PROPERTIES_ORIGIN ["COM"]
properties('MP2/aug-cc-pvtz', properties = ['dipole'])
--------------------------------------------------------------------------

    Molecular point group: c1
  Charge       = 0
  Multiplicity = 1
  Basis Set: AUG-CC-PVTZ
    Blend: AUG-CC-PVTZ
  Basis Set: (AUG-CC-PVTZ AUX)
    Blend: AUG-CC-PVTZ-JKFIT

    Orbital Energies [Eh]
    ---------------------

    Doubly Occupied:

       1A    -20.557988     2A    -11.285976     3A    -11.229710
       4A    -11.227318     5A    -11.224112     6A    -11.220884
       7A    -11.212855     8A    -11.208382     9A    -11.191911
      10A     -1.360604    11A     -1.117629    12A     -1.072799
      13A     -1.012626    14A     -0.975202    15A     -0.868056
      16A     -0.836029    17A     -0.751897    18A     -0.733843
      19A     -0.690108    20A     -0.642241    21A     -0.630440
      22A     -0.617070    23A     -0.593901    24A     -0.586124
      25A     -0.545948    26A     -0.544209    27A     -0.527638
      28A     -0.520000    29A     -0.495521    30A     -0.493639
      31A     -0.478844    32A     -0.461859    33A     -0.428545
      34A     -0.420415    35A     -0.329738

  @DF-RHF Final Energy:  -385.99252919411344

   => Energetics <=

    Nuclear Repulsion Energy =            419.6570148101662880
    One-Electron Energy =               -1355.1109664530561076
    Two-Electron Energy =                 549.4614224487763749
    Total Energy =                       -385.9925291941134446
  Basis Set: (AUG-CC-PVTZ AUX)
    Blend: AUG-CC-PVTZ-RI
    Molecular point group: c1

    Geometry (in Angstrom), charge = 0, multiplicity = 1:

       Center              X                  Y                   Z               Mass
    ------------   -----------------  -----------------  -----------------  -----------------
         O            2.677825863512    -1.344100809381    -0.032038864804    15.994914619570
         C            2.735415863512     0.015832190619     0.401373135196    12.000000000000
         C            1.345242863512     0.566867190619     0.389781135196    12.000000000000
         C           -3.564641136488     0.352502190619    -0.415766864804    12.000000000000
         C            3.655466863512     0.831378190619    -0.501462864804    12.000000000000
         C            0.417208263512    -0.011053509381     0.052665935196    12.000000000000
         C           -2.178622136488    -0.210087809381    -0.414656864804    12.000000000000
         C           -1.078965136488     0.460183190619    -0.023213864804    12.000000000000
         C           -4.485719136488    -0.393136809381     0.552789135196    12.000000000000
         H            3.120679863512     0.059187190619     1.434876135196     1.007825032230
         H            1.250080863512     1.602274190619     0.719700135196     1.007825032230
         H           -3.526790136488     1.415274190619    -0.149882864804     1.007825032230
         H           -3.986783136488     0.295413190619    -1.427609864804     1.007825032230
         H            3.290568863512     0.773143190619    -1.529326864804     1.007825032230
         H            3.683613863512     1.880318190619    -0.192697864804     1.007825032230
         H            4.679385863512     0.443099190619    -0.466421864804     1.007825032230
         H            0.368666863512    -1.144632809381    -0.328524864804     1.007825032230
         H           -2.072760136488    -1.248294809381    -0.736000864804     1.007825032230
         H           -1.180244136488     1.497930190619     0.300898135196     1.007825032230
         H           -4.540958136488    -1.455392809381     0.297731135196     1.007825032230
         H           -5.500755136488     0.013572190619     0.525482135196     1.007825032230
         H           -4.109720136488    -0.312604809381     1.575944135196     1.007825032230
         H            3.587419863512    -1.687011809381    -0.009925864804     1.007825032230

  Basis Set: AUG-CC-PVTZ
    Blend: AUG-CC-PVTZ
  Basis Set: (AUG-CC-PVTZ AUX)
    Blend: AUG-CC-PVTZ-JKFIT
	 Reference Energy          =    -385.9925291941134446 [Eh]
	 Singles Energy            =      -0.0000000000000000 [Eh]
	 Same-Spin Energy          =      -0.3990164406436899 [Eh]
	 Opposite-Spin Energy      =      -1.3755854203887599 [Eh]
	 Correlation Energy        =      -1.7746018610324499 [Eh]
	 Total Energy              =    -387.7671310551459101 [Eh]

	 ================> DF-SCS-MP2 Energies <==================
	-----------------------------------------------------------
	 SCS Same-Spin Scale       =       0.3333333333333333 [-]
	 SCS Opposite-Spin Scale   =       1.2000000000000000 [-]
	 SCS Same-Spin Energy      =      -0.1330054802145633 [Eh]
	 SCS Opposite-Spin Energy  =      -1.6507025044665118 [Eh]
	 SCS Correlation Energy    =      -1.7837079846810751 [Eh]
	 SCS Total Energy          =    -387.7762371787945312 [Eh]
	-----------------------------------------------------------

  Dipole Moment: [D]
     X:     1.2184      Y:     0.7556      Z:     0.3283     Total:     1.4708

*** Psi4 exiting successfully. Buy a developer a beer!
