                               Psi4 1.3.2 release

  ==> Input File <==

--------------------------------------------------------------------------
#psi4
#
memory 32 gb

molecule  {
0 1
  O        2.6809090    -1.3334851    -0.0277536
  C        2.7508540     0.0254460     0.4069810
  C        1.3562112     0.5649615     0.3911903
  C       -3.5492030     0.3621160    -0.4101590
  C        3.6709050     0.8409920    -0.4958550
  C        0.2704120    -0.1024690    -0.0006590
  C       -2.1631840    -0.2004740    -0.4090490
  C       -1.0635270     0.4697970    -0.0176060
  C       -4.4702810    -0.3835230     0.5583970
  H        3.1361180     0.0688010     1.4404840
  H        1.2655190     1.6118880     0.7253080
  H       -3.5113520     1.4248880    -0.1442750
  H       -3.9713450     0.3050270    -1.4220020
  H        3.3060070     0.7827570    -1.5237190
  H        3.6990520     1.8899320    -0.1870900
  H        4.6948240     0.4527130    -0.4608140
  H        0.3841050    -1.1350190    -0.3229170
  H       -2.0573220    -1.2386810    -0.7303930
  H       -1.1648060     1.5075440     0.3065060
  H       -4.5255200    -1.4457790     0.3033390
  H       -5.4853170     0.0231860     0.5310900
  H       -4.0942820    -0.3029910     1.5815520
  H        3.6028580    -1.6773980    -0.0043180
units angstrom
no_reorient  #important for SAPT in psi4, default
symmetry c1  #important for SAPT in psi4, default
}

set PROPERTIES_ORIGIN ["COM"]
properties('MP2/aug-cc-pvtz', properties = ['dipole'])
--------------------------------------------------------------------------

    Molecular point group: c1
  Charge       = 0
  Multiplicity = 1
  Basis Set: AUG-CC-PVTZ
    Blend: AUG-CC-PVTZ
  Basis Set: (AUG-CC-PVTZ AUX)
    Blend: AUG-CC-PVTZ-JKFIT

    Orbital Energies [Eh]
    ---------------------

    Doubly Occupied:

       1A    -20.559972     2A    -11.286398     3A    -11.225789
       4A    -11.223217     5A    -11.222985     6A    -11.222156
       7A    -11.220949     8A    -11.220127     9A    -11.212719
      10A     -1.358738    11A     -1.098182    12A     -1.061249
      13A     -1.016143    14A     -0.963312    15A     -0.876307
      16A     -0.828857    17A     -0.752423    18A     -0.744670
      19A     -0.694599    20A     -0.636882    21A     -0.628634
      22A     -0.616512    23A     -0.589498    24A     -0.582112
      25A     -0.546227    26A     -0.543639    27A     -0.527118
      28A     -0.518410    29A     -0.498824    30A     -0.493110
      31A     -0.479038    32A     -0.467373    33A     -0.453009
      34A     -0.419206    35A     -0.298757

  @DF-RHF Final Energy:  -386.06158335998271

   => Energetics <=

    Nuclear Repulsion Energy =            418.2071858474736814
    One-Electron Energy =               -1352.3632569345083994
    Two-Electron Energy =                 548.0944877270519555
    Total Energy =                       -386.0615833599827056
  Basis Set: (AUG-CC-PVTZ AUX)
    Blend: AUG-CC-PVTZ-RI
    Molecular point group: c1

    Geometry (in Angstrom), charge = 0, multiplicity = 1:

       Center              X                  Y                   Z               Mass
    ------------   -----------------  -----------------  -----------------  -----------------
         O            2.682901392787    -1.332515935223    -0.027186165034    15.994914619570
         C            2.752846392787     0.026415164777     0.407548434966    12.000000000000
         C            1.358203592787     0.565930664777     0.391757734966    12.000000000000
         C           -3.547210607213     0.363085164777    -0.409591565034    12.000000000000
         C            3.672897392787     0.841961164777    -0.495287565034    12.000000000000
         C            0.272404392787    -0.101499835223    -0.000091565034    12.000000000000
         C           -2.161191607213    -0.199504835223    -0.408481565034    12.000000000000
         C           -1.061534607213     0.470766164777    -0.017038565034    12.000000000000
         C           -4.468288607213    -0.382553835223     0.558964434966    12.000000000000
         H            3.138110392787     0.069770164777     1.441051434966     1.007825032230
         H            1.267511392787     1.612857164777     0.725875434966     1.007825032230
         H           -3.509359607213     1.425857164777    -0.143707565034     1.007825032230
         H           -3.969352607213     0.305996164777    -1.421434565034     1.007825032230
         H            3.307999392787     0.783726164777    -1.523151565034     1.007825032230
         H            3.701044392787     1.890901164777    -0.186522565034     1.007825032230
         H            4.696816392787     0.453682164777    -0.460246565034     1.007825032230
         H            0.386097392787    -1.134049835223    -0.322349565034     1.007825032230
         H           -2.055329607213    -1.237711835223    -0.729825565034     1.007825032230
         H           -1.162813607213     1.508513164777     0.307073434966     1.007825032230
         H           -4.523527607213    -1.444809835223     0.303906434966     1.007825032230
         H           -5.483324607213     0.024155164777     0.531657434966     1.007825032230
         H           -4.092289607213    -0.302021835223     1.582119434966     1.007825032230
         H            3.604850392787    -1.676428835223    -0.003750565034     1.007825032230

  Basis Set: AUG-CC-PVTZ
    Blend: AUG-CC-PVTZ
  Basis Set: (AUG-CC-PVTZ AUX)
    Blend: AUG-CC-PVTZ-JKFIT
	 Reference Energy          =    -386.0615833599827056 [Eh]
	 Singles Energy            =      -0.0000000000000000 [Eh]
	 Same-Spin Energy          =      -0.4004579827116382 [Eh]
	 Opposite-Spin Energy      =      -1.3785977677700665 [Eh]
	 Correlation Energy        =      -1.7790557504817048 [Eh]
	 Total Energy              =    -387.8406391104643944 [Eh]

	 ================> DF-SCS-MP2 Energies <==================
	-----------------------------------------------------------
	 SCS Same-Spin Scale       =       0.3333333333333333 [-]
	 SCS Opposite-Spin Scale   =       1.2000000000000000 [-]
	 SCS Same-Spin Energy      =      -0.1334859942372127 [Eh]
	 SCS Opposite-Spin Energy  =      -1.6543173213240798 [Eh]
	 SCS Correlation Energy    =      -1.7878033155612925 [Eh]
	 SCS Total Energy          =    -387.8493866755439967 [Eh]
	-----------------------------------------------------------

  Dipole Moment: [D]
     X:     1.2331      Y:     0.7179      Z:     0.3050     Total:     1.4590

*** Psi4 exiting successfully. Buy a developer a beer!
