                               Psi4 1.4a3.dev225

  ==> Input File <==

--------------------------------------------------------------------------
#psi4
#
memory 32 gb

molecule  {
0 1
  O       -2.7161510     1.3794200    -0.1343610
  C       -2.7832390     0.0721360     0.4401970
  C       -1.3979030    -0.4954620     0.4743180
  C        3.5083460    -0.4405980    -0.4123350
  C       -3.7239960    -0.8239440    -0.3625680
  C       -0.3030690     0.1219220    -0.0067100
  C        2.1282810     0.1394430    -0.4544070
  C        1.0245920    -0.4684390     0.0236420
  C        4.4606410     0.4027870     0.4416180
  H       -3.1581590     0.1412460     1.4762970
  H       -1.3112260    -1.4900120     0.9147240
  H        3.4619600    -1.4629760    -0.0187660
  H        3.9104550    -0.5133060    -1.4317100
  H       -3.3684670    -0.8811940    -1.3941910
  H       -3.7626400    -1.8335820     0.0574350
  H       -4.7426360    -0.4191700    -0.3608330
  H       -0.4098077     1.1331614    -0.4467826
  H        2.0311270     1.1370710    -0.8883280
  H        1.1170930    -1.4649260     0.4609700
  H        4.5263310     1.4251690     0.0574090
  H        5.4690900    -0.0219830     0.4454750
  H        4.1044230     0.4539160     1.4740500
  H       -3.6221830     1.7324190    -0.1413340
units angstrom
no_reorient  #important for SAPT in psi4, default
symmetry c1  #important for SAPT in psi4, default
}

set PROPERTIES_ORIGIN ["COM"]
properties('MP2/aug-cc-pvtz', properties = ['dipole'])
--------------------------------------------------------------------------

    Molecular point group: c1
  Charge       = 0
  Multiplicity = 1
  Basis Set: AUG-CC-PVTZ
    Blend: AUG-CC-PVTZ
  Basis Set: (AUG-CC-PVTZ AUX)
    Blend: AUG-CC-PVTZ-JKFIT

    Orbital Energies [Eh]
    ---------------------

    Doubly Occupied:

       1A    -20.558763     2A    -11.287041     3A    -11.226581
       4A    -11.225852     5A    -11.223916     6A    -11.223651
       7A    -11.223103     8A    -11.220931     9A    -11.213158
      10A     -1.360099    11A     -1.096808    12A     -1.060542
      13A     -1.015446    14A     -0.961980    15A     -0.876227
      16A     -0.828301    17A     -0.752448    18A     -0.745717
      19A     -0.694717    20A     -0.635897    21A     -0.627339
      22A     -0.616380    23A     -0.589534    24A     -0.582725
      25A     -0.546263    26A     -0.543357    27A     -0.527452
      28A     -0.518130    29A     -0.499365    30A     -0.492030
      31A     -0.479312    32A     -0.467660    33A     -0.452827
      34A     -0.417934    35A     -0.297370

  @DF-RHF Final Energy:  -386.06168645196823

   => Energetics <=

    Nuclear Repulsion Energy =            417.4139537757078529
    One-Electron Energy =               -1350.7735733069234811
    Two-Electron Energy =                 547.2979330792475139
    Total Energy =                       -386.0616864519681712
  Basis Set: (AUG-CC-PVTZ AUX)
    Blend: AUG-CC-PVTZ-RI
    Molecular point group: c1

    Geometry (in Angstrom), charge = 0, multiplicity = 1:

       Center              X                  Y                   Z               Mass
    ------------   -----------------  -----------------  -----------------  -----------------
         O           -2.682827937606     1.362945354529    -0.132632133651    15.994914619570
         C           -2.749915937606     0.055661354529     0.441925866349    12.000000000000
         C           -1.364579937606    -0.511936645471     0.476046866349    12.000000000000
         C            3.541669062394    -0.457072645471    -0.410606133651    12.000000000000
         C           -3.690672937606    -0.840418645471    -0.360839133651    12.000000000000
         C           -0.269745937606     0.105447354529    -0.004981133651    12.000000000000
         C            2.161604062394     0.122968354529    -0.452678133651    12.000000000000
         C            1.057915062394    -0.484913645471     0.025370866349    12.000000000000
         C            4.493964062394     0.386312354529     0.443346866349    12.000000000000
         H           -3.124835937606     0.124771354529     1.478025866349     1.007825032230
         H           -1.277902937606    -1.506486645471     0.916452866349     1.007825032230
         H            3.495283062394    -1.479450645471    -0.017037133651     1.007825032230
         H            3.943778062394    -0.529780645471    -1.429981133651     1.007825032230
         H           -3.335143937606    -0.897668645471    -1.392462133651     1.007825032230
         H           -3.729316937606    -1.850056645471     0.059163866349     1.007825032230
         H           -4.709312937606    -0.435644645471    -0.359104133651     1.007825032230
         H           -0.376484637606     1.116686754529    -0.445053733651     1.007825032230
         H            2.064450062394     1.120596354529    -0.886599133651     1.007825032230
         H            1.150416062394    -1.481400645471     0.462698866349     1.007825032230
         H            4.559654062394     1.408694354529     0.059137866349     1.007825032230
         H            5.502413062394    -0.038457645471     0.447203866349     1.007825032230
         H            4.137746062394     0.437441354529     1.475778866349     1.007825032230
         H           -3.588859937606     1.715944354529    -0.139605133651     1.007825032230

  Basis Set: AUG-CC-PVTZ
    Blend: AUG-CC-PVTZ
  Basis Set: (AUG-CC-PVTZ AUX)
    Blend: AUG-CC-PVTZ-JKFIT
	 Reference Energy          =    -386.0616864519682281 [Eh]
	 Singles Energy            =      -0.0000000000000000 [Eh]
	 Same-Spin Energy          =      -0.4003429715016227 [Eh]
	 Opposite-Spin Energy      =      -1.3785860270247516 [Eh]
	 Correlation Energy        =      -1.7789289985263743 [Eh]
	 Total Energy              =    -387.8406154504946244 [Eh]

	 ================> DF-SCS-MP2 Energies <==================
	-----------------------------------------------------------
	 SCS Same-Spin Scale       =       0.3333333333333333 [-]
	 SCS Opposite-Spin Scale   =       1.2000000000000000 [-]
	 SCS Same-Spin Energy      =      -0.1334476571672076 [Eh]
	 SCS Opposite-Spin Energy  =      -1.6543032324297020 [Eh]
	 SCS Correlation Energy    =      -1.7877508895969096 [Eh]
	 SCS Total Energy          =    -387.8494373415651353 [Eh]
	-----------------------------------------------------------

  Dipole Moment: [D]
     X:    -1.2079      Y:    -0.6875      Z:     0.3918     Total:     1.4440

*** Psi4 exiting successfully. Buy a developer a beer!
