                               Psi4 1.3.2 release

  ==> Input File <==

--------------------------------------------------------------------------
#psi4
#
memory 32 gb

molecule  {
0 1
  O        2.6932640    -1.3344870    -0.0264310
  C        2.7508540     0.0254460     0.4069810
  C        1.3606810     0.5764810     0.3953890
  C       -3.5492030     0.3621160    -0.4101590
  C        3.6709050     0.8409920    -0.4958550
  C        0.2704120    -0.1024690    -0.0006590
  C       -2.1631840    -0.2004740    -0.4090490
  C       -1.0635270     0.4697970    -0.0176060
  C       -4.4702810    -0.3835230     0.5583970
  H        3.1361180     0.0688010     1.4404840
  H        1.2655190     1.6118880     0.7253080
  H       -3.5113520     1.4248880    -0.1442750
  H       -3.9713450     0.3050270    -1.4220020
  H        3.3060070     0.7827570    -1.5237190
  H        3.6990520     1.8899320    -0.1870900
  H        4.6948240     0.4527130    -0.4608140
  H        0.3841050    -1.1350190    -0.3229170
  H       -2.0670168    -1.1436023    -0.7009644
  H       -1.1648060     1.5075440     0.3065060
  H       -4.5255200    -1.4457790     0.3033390
  H       -5.4853170     0.0231860     0.5310900
  H       -4.0942820    -0.3029910     1.5815520
  H        3.6028580    -1.6773980    -0.0043180
units angstrom
no_reorient  #important for SAPT in psi4, default
symmetry c1  #important for SAPT in psi4, default
}

set PROPERTIES_ORIGIN ["COM"]
properties('MP2/aug-cc-pvtz', properties = ['dipole'])
--------------------------------------------------------------------------

    Molecular point group: c1
  Charge       = 0
  Multiplicity = 1
  Basis Set: AUG-CC-PVTZ
    Blend: AUG-CC-PVTZ
  Basis Set: (AUG-CC-PVTZ AUX)
    Blend: AUG-CC-PVTZ-JKFIT

    Orbital Energies [Eh]
    ---------------------

    Doubly Occupied:

       1A    -20.558722     2A    -11.286469     3A    -11.223532
       4A    -11.222639     5A    -11.222043     6A    -11.221689
       7A    -11.220551     8A    -11.213184     9A    -11.212641
      10A     -1.360619    11A     -1.099493    12A     -1.062110
      13A     -1.015938    14A     -0.963840    15A     -0.877591
      16A     -0.828321    17A     -0.766630    18A     -0.748142
      19A     -0.696695    20A     -0.639099    21A     -0.628714
      22A     -0.616905    23A     -0.590573    24A     -0.583295
      25A     -0.549251    26A     -0.545474    27A     -0.529544
      28A     -0.518193    29A     -0.500426    30A     -0.492491
      31A     -0.481604    32A     -0.468326    33A     -0.452960
      34A     -0.417984    35A     -0.297098

  @DF-RHF Final Energy:  -386.05679141701552

   => Energetics <=

    Nuclear Repulsion Energy =            418.4767686548681240
    One-Electron Energy =               -1352.8415483449164185
    Two-Electron Energy =                 548.3079882730327199
    Total Energy =                       -386.0567914170155746
  Basis Set: (AUG-CC-PVTZ AUX)
    Blend: AUG-CC-PVTZ-RI
    Molecular point group: c1

    Geometry (in Angstrom), charge = 0, multiplicity = 1:

       Center              X                  Y                   Z               Mass
    ------------   -----------------  -----------------  -----------------  -----------------
         O            2.693341439912    -1.335246809600    -0.026666059647    15.994914619570
         C            2.750931439912     0.024686190400     0.406745940353    12.000000000000
         C            1.360758439912     0.575721190400     0.395153940353    12.000000000000
         C           -3.549125560088     0.361356190400    -0.410394059647    12.000000000000
         C            3.670982439912     0.840232190400    -0.496090059647    12.000000000000
         C            0.270489439912    -0.103228809600    -0.000894059647    12.000000000000
         C           -2.163106560088    -0.201233809600    -0.409284059647    12.000000000000
         C           -1.063449560088     0.469037190400    -0.017841059647    12.000000000000
         C           -4.470203560088    -0.384282809600     0.558161940353    12.000000000000
         H            3.136195439912     0.068041190400     1.440248940353     1.007825032230
         H            1.265596439912     1.611128190400     0.725072940353     1.007825032230
         H           -3.511274560088     1.424128190400    -0.144510059647     1.007825032230
         H           -3.971267560088     0.304267190400    -1.422237059647     1.007825032230
         H            3.306084439912     0.781997190400    -1.523954059647     1.007825032230
         H            3.699129439912     1.889172190400    -0.187325059647     1.007825032230
         H            4.694901439912     0.451953190400    -0.461049059647     1.007825032230
         H            0.384182439912    -1.135778809600    -0.323152059647     1.007825032230
         H           -2.066939360088    -1.144362109600    -0.701199459647     1.007825032230
         H           -1.164728560088     1.506784190400     0.306270940353     1.007825032230
         H           -4.525442560088    -1.446538809600     0.303103940353     1.007825032230
         H           -5.485239560088     0.022426190400     0.530854940353     1.007825032230
         H           -4.094204560088    -0.303750809600     1.581316940353     1.007825032230
         H            3.602935439912    -1.678157809600    -0.004553059647     1.007825032230

  Basis Set: AUG-CC-PVTZ
    Blend: AUG-CC-PVTZ
  Basis Set: (AUG-CC-PVTZ AUX)
    Blend: AUG-CC-PVTZ-JKFIT
	 Reference Energy          =    -386.0567914170155177 [Eh]
	 Singles Energy            =      -0.0000000000000000 [Eh]
	 Same-Spin Energy          =      -0.4001929966135949 [Eh]
	 Opposite-Spin Energy      =      -1.3777899356690266 [Eh]
	 Correlation Energy        =      -1.7779829322826215 [Eh]
	 Total Energy              =    -387.8347743492981294 [Eh]

	 ================> DF-SCS-MP2 Energies <==================
	-----------------------------------------------------------
	 SCS Same-Spin Scale       =       0.3333333333333333 [-]
	 SCS Opposite-Spin Scale   =       1.2000000000000000 [-]
	 SCS Same-Spin Energy      =      -0.1333976655378650 [Eh]
	 SCS Opposite-Spin Energy  =      -1.6533479228028318 [Eh]
	 SCS Correlation Energy    =      -1.7867455883406969 [Eh]
	 SCS Total Energy          =    -387.8435370053562110 [Eh]
	-----------------------------------------------------------

  Dipole Moment: [D]
     X:     1.2232      Y:     0.6896      Z:     0.2980     Total:     1.4355

*** Psi4 exiting successfully. Buy a developer a beer!
