                               Psi4 1.3.2 release

  ==> Input File <==

--------------------------------------------------------------------------
#psi4
#
memory 32 gb

molecule  {
0 1
  O        2.6843939    -1.3268655    -0.0484495
  C        2.7508540     0.0254460     0.4069810
  C        1.3606810     0.5764810     0.3953890
  C       -3.5492030     0.3621160    -0.4101590
  C        3.6709050     0.8409920    -0.4958550
  C        0.2704120    -0.1024690    -0.0006590
  C       -2.1631840    -0.2004740    -0.4090490
  C       -1.0635270     0.4697970    -0.0176060
  C       -4.4702810    -0.3835230     0.5583970
  H        3.1344888     0.0879935     1.4401066
  H        1.2655190     1.6118880     0.7253080
  H       -3.5113520     1.4248880    -0.1442750
  H       -3.9713450     0.3050270    -1.4220020
  H        3.3060070     0.7827570    -1.5237190
  H        3.6990520     1.8899320    -0.1870900
  H        4.6948240     0.4527130    -0.4608140
  H        0.3841050    -1.1350190    -0.3229170
  H       -2.0573220    -1.2386810    -0.7303930
  H       -1.1648060     1.5075440     0.3065060
  H       -4.5255200    -1.4457790     0.3033390
  H       -5.4853170     0.0231860     0.5310900
  H       -4.0942820    -0.3029910     1.5815520
  H        3.6028580    -1.6773980    -0.0043180
units angstrom
no_reorient  #important for SAPT in psi4, default
symmetry c1  #important for SAPT in psi4, default
}

set PROPERTIES_ORIGIN ["COM"]
properties('MP2/aug-cc-pvtz', properties = ['dipole'])
--------------------------------------------------------------------------

    Molecular point group: c1
  Charge       = 0
  Multiplicity = 1
  Basis Set: AUG-CC-PVTZ
    Blend: AUG-CC-PVTZ
  Basis Set: (AUG-CC-PVTZ AUX)
    Blend: AUG-CC-PVTZ-JKFIT

    Orbital Energies [Eh]
    ---------------------

    Doubly Occupied:

       1A    -20.560871     2A    -11.286484     3A    -11.225691
       4A    -11.223339     5A    -11.223065     6A    -11.222719
       7A    -11.221371     8A    -11.220004     9A    -11.212694
      10A     -1.359180    11A     -1.097532    12A     -1.060913
      13A     -1.015906    14A     -0.962300    15A     -0.876223
      16A     -0.828046    17A     -0.752109    18A     -0.746813
      19A     -0.695593    20A     -0.637292    21A     -0.627752
      22A     -0.615324    23A     -0.589524    24A     -0.582212
      25A     -0.546495    26A     -0.543465    27A     -0.527405
      28A     -0.518517    29A     -0.500358    30A     -0.492672
      31A     -0.478972    32A     -0.467620    33A     -0.453249
      34A     -0.418129    35A     -0.297207

  @DF-RHF Final Energy:  -386.06122678126809

   => Energetics <=

    Nuclear Repulsion Energy =            418.1087860881362417
    One-Electron Energy =               -1352.1659400478006319
    Two-Electron Energy =                 547.9959271783964141
    Total Energy =                       -386.0612267812680329
  Basis Set: (AUG-CC-PVTZ AUX)
    Blend: AUG-CC-PVTZ-RI
    Molecular point group: c1

    Geometry (in Angstrom), charge = 0, multiplicity = 1:

       Center              X                  Y                   Z               Mass
    ------------   -----------------  -----------------  -----------------  -----------------
         O            2.685531950878    -1.327985528643    -0.045653554676    15.994914619570
         C            2.751992050878     0.024325971357     0.409776945324    12.000000000000
         C            1.361819050878     0.575360971357     0.398184945324    12.000000000000
         C           -3.548064949122     0.360995971357    -0.407363054676    12.000000000000
         C            3.672043050878     0.839871971357    -0.493059054676    12.000000000000
         C            0.271550050878    -0.103589028643     0.002136945324    12.000000000000
         C           -2.162045949122    -0.201594028643    -0.406253054676    12.000000000000
         C           -1.062388949122     0.468676971357    -0.014810054676    12.000000000000
         C           -4.469142949122    -0.384643028643     0.561192945324    12.000000000000
         H            3.135626850878     0.086873471357     1.442902545324     1.007825032230
         H            1.266657050878     1.610767971357     0.728103945324     1.007825032230
         H           -3.510213949122     1.423767971357    -0.141479054676     1.007825032230
         H           -3.970206949122     0.303906971357    -1.419206054676     1.007825032230
         H            3.307145050878     0.781636971357    -1.520923054676     1.007825032230
         H            3.700190050878     1.888811971357    -0.184294054676     1.007825032230
         H            4.695962050878     0.451592971357    -0.458018054676     1.007825032230
         H            0.385243050878    -1.136139028643    -0.320121054676     1.007825032230
         H           -2.056183949122    -1.239801028643    -0.727597054676     1.007825032230
         H           -1.163667949122     1.506423971357     0.309301945324     1.007825032230
         H           -4.524381949122    -1.446899028643     0.306134945324     1.007825032230
         H           -5.484178949122     0.022065971357     0.533885945324     1.007825032230
         H           -4.093143949122    -0.304111028643     1.584347945324     1.007825032230
         H            3.603996050878    -1.678518028643    -0.001522054676     1.007825032230

  Basis Set: AUG-CC-PVTZ
    Blend: AUG-CC-PVTZ
  Basis Set: (AUG-CC-PVTZ AUX)
    Blend: AUG-CC-PVTZ-JKFIT
	 Reference Energy          =    -386.0612267812680898 [Eh]
	 Singles Energy            =      -0.0000000000000000 [Eh]
	 Same-Spin Energy          =      -0.4005978523453170 [Eh]
	 Opposite-Spin Energy      =      -1.3788533358997097 [Eh]
	 Correlation Energy        =      -1.7794511882450266 [Eh]
	 Total Energy              =    -387.8406779695131377 [Eh]

	 ================> DF-SCS-MP2 Energies <==================
	-----------------------------------------------------------
	 SCS Same-Spin Scale       =       0.3333333333333333 [-]
	 SCS Opposite-Spin Scale   =       1.2000000000000000 [-]
	 SCS Same-Spin Energy      =      -0.1335326174484390 [Eh]
	 SCS Opposite-Spin Energy  =      -1.6546240030796515 [Eh]
	 SCS Correlation Energy    =      -1.7881566205280905 [Eh]
	 SCS Total Energy          =    -387.8493834017961603 [Eh]
	-----------------------------------------------------------

  Dipole Moment: [D]
     X:     1.2236      Y:     0.6995      Z:     0.3561     Total:     1.4537

*** Psi4 exiting successfully. Buy a developer a beer!
