                               Psi4 1.3.2 release

  ==> Input File <==

--------------------------------------------------------------------------
#psi4
#
memory 32 gb

molecule  {
0 1
  O        2.6932640    -1.3344870    -0.0264310
  C        2.7508540     0.0254460     0.4069810
  C        1.3606810     0.5764810     0.3953890
  C       -3.5492030     0.3621160    -0.4101590
  C        3.6709050     0.8409920    -0.4958550
  C        0.2704120    -0.1024690    -0.0006590
  C       -2.1631840    -0.2004740    -0.4090490
  C       -1.0635270     0.4697970    -0.0176060
  C       -4.4702810    -0.3835230     0.5583970
  H        3.1361180     0.0688010     1.4404840
  H        1.2655190     1.6118880     0.7253080
  H       -3.5113520     1.4248880    -0.1442750
  H       -3.9713450     0.3050270    -1.4220020
  H        3.3060070     0.7827570    -1.5237190
  H        3.6990520     1.8899320    -0.1870900
  H        4.6948240     0.4527130    -0.4608140
  H        0.3841050    -1.1350190    -0.3229170
  H       -2.0573220    -1.2386810    -0.7303930
  H       -1.1740816     1.6025853     0.3361896
  H       -4.5255200    -1.4457790     0.3033390
  H       -5.4853170     0.0231860     0.5310900
  H       -4.0942820    -0.3029910     1.5815520
  H        3.6028580    -1.6773980    -0.0043180
units angstrom
no_reorient  #important for SAPT in psi4, default
symmetry c1  #important for SAPT in psi4, default
}

set PROPERTIES_ORIGIN ["COM"]
properties('MP2/aug-cc-pvtz', properties = ['dipole'])
--------------------------------------------------------------------------

    Molecular point group: c1
  Charge       = 0
  Multiplicity = 1
  Basis Set: AUG-CC-PVTZ
    Blend: AUG-CC-PVTZ
  Basis Set: (AUG-CC-PVTZ AUX)
    Blend: AUG-CC-PVTZ-JKFIT

    Orbital Energies [Eh]
    ---------------------

    Doubly Occupied:

       1A    -20.559001     2A    -11.286746     3A    -11.235065
       4A    -11.226556     5A    -11.224325     6A    -11.223162
       7A    -11.222585     8A    -11.220765     9A    -11.212749
      10A     -1.360911    11A     -1.096703    12A     -1.061551
      13A     -1.015632    14A     -0.962118    15A     -0.876529
      16A     -0.828214    17A     -0.750704    18A     -0.741254
      19A     -0.693496    20A     -0.636408    21A     -0.628116
      22A     -0.616367    23A     -0.587837    24A     -0.580788
      25A     -0.546723    26A     -0.543223    27A     -0.523595
      28A     -0.518893    29A     -0.499665    30A     -0.489776
      31A     -0.478710    32A     -0.466217    33A     -0.453288
      34A     -0.419049    35A     -0.298040

  @DF-RHF Final Energy:  -386.05541523406805

   => Energetics <=

    Nuclear Repulsion Energy =            417.5602502964179621
    One-Electron Energy =               -1351.0618063402052940
    Two-Electron Energy =                 547.4461408097192816
    Total Energy =                       -386.0554152340680503
  Basis Set: (AUG-CC-PVTZ AUX)
    Blend: AUG-CC-PVTZ-RI
    Molecular point group: c1

    Geometry (in Angstrom), charge = 0, multiplicity = 1:

       Center              X                  Y                   Z               Mass
    ------------   -----------------  -----------------  -----------------  -----------------
         O            2.693338089672    -1.335246510699    -0.026668097603    15.994914619570
         C            2.750928089672     0.024686489301     0.406743902397    12.000000000000
         C            1.360755089672     0.575721489301     0.395151902397    12.000000000000
         C           -3.549128910328     0.361356489301    -0.410396097603    12.000000000000
         C            3.670979089672     0.840232489301    -0.496092097603    12.000000000000
         C            0.270486089672    -0.103228510699    -0.000896097603    12.000000000000
         C           -2.163109910328    -0.201233510699    -0.409286097603    12.000000000000
         C           -1.063452910328     0.469037489301    -0.017843097603    12.000000000000
         C           -4.470206910328    -0.384282510699     0.558159902397    12.000000000000
         H            3.136192089672     0.068041489301     1.440246902397     1.007825032230
         H            1.265593089672     1.611128489301     0.725070902397     1.007825032230
         H           -3.511277910328     1.424128489301    -0.144512097603     1.007825032230
         H           -3.971270910328     0.304267489301    -1.422239097603     1.007825032230
         H            3.306081089672     0.781997489301    -1.523956097603     1.007825032230
         H            3.699126089672     1.889172489301    -0.187327097603     1.007825032230
         H            4.694898089672     0.451953489301    -0.461051097603     1.007825032230
         H            0.384179089672    -1.135778510699    -0.323154097603     1.007825032230
         H           -2.057247910328    -1.239440510699    -0.730630097603     1.007825032230
         H           -1.174007510328     1.601825789301     0.335952502397     1.007825032230
         H           -4.525445910328    -1.446538510699     0.303101902397     1.007825032230
         H           -5.485242910328     0.022426489301     0.530852902397     1.007825032230
         H           -4.094207910328    -0.303750510699     1.581314902397     1.007825032230
         H            3.602932089672    -1.678157510699    -0.004555097603     1.007825032230

  Basis Set: AUG-CC-PVTZ
    Blend: AUG-CC-PVTZ
  Basis Set: (AUG-CC-PVTZ AUX)
    Blend: AUG-CC-PVTZ-JKFIT
	 Reference Energy          =    -386.0554152340680503 [Eh]
	 Singles Energy            =      -0.0000000000000000 [Eh]
	 Same-Spin Energy          =      -0.4006306588167857 [Eh]
	 Opposite-Spin Energy      =      -1.3792536406161622 [Eh]
	 Correlation Energy        =      -1.7798842994329478 [Eh]
	 Total Energy              =    -387.8352995335009723 [Eh]

	 ================> DF-SCS-MP2 Energies <==================
	-----------------------------------------------------------
	 SCS Same-Spin Scale       =       0.3333333333333333 [-]
	 SCS Opposite-Spin Scale   =       1.2000000000000000 [-]
	 SCS Same-Spin Energy      =      -0.1335435529389286 [Eh]
	 SCS Opposite-Spin Energy  =      -1.6551043687393945 [Eh]
	 SCS Correlation Energy    =      -1.7886479216783231 [Eh]
	 SCS Total Energy          =    -387.8440631557463689 [Eh]
	-----------------------------------------------------------

  Dipole Moment: [D]
     X:     1.2349      Y:     0.6769      Z:     0.2957     Total:     1.4389

*** Psi4 exiting successfully. Buy a developer a beer!
