                               Psi4 1.3.2 release

  ==> Input File <==

--------------------------------------------------------------------------
#psi4
#
memory 32 gb

molecule  {
0 1
  O        2.6932640    -1.3344870    -0.0264310
  C        2.7508540     0.0254460     0.4069810
  C        1.3606810     0.5764810     0.3953890
  C       -3.5492030     0.3621160    -0.4101590
  C        3.6709050     0.8409920    -0.4958550
  C        0.2704120    -0.1024690    -0.0006590
  C       -2.3484996    -0.1252537    -0.4091974
  C       -1.0635270     0.4697970    -0.0176060
  C       -4.4702810    -0.3835230     0.5583970
  H        3.1361180     0.0688010     1.4404840
  H        1.2655190     1.6118880     0.7253080
  H       -3.5113520     1.4248880    -0.1442750
  H       -3.9713450     0.3050270    -1.4220020
  H        3.3060070     0.7827570    -1.5237190
  H        3.6990520     1.8899320    -0.1870900
  H        4.6948240     0.4527130    -0.4608140
  H        0.3841050    -1.1350190    -0.3229170
  H       -2.0573220    -1.2386810    -0.7303930
  H       -1.1648060     1.5075440     0.3065060
  H       -4.5255200    -1.4457790     0.3033390
  H       -5.4853170     0.0231860     0.5310900
  H       -4.0942820    -0.3029910     1.5815520
  H        3.6028580    -1.6773980    -0.0043180
units angstrom
no_reorient  #important for SAPT in psi4, default
symmetry c1  #important for SAPT in psi4, default
}

set PROPERTIES_ORIGIN ["COM"]
properties('MP2/aug-cc-pvtz', properties = ['dipole'])
--------------------------------------------------------------------------

    Molecular point group: c1
  Charge       = 0
  Multiplicity = 1
  Basis Set: AUG-CC-PVTZ
    Blend: AUG-CC-PVTZ
  Basis Set: (AUG-CC-PVTZ AUX)
    Blend: AUG-CC-PVTZ-JKFIT

    Orbital Energies [Eh]
    ---------------------

    Doubly Occupied:

       1A    -20.558748     2A    -11.287016     3A    -11.242708
       4A    -11.236456     5A    -11.226530     6A    -11.223852
       7A    -11.220634     8A    -11.218703     9A    -11.215338
      10A     -1.360703    11A     -1.117503    12A     -1.075747
      13A     -1.014974    14A     -0.951129    15A     -0.893853
      16A     -0.830682    17A     -0.748898    18A     -0.740917
      19A     -0.694026    20A     -0.642052    21A     -0.640360
      22A     -0.617912    23A     -0.600937    24A     -0.582615
      25A     -0.547382    26A     -0.542192    27A     -0.539468
      28A     -0.519461    29A     -0.514859    30A     -0.495163
      31A     -0.480764    32A     -0.452684    33A     -0.445003
      34A     -0.406666    35A     -0.276591

  @DF-RHF Final Energy:  -385.99657613931998

   => Energetics <=

    Nuclear Repulsion Energy =            418.1075851382046267
    One-Electron Energy =               -1351.8832738628022980
    Two-Electron Energy =                 547.7791125852776304
    Total Energy =                       -385.9965761393200410
  Basis Set: (AUG-CC-PVTZ AUX)
    Blend: AUG-CC-PVTZ-RI
    Molecular point group: c1

    Geometry (in Angstrom), charge = 0, multiplicity = 1:

       Center              X                  Y                   Z               Mass
    ------------   -----------------  -----------------  -----------------  -----------------
         O            2.710898443438    -1.341644845590    -0.026416745083    15.994914619570
         C            2.768488443438     0.018288154410     0.406995254917    12.000000000000
         C            1.378315443438     0.569323154410     0.395403254917    12.000000000000
         C           -3.531568556562     0.354958154410    -0.410144745083    12.000000000000
         C            3.688539443438     0.833834154410    -0.495840745083    12.000000000000
         C            0.288046443438    -0.109626845590    -0.000644745083    12.000000000000
         C           -2.330865156562    -0.132411545590    -0.409183145083    12.000000000000
         C           -1.045892556562     0.462639154410    -0.017591745083    12.000000000000
         C           -4.452646556562    -0.390680845590     0.558411254917    12.000000000000
         H            3.153752443438     0.061643154410     1.440498254917     1.007825032230
         H            1.283153443438     1.604730154410     0.725322254917     1.007825032230
         H           -3.493717556562     1.417730154410    -0.144260745083     1.007825032230
         H           -3.953710556562     0.297869154410    -1.421987745083     1.007825032230
         H            3.323641443438     0.775599154410    -1.523704745083     1.007825032230
         H            3.716686443438     1.882774154410    -0.187075745083     1.007825032230
         H            4.712458443438     0.445555154410    -0.460799745083     1.007825032230
         H            0.401739443438    -1.142176845590    -0.322902745083     1.007825032230
         H           -2.039687556562    -1.245838845590    -0.730378745083     1.007825032230
         H           -1.147171556562     1.500386154410     0.306520254917     1.007825032230
         H           -4.507885556562    -1.452936845590     0.303353254917     1.007825032230
         H           -5.467682556562     0.016028154410     0.531104254917     1.007825032230
         H           -4.076647556562    -0.310148845590     1.581566254917     1.007825032230
         H            3.620492443438    -1.684555845590    -0.004303745083     1.007825032230

  Basis Set: AUG-CC-PVTZ
    Blend: AUG-CC-PVTZ
  Basis Set: (AUG-CC-PVTZ AUX)
    Blend: AUG-CC-PVTZ-JKFIT
	 Reference Energy          =    -385.9965761393199841 [Eh]
	 Singles Energy            =      -0.0000000000000000 [Eh]
	 Same-Spin Energy          =      -0.4060031739998601 [Eh]
	 Opposite-Spin Energy      =      -1.3865982142225082 [Eh]
	 Correlation Energy        =      -1.7926013882223684 [Eh]
	 Total Energy              =    -387.7891775275423356 [Eh]

	 ================> DF-SCS-MP2 Energies <==================
	-----------------------------------------------------------
	 SCS Same-Spin Scale       =       0.3333333333333333 [-]
	 SCS Opposite-Spin Scale   =       1.2000000000000000 [-]
	 SCS Same-Spin Energy      =      -0.1353343913332867 [Eh]
	 SCS Opposite-Spin Energy  =      -1.6639178570670097 [Eh]
	 SCS Correlation Energy    =      -1.7992522484002964 [Eh]
	 SCS Total Energy          =    -387.7958283877202916 [Eh]
	-----------------------------------------------------------

  Dipole Moment: [D]
     X:     0.9790      Y:     0.7835      Z:     0.3067     Total:     1.2909

*** Psi4 exiting successfully. Buy a developer a beer!
