                               Psi4 1.3.2 release

  ==> Input File <==

--------------------------------------------------------------------------
#psi4
#
memory 32 gb

molecule  {
0 1
  O        2.6932640    -1.3344870    -0.0264310
  C        2.7508540     0.0254460     0.4069810
  C        1.3606810     0.5764810     0.3953890
  C       -3.5492030     0.3621160    -0.4101590
  C        3.6709050     0.8409920    -0.4958550
  C        0.2406890    -0.1674712    -0.0264826
  C       -2.1631840    -0.2004740    -0.4090490
  C       -1.0635270     0.4697970    -0.0176060
  C       -4.4702810    -0.3835230     0.5583970
  H        3.1361180     0.0688010     1.4404840
  H        1.2655190     1.6118880     0.7253080
  H       -3.5113520     1.4248880    -0.1442750
  H       -3.9713450     0.3050270    -1.4220020
  H        3.3060070     0.7827570    -1.5237190
  H        3.6990520     1.8899320    -0.1870900
  H        4.6948240     0.4527130    -0.4608140
  H        0.3841050    -1.1350190    -0.3229170
  H       -2.0573220    -1.2386810    -0.7303930
  H       -1.2209679     1.5035792     0.2966099
  H       -4.5255200    -1.4457790     0.3033390
  H       -5.4853170     0.0231860     0.5310900
  H       -4.0942820    -0.3029910     1.5815520
  H        3.6028580    -1.6773980    -0.0043180
units angstrom
no_reorient  #important for SAPT in psi4, default
symmetry c1  #important for SAPT in psi4, default
}

set PROPERTIES_ORIGIN ["COM"]
properties('MP2/aug-cc-pvtz', properties = ['dipole'])
--------------------------------------------------------------------------

    Molecular point group: c1
  Charge       = 0
  Multiplicity = 1
  Basis Set: AUG-CC-PVTZ
    Blend: AUG-CC-PVTZ
  Basis Set: (AUG-CC-PVTZ AUX)
    Blend: AUG-CC-PVTZ-JKFIT

    Orbital Energies [Eh]
    ---------------------

    Doubly Occupied:

       1A    -20.558886     2A    -11.285797     3A    -11.231315
       4A    -11.228092     5A    -11.224211     6A    -11.222808
       7A    -11.222225     8A    -11.220246     9A    -11.212472
      10A     -1.360656    11A     -1.095871    12A     -1.056901
      13A     -1.016069    14A     -0.957153    15A     -0.876912
      16A     -0.826450    17A     -0.758661    18A     -0.748770
      19A     -0.696388    20A     -0.639269    21A     -0.624329
      22A     -0.616182    23A     -0.590377    24A     -0.579932
      25A     -0.547973    26A     -0.543056    27A     -0.526172
      28A     -0.519845    29A     -0.511796    30A     -0.492067
      31A     -0.478665    32A     -0.467581    33A     -0.451705
      34A     -0.414456    35A     -0.287717

  @DF-RHF Final Energy:  -386.05067210487385

   => Energetics <=

    Nuclear Repulsion Energy =            417.4564519127081894
    One-Electron Energy =               -1350.8322392895079247
    Two-Electron Energy =                 547.3251152719258243
    Total Energy =                       -386.0506721048739109
  Basis Set: (AUG-CC-PVTZ AUX)
    Blend: AUG-CC-PVTZ-RI
    Molecular point group: c1

    Geometry (in Angstrom), charge = 0, multiplicity = 1:

       Center              X                  Y                   Z               Mass
    ------------   -----------------  -----------------  -----------------  -----------------
         O            2.696541221191    -1.328269698059    -0.023894424107    15.994914619570
         C            2.754131221191     0.031663301941     0.409517575893    12.000000000000
         C            1.363958221191     0.582698301941     0.397925575893    12.000000000000
         C           -3.545925778809     0.368333301941    -0.407622424107    12.000000000000
         C            3.674182221191     0.847209301941    -0.493318424107    12.000000000000
         C            0.243966221191    -0.161253898059    -0.023946024107    12.000000000000
         C           -2.159906778809    -0.194256698059    -0.406512424107    12.000000000000
         C           -1.060249778809     0.476014301941    -0.015069424107    12.000000000000
         C           -4.467003778809    -0.377305698059     0.560933575893    12.000000000000
         H            3.139395221191     0.075018301941     1.443020575893     1.007825032230
         H            1.268796221191     1.618105301941     0.727844575893     1.007825032230
         H           -3.508074778809     1.431105301941    -0.141738424107     1.007825032230
         H           -3.968067778809     0.311244301941    -1.419465424107     1.007825032230
         H            3.309284221191     0.788974301941    -1.521182424107     1.007825032230
         H            3.702329221191     1.896149301941    -0.184553424107     1.007825032230
         H            4.698101221191     0.458930301941    -0.458277424107     1.007825032230
         H            0.387382221191    -1.128801698059    -0.320380424107     1.007825032230
         H           -2.054044778809    -1.232463698059    -0.727856424107     1.007825032230
         H           -1.217690678809     1.509796501941     0.299146475893     1.007825032230
         H           -4.522242778809    -1.439561698059     0.305875575893     1.007825032230
         H           -5.482039778809     0.029403301941     0.533626575893     1.007825032230
         H           -4.091004778809    -0.296773698059     1.584088575893     1.007825032230
         H            3.606135221191    -1.671180698059    -0.001781424107     1.007825032230

  Basis Set: AUG-CC-PVTZ
    Blend: AUG-CC-PVTZ
  Basis Set: (AUG-CC-PVTZ AUX)
    Blend: AUG-CC-PVTZ-JKFIT
	 Reference Energy          =    -386.0506721048738541 [Eh]
	 Singles Energy            =      -0.0000000000000000 [Eh]
	 Same-Spin Energy          =      -0.4012417786172492 [Eh]
	 Opposite-Spin Energy      =      -1.3804138738484997 [Eh]
	 Correlation Energy        =      -1.7816556524657488 [Eh]
	 Total Energy              =    -387.8323277573396126 [Eh]

	 ================> DF-SCS-MP2 Energies <==================
	-----------------------------------------------------------
	 SCS Same-Spin Scale       =       0.3333333333333333 [-]
	 SCS Opposite-Spin Scale   =       1.2000000000000000 [-]
	 SCS Same-Spin Energy      =      -0.1337472595390831 [Eh]
	 SCS Opposite-Spin Energy  =      -1.6564966486181996 [Eh]
	 SCS Correlation Energy    =      -1.7902439081572825 [Eh]
	 SCS Total Energy          =    -387.8409160130311193 [Eh]
	-----------------------------------------------------------

  Dipole Moment: [D]
     X:     1.2019      Y:     0.7313      Z:     0.3095     Total:     1.4405

*** Psi4 exiting successfully. Buy a developer a beer!
