                               Psi4 1.3.2 release

  ==> Input File <==

--------------------------------------------------------------------------
#psi4
#
memory 32 gb

molecule  {
0 1
  O        2.6932640    -1.3344870    -0.0264310
  C        2.7508540     0.0254460     0.4069810
  C        1.3606810     0.5764810     0.3953890
  C       -3.5492030     0.3621160    -0.4101590
  C        3.6709050     0.8409920    -0.4958550
  C        0.2882007    -0.0582516     0.0165353
  C       -2.1631840    -0.2004740    -0.4090490
  C       -1.0635270     0.4697970    -0.0176060
  C       -4.4702810    -0.3835230     0.5583970
  H        3.1361180     0.0688010     1.4404840
  H        1.2655190     1.6118880     0.7253080
  H       -3.5113520     1.4248880    -0.1442750
  H       -3.9713450     0.3050270    -1.4220020
  H        3.3060070     0.7827570    -1.5237190
  H        3.6990520     1.8899320    -0.1870900
  H        4.6948240     0.4527130    -0.4608140
  H        0.3841050    -1.1350190    -0.3229170
  H       -2.0573220    -1.2386810    -0.7303930
  H       -1.1272010     1.5086073     0.3126114
  H       -4.5255200    -1.4457790     0.3033390
  H       -5.4853170     0.0231860     0.5310900
  H       -4.0942820    -0.3029910     1.5815520
  H        3.6028580    -1.6773980    -0.0043180
units angstrom
no_reorient  #important for SAPT in psi4, default
symmetry c1  #important for SAPT in psi4, default
}

set PROPERTIES_ORIGIN ["COM"]
properties('MP2/aug-cc-pvtz', properties = ['dipole'])
--------------------------------------------------------------------------

    Molecular point group: c1
  Charge       = 0
  Multiplicity = 1
  Basis Set: AUG-CC-PVTZ
    Blend: AUG-CC-PVTZ
  Basis Set: (AUG-CC-PVTZ AUX)
    Blend: AUG-CC-PVTZ-JKFIT

    Orbital Energies [Eh]
    ---------------------

    Doubly Occupied:

       1A    -20.558502     2A    -11.287070     3A    -11.227728
       4A    -11.223821     5A    -11.223627     6A    -11.220798
       7A    -11.219692     8A    -11.216583     9A    -11.213092
      10A     -1.360475    11A     -1.100381    12A     -1.064444
      13A     -1.016448    14A     -0.966124    15A     -0.876760
      16A     -0.830612    17A     -0.755422    18A     -0.741514
      19A     -0.694254    20A     -0.637277    21A     -0.630742
      22A     -0.617200    23A     -0.591535    24A     -0.583183
      25A     -0.546054    26A     -0.543900    27A     -0.528191
      28A     -0.518965    29A     -0.495604    30A     -0.490847
      31A     -0.479612    32A     -0.462000    33A     -0.454093
      34A     -0.421469    35A     -0.303861

  @DF-RHF Final Energy:  -386.05997157067065

   => Energetics <=

    Nuclear Repulsion Energy =            418.3796250960909902
    One-Electron Energy =               -1352.6754374896961508
    Two-Electron Energy =                 548.2358408229345059
    Total Energy =                       -386.0599715706706547
  Basis Set: (AUG-CC-PVTZ AUX)
    Blend: AUG-CC-PVTZ-RI
    Molecular point group: c1

    Geometry (in Angstrom), charge = 0, multiplicity = 1:

       Center              X                  Y                   Z               Mass
    ------------   -----------------  -----------------  -----------------  -----------------
         O            2.691270662146    -1.338703132310    -0.028115856806    15.994914619570
         C            2.748860662146     0.021229867690     0.405296143194    12.000000000000
         C            1.358687662146     0.572264867690     0.393704143194    12.000000000000
         C           -3.551196337854     0.357899867690    -0.411843856806    12.000000000000
         C            3.668911662146     0.836775867690    -0.497539856806    12.000000000000
         C            0.286207362146    -0.062467732310     0.014850443194    12.000000000000
         C           -2.165177337854    -0.204690132310    -0.410733856806    12.000000000000
         C           -1.065520337854     0.465580867690    -0.019290856806    12.000000000000
         C           -4.472274337854    -0.387739132310     0.556712143194    12.000000000000
         H            3.134124662146     0.064584867690     1.438799143194     1.007825032230
         H            1.263525662146     1.607671867690     0.723623143194     1.007825032230
         H           -3.513345337854     1.420671867690    -0.145959856806     1.007825032230
         H           -3.973338337854     0.300810867690    -1.423686856806     1.007825032230
         H            3.304013662146     0.778540867690    -1.525403856806     1.007825032230
         H            3.697058662146     1.885715867690    -0.188774856806     1.007825032230
         H            4.692830662146     0.448496867690    -0.462498856806     1.007825032230
         H            0.382111662146    -1.139235132310    -0.324601856806     1.007825032230
         H           -2.059315337854    -1.242897132310    -0.732077856806     1.007825032230
         H           -1.129194337854     1.504391167690     0.310926543194     1.007825032230
         H           -4.527513337854    -1.449995132310     0.301654143194     1.007825032230
         H           -5.487310337854     0.018969867690     0.529405143194     1.007825032230
         H           -4.096275337854    -0.307207132310     1.579867143194     1.007825032230
         H            3.600864662146    -1.681614132310    -0.006002856806     1.007825032230

  Basis Set: AUG-CC-PVTZ
    Blend: AUG-CC-PVTZ
  Basis Set: (AUG-CC-PVTZ AUX)
    Blend: AUG-CC-PVTZ-JKFIT
	 Reference Energy          =    -386.0599715706706547 [Eh]
	 Singles Energy            =      -0.0000000000000000 [Eh]
	 Same-Spin Energy          =      -0.4000616979275525 [Eh]
	 Opposite-Spin Energy      =      -1.3775882713232757 [Eh]
	 Correlation Energy        =      -1.7776499692508283 [Eh]
	 Total Energy              =    -387.8376215399214857 [Eh]

	 ================> DF-SCS-MP2 Energies <==================
	-----------------------------------------------------------
	 SCS Same-Spin Scale       =       0.3333333333333333 [-]
	 SCS Opposite-Spin Scale   =       1.2000000000000000 [-]
	 SCS Same-Spin Energy      =      -0.1333538993091842 [Eh]
	 SCS Opposite-Spin Energy  =      -1.6531059255879308 [Eh]
	 SCS Correlation Energy    =      -1.7864598248971149 [Eh]
	 SCS Total Energy          =    -387.8464313955677767 [Eh]
	-----------------------------------------------------------

  Dipole Moment: [D]
     X:     1.1975      Y:     0.7339      Z:     0.3102     Total:     1.4383

*** Psi4 exiting successfully. Buy a developer a beer!
