                               Psi4 1.3.2 release

  ==> Input File <==

--------------------------------------------------------------------------
#psi4
#
memory 32 gb

molecule  {
0 1
  O        2.6932640    -1.3344870    -0.0264310
  C        2.7508540     0.0254460     0.4069810
  C        1.3606810     0.5764810     0.3953890
  C       -3.5492030     0.3621160    -0.4101590
  C        3.6709050     0.8409920    -0.4958550
  C        0.2704120    -0.1024690    -0.0006590
  C       -1.9778684    -0.2756943    -0.4089006
  C       -1.0635270     0.4697970    -0.0176060
  C       -4.4702810    -0.3835230     0.5583970
  H        3.1361180     0.0688010     1.4404840
  H        1.2655190     1.6118880     0.7253080
  H       -3.5113520     1.4248880    -0.1442750
  H       -3.9713450     0.3050270    -1.4220020
  H        3.3060070     0.7827570    -1.5237190
  H        3.6990520     1.8899320    -0.1870900
  H        4.6948240     0.4527130    -0.4608140
  H        0.3841050    -1.1350190    -0.3229170
  H       -2.0573220    -1.2386810    -0.7303930
  H       -1.1648060     1.5075440     0.3065060
  H       -4.5255200    -1.4457790     0.3033390
  H       -5.4853170     0.0231860     0.5310900
  H       -4.0942820    -0.3029910     1.5815520
  H        3.6028580    -1.6773980    -0.0043180
units angstrom
no_reorient  #important for SAPT in psi4, default
symmetry c1  #important for SAPT in psi4, default
}

set PROPERTIES_ORIGIN ["COM"]
properties('MP2/aug-cc-pvtz', properties = ['dipole'])
--------------------------------------------------------------------------

    Molecular point group: c1
  Charge       = 0
  Multiplicity = 1
  Basis Set: AUG-CC-PVTZ
    Blend: AUG-CC-PVTZ
  Basis Set: (AUG-CC-PVTZ AUX)
    Blend: AUG-CC-PVTZ-JKFIT

    Orbital Energies [Eh]
    ---------------------

    Doubly Occupied:

       1A    -20.558018     2A    -11.285040     3A    -11.226389
       4A    -11.220052     5A    -11.219719     6A    -11.218412
       7A    -11.215820     8A    -11.211583     9A    -11.209991
      10A     -1.359822    11A     -1.108604    12A     -1.053211
      13A     -1.011190    14A     -0.970271    15A     -0.866191
      16A     -0.821096    17A     -0.765082    18A     -0.747337
      19A     -0.696919    20A     -0.645839    21A     -0.621756
      22A     -0.615593    23A     -0.588231    24A     -0.584838
      25A     -0.555645    26A     -0.545194    27A     -0.533875
      28A     -0.509214    29A     -0.500504    30A     -0.487081
      31A     -0.479941    32A     -0.454163    33A     -0.434443
      34A     -0.417740    35A     -0.311148

  @DF-RHF Final Energy:  -386.02664328346299

   => Energetics <=

    Nuclear Repulsion Energy =            418.5101332328117110
    One-Electron Energy =               -1352.9736448728097002
    Two-Electron Energy =                 548.4368683565350011
    Total Energy =                       -386.0266432834629313
  Basis Set: (AUG-CC-PVTZ AUX)
    Blend: AUG-CC-PVTZ-RI
    Molecular point group: c1

    Geometry (in Angstrom), charge = 0, multiplicity = 1:

       Center              X                  Y                   Z               Mass
    ------------   -----------------  -----------------  -----------------  -----------------
         O            2.675629474988    -1.327329038462    -0.026444988333    15.994914619570
         C            2.733219474988     0.032603961538     0.406967011667    12.000000000000
         C            1.343046474988     0.583638961538     0.395375011667    12.000000000000
         C           -3.566837525012     0.369273961538    -0.410172988333    12.000000000000
         C            3.653270474988     0.848149961538    -0.495868988333    12.000000000000
         C            0.252777474988    -0.095311038462    -0.000672988333    12.000000000000
         C           -1.995502925012    -0.268536338462    -0.408914588333    12.000000000000
         C           -1.081161525012     0.476954961538    -0.017619988333    12.000000000000
         C           -4.487915525012    -0.376365038462     0.558383011667    12.000000000000
         H            3.118483474988     0.075958961538     1.440470011667     1.007825032230
         H            1.247884474988     1.619045961538     0.725294011667     1.007825032230
         H           -3.528986525012     1.432045961538    -0.144288988333     1.007825032230
         H           -3.988979525012     0.312184961538    -1.422015988333     1.007825032230
         H            3.288372474988     0.789914961538    -1.523732988333     1.007825032230
         H            3.681417474988     1.897089961538    -0.187103988333     1.007825032230
         H            4.677189474988     0.459870961538    -0.460827988333     1.007825032230
         H            0.366470474988    -1.127861038462    -0.322930988333     1.007825032230
         H           -2.074956525012    -1.231523038462    -0.730406988333     1.007825032230
         H           -1.182440525012     1.514701961538     0.306492011667     1.007825032230
         H           -4.543154525012    -1.438621038462     0.303325011667     1.007825032230
         H           -5.502951525012     0.030343961538     0.531076011667     1.007825032230
         H           -4.111916525012    -0.295833038462     1.581538011667     1.007825032230
         H            3.585223474988    -1.670240038462    -0.004331988333     1.007825032230

  Basis Set: AUG-CC-PVTZ
    Blend: AUG-CC-PVTZ
  Basis Set: (AUG-CC-PVTZ AUX)
    Blend: AUG-CC-PVTZ-JKFIT
	 Reference Energy          =    -386.0266432834629882 [Eh]
	 Singles Energy            =      -0.0000000000000000 [Eh]
	 Same-Spin Energy          =      -0.3990256154209899 [Eh]
	 Opposite-Spin Energy      =      -1.3769111161693242 [Eh]
	 Correlation Energy        =      -1.7759367315903141 [Eh]
	 Total Energy              =    -387.8025800150533087 [Eh]

	 ================> DF-SCS-MP2 Energies <==================
	-----------------------------------------------------------
	 SCS Same-Spin Scale       =       0.3333333333333333 [-]
	 SCS Opposite-Spin Scale   =       1.2000000000000000 [-]
	 SCS Same-Spin Energy      =      -0.1330085384736633 [Eh]
	 SCS Opposite-Spin Energy  =      -1.6522933394031889 [Eh]
	 SCS Correlation Energy    =      -1.7853018778768521 [Eh]
	 SCS Total Energy          =    -387.8119451613398496 [Eh]
	-----------------------------------------------------------

  Dipole Moment: [D]
     X:     1.3037      Y:     0.6815      Z:     0.3102     Total:     1.5034

*** Psi4 exiting successfully. Buy a developer a beer!
