                               Psi4 1.3.2 release

  ==> Input File <==

--------------------------------------------------------------------------
#psi4
#
memory 32 gb

molecule  {
0 1
  O        2.6932640    -1.3344870    -0.0264310
  C        2.7508540     0.0254460     0.4069810
  C        1.3672740     0.5670058     0.3933090
  C       -3.5492030     0.3621160    -0.4101590
  C        3.6709050     0.8409920    -0.4958550
  C        0.2704120    -0.1024690    -0.0006590
  C       -2.1631840    -0.2004740    -0.4090490
  C       -1.0635270     0.4697970    -0.0176060
  C       -4.4702810    -0.3835230     0.5583970
  H        3.1361180     0.0688010     1.4404840
  H        1.2655190     1.6118880     0.7253080
  H       -3.5113520     1.4248880    -0.1442750
  H       -3.9713450     0.3050270    -1.4220020
  H        3.3060070     0.7827570    -1.5237190
  H        3.6990520     1.8899320    -0.1870900
  H        4.6948240     0.4527130    -0.4608140
  H        0.3934341    -1.1344653    -0.3212600
  H       -2.0573220    -1.2386810    -0.7303930
  H       -1.1648060     1.5075440     0.3065060
  H       -4.5255200    -1.4457790     0.3033390
  H       -5.4853170     0.0231860     0.5310900
  H       -4.0942820    -0.3029910     1.5815520
  H        3.6028580    -1.6773980    -0.0043180
units angstrom
no_reorient  #important for SAPT in psi4, default
symmetry c1  #important for SAPT in psi4, default
}

set PROPERTIES_ORIGIN ["COM"]
properties('MP2/aug-cc-pvtz', properties = ['dipole'])
--------------------------------------------------------------------------

    Molecular point group: c1
  Charge       = 0
  Multiplicity = 1
  Basis Set: AUG-CC-PVTZ
    Blend: AUG-CC-PVTZ
  Basis Set: (AUG-CC-PVTZ AUX)
    Blend: AUG-CC-PVTZ-JKFIT

    Orbital Energies [Eh]
    ---------------------

    Doubly Occupied:

       1A    -20.558684     2A    -11.286169     3A    -11.226148
       4A    -11.223741     5A    -11.223330     6A    -11.223180
       7A    -11.221663     8A    -11.220763     9A    -11.212863
      10A     -1.360925    11A     -1.097890    12A     -1.061997
      13A     -1.016465    14A     -0.962663    15A     -0.877386
      16A     -0.829148    17A     -0.752606    18A     -0.746243
      19A     -0.695816    20A     -0.637380    21A     -0.628394
      22A     -0.617030    23A     -0.589966    24A     -0.582498
      25A     -0.546329    26A     -0.543089    27A     -0.527707
      28A     -0.518523    29A     -0.499426    30A     -0.492827
      31A     -0.479342    32A     -0.469092    33A     -0.453319
      34A     -0.418115    35A     -0.297415

  @DF-RHF Final Energy:  -386.06220838169617

   => Energetics <=

    Nuclear Repulsion Energy =            418.1118264807932405
    One-Electron Energy =               -1352.1518085595832872
    Two-Electron Energy =                 547.9777736970937667
    Total Energy =                       -386.0622083816962231
  Basis Set: (AUG-CC-PVTZ AUX)
    Blend: AUG-CC-PVTZ-RI
    Molecular point group: c1

    Geometry (in Angstrom), charge = 0, multiplicity = 1:

       Center              X                  Y                   Z               Mass
    ------------   -----------------  -----------------  -----------------  -----------------
         O            2.692562016578    -1.333589714737    -0.026246178292    15.994914619570
         C            2.750152016578     0.026343285263     0.407165821708    12.000000000000
         C            1.366572016578     0.567903085263     0.393493821708    12.000000000000
         C           -3.549904983422     0.363013285263    -0.409974178292    12.000000000000
         C            3.670203016578     0.841889285263    -0.495670178292    12.000000000000
         C            0.269710016578    -0.101571714737    -0.000474178292    12.000000000000
         C           -2.163885983422    -0.199576714737    -0.408864178292    12.000000000000
         C           -1.064228983422     0.470694285263    -0.017421178292    12.000000000000
         C           -4.470982983422    -0.382625714737     0.558581821708    12.000000000000
         H            3.135416016578     0.069698285263     1.440668821708     1.007825032230
         H            1.264817016578     1.612785285263     0.725492821708     1.007825032230
         H           -3.512053983422     1.425785285263    -0.144090178292     1.007825032230
         H           -3.972046983422     0.305924285263    -1.421817178292     1.007825032230
         H            3.305305016578     0.783654285263    -1.523534178292     1.007825032230
         H            3.698350016578     1.890829285263    -0.186905178292     1.007825032230
         H            4.694122016578     0.453610285263    -0.460629178292     1.007825032230
         H            0.392732116578    -1.133568014737    -0.321075178292     1.007825032230
         H           -2.058023983422    -1.237783714737    -0.730208178292     1.007825032230
         H           -1.165507983422     1.508441285263     0.306690821708     1.007825032230
         H           -4.526221983422    -1.444881714737     0.303523821708     1.007825032230
         H           -5.486018983422     0.024083285263     0.531274821708     1.007825032230
         H           -4.094983983422    -0.302093714737     1.581736821708     1.007825032230
         H            3.602156016578    -1.676500714737    -0.004133178292     1.007825032230

  Basis Set: AUG-CC-PVTZ
    Blend: AUG-CC-PVTZ
  Basis Set: (AUG-CC-PVTZ AUX)
    Blend: AUG-CC-PVTZ-JKFIT
	 Reference Energy          =    -386.0622083816961663 [Eh]
	 Singles Energy            =      -0.0000000000000000 [Eh]
	 Same-Spin Energy          =      -0.4004665741077680 [Eh]
	 Opposite-Spin Energy      =      -1.3784474944551357 [Eh]
	 Correlation Energy        =      -1.7789140685629037 [Eh]
	 Total Energy              =    -387.8411224502590926 [Eh]

	 ================> DF-SCS-MP2 Energies <==================
	-----------------------------------------------------------
	 SCS Same-Spin Scale       =       0.3333333333333333 [-]
	 SCS Opposite-Spin Scale   =       1.2000000000000000 [-]
	 SCS Same-Spin Energy      =      -0.1334888580359226 [Eh]
	 SCS Opposite-Spin Energy  =      -1.6541369933461627 [Eh]
	 SCS Correlation Energy    =      -1.7876258513820853 [Eh]
	 SCS Total Energy          =    -387.8498342330782407 [Eh]
	-----------------------------------------------------------

  Dipole Moment: [D]
     X:     1.2111      Y:     0.7245      Z:     0.3073     Total:     1.4443

*** Psi4 exiting successfully. Buy a developer a beer!
