                               Psi4 1.3.2 release

  ==> Input File <==

--------------------------------------------------------------------------
#psi4
#
memory 32 gb

molecule  {
0 1
  O        2.6932640    -1.3344870    -0.0264310
  C        2.7508540     0.0254460     0.4069810
  C        1.3606810     0.5764810     0.3953890
  C       -3.5492030     0.3621160    -0.4101590
  C        3.6709050     0.8409920    -0.4958550
  C        0.2704120    -0.1024690    -0.0006590
  C       -2.1631840    -0.2004740    -0.4090490
  C       -1.0903770     0.5075018    -0.0095595
  C       -4.4702810    -0.3835230     0.5583970
  H        3.1361180     0.0688010     1.4404840
  H        1.2655190     1.6118880     0.7253080
  H       -3.5113520     1.4248880    -0.1442750
  H       -3.9713450     0.3050270    -1.4220020
  H        3.3060070     0.7827570    -1.5237190
  H        3.6990520     1.8899320    -0.1870900
  H        4.6948240     0.4527130    -0.4608140
  H        0.3841050    -1.1350190    -0.3229170
  H       -2.0948929    -1.2398616    -0.7366955
  H       -1.1648060     1.5075440     0.3065060
  H       -4.5255200    -1.4457790     0.3033390
  H       -5.4853170     0.0231860     0.5310900
  H       -4.0942820    -0.3029910     1.5815520
  H        3.6028580    -1.6773980    -0.0043180
units angstrom
no_reorient  #important for SAPT in psi4, default
symmetry c1  #important for SAPT in psi4, default
}

set PROPERTIES_ORIGIN ["COM"]
properties('MP2/aug-cc-pvtz', properties = ['dipole'])
--------------------------------------------------------------------------

    Molecular point group: c1
  Charge       = 0
  Multiplicity = 1
  Basis Set: AUG-CC-PVTZ
    Blend: AUG-CC-PVTZ
  Basis Set: (AUG-CC-PVTZ AUX)
    Blend: AUG-CC-PVTZ-JKFIT

    Orbital Energies [Eh]
    ---------------------

    Doubly Occupied:

       1A    -20.558325     2A    -11.285793     3A    -11.226484
       4A    -11.224857     5A    -11.223267     6A    -11.221288
       7A    -11.220939     8A    -11.220085     9A    -11.212322
      10A     -1.360178    11A     -1.095293    12A     -1.060818
      13A     -1.013376    14A     -0.962127    15A     -0.874076
      16A     -0.827846    17A     -0.757389    18A     -0.746145
      19A     -0.694877    20A     -0.638257    21A     -0.625205
      22A     -0.616986    23A     -0.592014    24A     -0.579491
      25A     -0.546761    26A     -0.544589    27A     -0.532083
      28A     -0.517805    29A     -0.502074    30A     -0.493065
      31A     -0.479831    32A     -0.462027    33A     -0.452077
      34A     -0.413870    35A     -0.299780

  @DF-RHF Final Energy:  -386.06057934382784

   => Energetics <=

    Nuclear Repulsion Energy =            417.6119937437216549
    One-Electron Energy =               -1351.1823479023012169
    Two-Electron Energy =                 547.5097748147517223
    Total Energy =                       -386.0605793438278397
  Basis Set: (AUG-CC-PVTZ AUX)
    Blend: AUG-CC-PVTZ-RI
    Molecular point group: c1

    Geometry (in Angstrom), charge = 0, multiplicity = 1:

       Center              X                  Y                   Z               Mass
    ------------   -----------------  -----------------  -----------------  -----------------
         O            2.696119249811    -1.338065465289    -0.027146195722    15.994914619570
         C            2.753709249811     0.021867534711     0.406265804278    12.000000000000
         C            1.363536249811     0.572902534711     0.394673804278    12.000000000000
         C           -3.546347750189     0.358537534711    -0.410874195722    12.000000000000
         C            3.673760249811     0.837413534711    -0.496570195722    12.000000000000
         C            0.273267249811    -0.106047465289    -0.001374195722    12.000000000000
         C           -2.160328750189    -0.204052465289    -0.409764195722    12.000000000000
         C           -1.087521750189     0.503923334711    -0.010274695722    12.000000000000
         C           -4.467425750189    -0.387101465289     0.557681804278    12.000000000000
         H            3.138973249811     0.065222534711     1.439768804278     1.007825032230
         H            1.268374249811     1.608309534711     0.724592804278     1.007825032230
         H           -3.508496750189     1.421309534711    -0.144990195722     1.007825032230
         H           -3.968489750189     0.301448534711    -1.422717195722     1.007825032230
         H            3.308862249811     0.779178534711    -1.524434195722     1.007825032230
         H            3.701907249811     1.886353534711    -0.187805195722     1.007825032230
         H            4.697679249811     0.449134534711    -0.461529195722     1.007825032230
         H            0.386960249811    -1.138597465289    -0.323632195722     1.007825032230
         H           -2.092037650189    -1.243440065289    -0.737410695722     1.007825032230
         H           -1.161950750189     1.503965534711     0.305790804278     1.007825032230
         H           -4.522664750189    -1.449357465289     0.302623804278     1.007825032230
         H           -5.482461750189     0.019607534711     0.530374804278     1.007825032230
         H           -4.091426750189    -0.306569465289     1.580836804278     1.007825032230
         H            3.605713249811    -1.680976465289    -0.005033195722     1.007825032230

  Basis Set: AUG-CC-PVTZ
    Blend: AUG-CC-PVTZ
  Basis Set: (AUG-CC-PVTZ AUX)
    Blend: AUG-CC-PVTZ-JKFIT
	 Reference Energy          =    -386.0605793438278397 [Eh]
	 Singles Energy            =      -0.0000000000000000 [Eh]
	 Same-Spin Energy          =      -0.3998225987704767 [Eh]
	 Opposite-Spin Energy      =      -1.3779234749713831 [Eh]
	 Correlation Energy        =      -1.7777460737418598 [Eh]
	 Total Energy              =    -387.8383254175697061 [Eh]

	 ================> DF-SCS-MP2 Energies <==================
	-----------------------------------------------------------
	 SCS Same-Spin Scale       =       0.3333333333333333 [-]
	 SCS Opposite-Spin Scale   =       1.2000000000000000 [-]
	 SCS Same-Spin Energy      =      -0.1332741995901589 [Eh]
	 SCS Opposite-Spin Energy  =      -1.6535081699656597 [Eh]
	 SCS Correlation Energy    =      -1.7867823695558187 [Eh]
	 SCS Total Energy          =    -387.8473617133836342 [Eh]
	-----------------------------------------------------------

  Dipole Moment: [D]
     X:     1.1806      Y:     0.7357      Z:     0.3048     Total:     1.4241

*** Psi4 exiting successfully. Buy a developer a beer!
