                               Psi4 1.4a3.dev225

  ==> Input File <==

--------------------------------------------------------------------------
#psi4
#
memory 32 gb

molecule  {
0 1
  O       -2.7161510     1.3794200    -0.1343610
  C       -2.7823004     0.0904255     0.4321587
  C       -1.3979030    -0.4954620     0.4743180
  C        3.5083460    -0.4405980    -0.4123350
  C       -3.7239960    -0.8239440    -0.3625680
  C       -0.3030690     0.1219220    -0.0067100
  C        2.1282810     0.1394430    -0.4544070
  C        1.0245920    -0.4684390     0.0236420
  C        4.4606410     0.4027870     0.4416180
  H       -3.1581590     0.1412460     1.4762970
  H       -1.3112260    -1.4900120     0.9147240
  H        3.4619600    -1.4629760    -0.0187660
  H        3.9104550    -0.5133060    -1.4317100
  H       -3.3684670    -0.8811940    -1.3941910
  H       -3.7626400    -1.8335820     0.0574350
  H       -4.7426360    -0.4191700    -0.3608330
  H       -0.4078810     1.1149080    -0.4388390
  H        2.0311270     1.1370710    -0.8883280
  H        1.1170930    -1.4649260     0.4609700
  H        4.5263310     1.4251690     0.0574090
  H        5.4690900    -0.0219830     0.4454750
  H        4.1044230     0.4539160     1.4740500
  H       -3.6221830     1.7324190    -0.1413340
units angstrom
no_reorient  #important for SAPT in psi4, default
symmetry c1  #important for SAPT in psi4, default
}

set PROPERTIES_ORIGIN ["COM"]
properties('MP2/aug-cc-pvtz', properties = ['dipole'])
--------------------------------------------------------------------------

    Molecular point group: c1
  Charge       = 0
  Multiplicity = 1
  Basis Set: AUG-CC-PVTZ
    Blend: AUG-CC-PVTZ
  Basis Set: (AUG-CC-PVTZ AUX)
    Blend: AUG-CC-PVTZ-JKFIT

    Orbital Energies [Eh]
    ---------------------

    Doubly Occupied:

       1A    -20.561386     2A    -11.287334     3A    -11.226143
       4A    -11.223963     5A    -11.223564     6A    -11.223366
       7A    -11.221994     8A    -11.220504     9A    -11.212978
      10A     -1.368590    11A     -1.096604    12A     -1.059466
      13A     -1.014144    14A     -0.961376    15A     -0.875730
      16A     -0.828213    17A     -0.752318    18A     -0.748913
      19A     -0.696882    20A     -0.638564    21A     -0.626815
      22A     -0.618473    23A     -0.590247    24A     -0.583019
      25A     -0.547037    26A     -0.542646    27A     -0.529171
      28A     -0.518098    29A     -0.501598    30A     -0.491765
      31A     -0.478925    32A     -0.466271    33A     -0.451798
      34A     -0.416937    35A     -0.296787

  @DF-RHF Final Energy:  -386.06236670477381

   => Energetics <=

    Nuclear Repulsion Energy =            417.6304115815097475
    One-Electron Energy =               -1351.1823119768100696
    Two-Electron Energy =                 547.4895336905265140
    Total Energy =                       -386.0623667047738081
  Basis Set: (AUG-CC-PVTZ AUX)
    Blend: AUG-CC-PVTZ-RI
    Molecular point group: c1

    Geometry (in Angstrom), charge = 0, multiplicity = 1:

       Center              X                  Y                   Z               Mass
    ------------   -----------------  -----------------  -----------------  -----------------
         O           -2.682932652189     1.361350821247    -0.131930700589    15.994914619570
         C           -2.749082052189     0.072356321247     0.434588999411    12.000000000000
         C           -1.364684652189    -0.513531178753     0.476748299411    12.000000000000
         C            3.541564347811    -0.458667178753    -0.409904700589    12.000000000000
         C           -3.690777652189    -0.842013178753    -0.360137700589    12.000000000000
         C           -0.269850652189     0.103852821247    -0.004279700589    12.000000000000
         C            2.161499347811     0.121373821247    -0.451976700589    12.000000000000
         C            1.057810347811    -0.486508178753     0.026072299411    12.000000000000
         C            4.493859347811     0.384717821247     0.444048299411    12.000000000000
         H           -3.124940652189     0.123176821247     1.478727299411     1.007825032230
         H           -1.278007652189    -1.508081178753     0.917154299411     1.007825032230
         H            3.495178347811    -1.481045178753    -0.016335700589     1.007825032230
         H            3.943673347811    -0.531375178753    -1.429279700589     1.007825032230
         H           -3.335248652189    -0.899263178753    -1.391760700589     1.007825032230
         H           -3.729421652189    -1.851651178753     0.059865299411     1.007825032230
         H           -4.709417652189    -0.437239178753    -0.358402700589     1.007825032230
         H           -0.374662652189     1.096838821247    -0.436408700589     1.007825032230
         H            2.064345347811     1.119001821247    -0.885897700589     1.007825032230
         H            1.150311347811    -1.482995178753     0.463400299411     1.007825032230
         H            4.559549347811     1.407099821247     0.059839299411     1.007825032230
         H            5.502308347811    -0.040052178753     0.447905299411     1.007825032230
         H            4.137641347811     0.435846821247     1.476480299411     1.007825032230
         H           -3.588964652189     1.714349821247    -0.138903700589     1.007825032230

  Basis Set: AUG-CC-PVTZ
    Blend: AUG-CC-PVTZ
  Basis Set: (AUG-CC-PVTZ AUX)
    Blend: AUG-CC-PVTZ-JKFIT
	 Reference Energy          =    -386.0623667047738081 [Eh]
	 Singles Energy            =      -0.0000000000000000 [Eh]
	 Same-Spin Energy          =      -0.4002202735436261 [Eh]
	 Opposite-Spin Energy      =      -1.3780807747487169 [Eh]
	 Correlation Energy        =      -1.7783010482923429 [Eh]
	 Total Energy              =    -387.8406677530661568 [Eh]

	 ================> DF-SCS-MP2 Energies <==================
	-----------------------------------------------------------
	 SCS Same-Spin Scale       =       0.3333333333333333 [-]
	 SCS Opposite-Spin Scale   =       1.2000000000000000 [-]
	 SCS Same-Spin Energy      =      -0.1334067578478754 [Eh]
	 SCS Opposite-Spin Energy  =      -1.6536969296984603 [Eh]
	 SCS Correlation Energy    =      -1.7871036875463355 [Eh]
	 SCS Total Energy          =    -387.8494703923201428 [Eh]
	-----------------------------------------------------------

  Dipole Moment: [D]
     X:    -1.2267      Y:    -0.6216      Z:     0.3735     Total:     1.4250

*** Psi4 exiting successfully. Buy a developer a beer!
