                               Psi4 1.3.2 release

  ==> Input File <==

--------------------------------------------------------------------------
#psi4
#
memory 32 gb

molecule  {
0 1
  O        2.6192330    -1.3269253    -0.0338683
  C        2.7508540     0.0254460     0.4069810
  C        1.3354617     0.5067653     0.3702215
  C       -3.5492030     0.3621160    -0.4101590
  C        3.6709050     0.8409920    -0.4958550
  C        0.2704120    -0.1024690    -0.0006590
  C       -2.1631840    -0.2004740    -0.4090490
  C       -1.0635270     0.4697970    -0.0176060
  C       -4.4702810    -0.3835230     0.5583970
  H        3.1361180     0.0688010     1.4404840
  H        1.2655190     1.6118880     0.7253080
  H       -3.5113520     1.4248880    -0.1442750
  H       -3.9713450     0.3050270    -1.4220020
  H        3.3060070     0.7827570    -1.5237190
  H        3.6990520     1.8899320    -0.1870900
  H        4.6948240     0.4527130    -0.4608140
  H        0.3841050    -1.1350190    -0.3229170
  H       -2.0573220    -1.2386810    -0.7303930
  H       -1.1648060     1.5075440     0.3065060
  H       -4.5255200    -1.4457790     0.3033390
  H       -5.4853170     0.0231860     0.5310900
  H       -4.0942820    -0.3029910     1.5815520
  H        3.6028580    -1.6773980    -0.0043180
units angstrom
no_reorient  #important for SAPT in psi4, default
symmetry c1  #important for SAPT in psi4, default
}

set PROPERTIES_ORIGIN ["COM"]
properties('MP2/aug-cc-pvtz', properties = ['dipole'])
--------------------------------------------------------------------------

    Molecular point group: c1
  Charge       = 0
  Multiplicity = 1
  Basis Set: AUG-CC-PVTZ
    Blend: AUG-CC-PVTZ
  Basis Set: (AUG-CC-PVTZ AUX)
    Blend: AUG-CC-PVTZ-JKFIT

    Orbital Energies [Eh]
    ---------------------

    Doubly Occupied:

       1A    -20.566294     2A    -11.286846     3A    -11.225444
       4A    -11.223071     5A    -11.222837     6A    -11.222532
       7A    -11.217914     8A    -11.212461     9A    -11.210935
      10A     -1.351346    11A     -1.100609    12A     -1.061648
      13A     -1.016444    14A     -0.967654    15A     -0.875029
      16A     -0.831060    17A     -0.753712    18A     -0.728993
      19A     -0.691397    20A     -0.635634    21A     -0.631724
      22A     -0.615022    23A     -0.589295    24A     -0.578391
      25A     -0.546907    26A     -0.542719    27A     -0.526177
      28A     -0.516923    29A     -0.497199    30A     -0.489808
      31A     -0.478200    32A     -0.458610    33A     -0.453555
      34A     -0.424595    35A     -0.305198

  @DF-RHF Final Energy:  -386.04392684954405

   => Energetics <=

    Nuclear Repulsion Energy =            419.3154876806630114
    One-Electron Energy =               -1354.6064594205570302
    Two-Electron Energy =                 549.2470448903500255
    Total Energy =                       -386.0439268495440501
  Basis Set: (AUG-CC-PVTZ AUX)
    Blend: AUG-CC-PVTZ-RI
    Molecular point group: c1

    Geometry (in Angstrom), charge = 0, multiplicity = 1:

       Center              X                  Y                   Z               Mass
    ------------   -----------------  -----------------  -----------------  -----------------
         O            2.631022796499    -1.321250267284    -0.030529910776    15.994914619570
         C            2.762643796499     0.031121032716     0.410319389224    12.000000000000
         C            1.347251496499     0.512440332716     0.373559889224    12.000000000000
         C           -3.537413203501     0.367791032716    -0.406820610776    12.000000000000
         C            3.682694796499     0.846667032716    -0.492516610776    12.000000000000
         C            0.282201796499    -0.096793967284     0.002679389224    12.000000000000
         C           -2.151394203501    -0.194798967284    -0.405710610776    12.000000000000
         C           -1.051737203501     0.475472032716    -0.014267610776    12.000000000000
         C           -4.458491203501    -0.377847967284     0.561735389224    12.000000000000
         H            3.147907796499     0.074476032716     1.443822389224     1.007825032230
         H            1.277308796499     1.617563032716     0.728646389224     1.007825032230
         H           -3.499562203501     1.430563032716    -0.140936610776     1.007825032230
         H           -3.959555203501     0.310702032716    -1.418663610776     1.007825032230
         H            3.317796796499     0.788432032716    -1.520380610776     1.007825032230
         H            3.710841796499     1.895607032716    -0.183751610776     1.007825032230
         H            4.706613796499     0.458388032716    -0.457475610776     1.007825032230
         H            0.395894796499    -1.129343967284    -0.319578610776     1.007825032230
         H           -2.045532203501    -1.233005967284    -0.727054610776     1.007825032230
         H           -1.153016203501     1.513219032716     0.309844389224     1.007825032230
         H           -4.513730203501    -1.440103967284     0.306677389224     1.007825032230
         H           -5.473527203501     0.028861032716     0.534428389224     1.007825032230
         H           -4.082492203501    -0.297315967284     1.584890389224     1.007825032230
         H            3.614647796499    -1.671722967284    -0.000979610776     1.007825032230

  Basis Set: AUG-CC-PVTZ
    Blend: AUG-CC-PVTZ
  Basis Set: (AUG-CC-PVTZ AUX)
    Blend: AUG-CC-PVTZ-JKFIT
	 Reference Energy          =    -386.0439268495440501 [Eh]
	 Singles Energy            =      -0.0000000000000000 [Eh]
	 Same-Spin Energy          =      -0.4012757302860871 [Eh]
	 Opposite-Spin Energy      =      -1.3806552548969711 [Eh]
	 Correlation Energy        =      -1.7819309851830583 [Eh]
	 Total Energy              =    -387.8258578347271168 [Eh]

	 ================> DF-SCS-MP2 Energies <==================
	-----------------------------------------------------------
	 SCS Same-Spin Scale       =       0.3333333333333333 [-]
	 SCS Opposite-Spin Scale   =       1.2000000000000000 [-]
	 SCS Same-Spin Energy      =      -0.1337585767620290 [Eh]
	 SCS Opposite-Spin Energy  =      -1.6567863058763652 [Eh]
	 SCS Correlation Energy    =      -1.7905448826383943 [Eh]
	 SCS Total Energy          =    -387.8344717321824646 [Eh]
	-----------------------------------------------------------

  Dipole Moment: [D]
     X:     1.3618      Y:     0.6485      Z:     0.2766     Total:     1.5335

*** Psi4 exiting successfully. Buy a developer a beer!
