                               Psi4 1.3.2 release

  ==> Input File <==

--------------------------------------------------------------------------
#psi4
#
memory 32 gb

molecule  {
0 1
  O        2.6932640    -1.3344870    -0.0264310
  C        2.7508540     0.0254460     0.4069810
  C        1.3865784     0.5383377     0.3867076
  C       -3.5492030     0.3621160    -0.4101590
  C        3.6709050     0.8409920    -0.4958550
  C        0.2704120    -0.1024690    -0.0006590
  C       -2.1631840    -0.2004740    -0.4090490
  C       -1.0812731     0.4256708    -0.0350765
  C       -4.4702810    -0.3835230     0.5583970
  H        3.1361180     0.0688010     1.4404840
  H        1.2655190     1.6118880     0.7253080
  H       -3.5113520     1.4248880    -0.1442750
  H       -3.9713450     0.3050270    -1.4220020
  H        3.3060070     0.7827570    -1.5237190
  H        3.6990520     1.8899320    -0.1870900
  H        4.6948240     0.4527130    -0.4608140
  H        0.3841050    -1.1350190    -0.3229170
  H       -2.0573220    -1.2386810    -0.7303930
  H       -1.1648060     1.5075440     0.3065060
  H       -4.5255200    -1.4457790     0.3033390
  H       -5.4853170     0.0231860     0.5310900
  H       -4.0942820    -0.3029910     1.5815520
  H        3.6028580    -1.6773980    -0.0043180
units angstrom
no_reorient  #important for SAPT in psi4, default
symmetry c1  #important for SAPT in psi4, default
}

set PROPERTIES_ORIGIN ["COM"]
properties('MP2/aug-cc-pvtz', properties = ['dipole'])
--------------------------------------------------------------------------

    Molecular point group: c1
  Charge       = 0
  Multiplicity = 1
  Basis Set: AUG-CC-PVTZ
    Blend: AUG-CC-PVTZ
  Basis Set: (AUG-CC-PVTZ AUX)
    Blend: AUG-CC-PVTZ-JKFIT

    Orbital Energies [Eh]
    ---------------------

    Doubly Occupied:

       1A    -20.558611     2A    -11.286039     3A    -11.226017
       4A    -11.224046     5A    -11.223219     6A    -11.222291
       7A    -11.221876     8A    -11.219987     9A    -11.213227
      10A     -1.361962    11A     -1.101952    12A     -1.065703
      13A     -1.018160    14A     -0.967488    15A     -0.880517
      16A     -0.832831    17A     -0.750772    18A     -0.739982
      19A     -0.697328    20A     -0.637818    21A     -0.631473
      22A     -0.617854    23A     -0.593442    24A     -0.580216
      25A     -0.547066    26A     -0.541242    27A     -0.525489
      28A     -0.519189    29A     -0.498603    30A     -0.491542
      31A     -0.480670    32A     -0.462582    33A     -0.454709
      34A     -0.421532    35A     -0.303878

  @DF-RHF Final Energy:  -386.05681867426836

   => Energetics <=

    Nuclear Repulsion Energy =            418.8149261532163905
    One-Electron Energy =               -1353.5048612021969348
    Two-Electron Energy =                 548.6331163747121309
    Total Energy =                       -386.0568186742683565
  Basis Set: (AUG-CC-PVTZ AUX)
    Blend: AUG-CC-PVTZ-RI
    Molecular point group: c1

    Geometry (in Angstrom), charge = 0, multiplicity = 1:

       Center              X                  Y                   Z               Mass
    ------------   -----------------  -----------------  -----------------  -----------------
         O            2.692488288027    -1.326658242230    -0.023942272828    15.994914619570
         C            2.750078288027     0.033274757770     0.409469727172    12.000000000000
         C            1.385802688027     0.546166457770     0.389196327172    12.000000000000
         C           -3.549978711973     0.369944757770    -0.407670272828    12.000000000000
         C            3.670129288027     0.848820757770    -0.493366272828    12.000000000000
         C            0.269636288027    -0.094640242230     0.001829727172    12.000000000000
         C           -2.163959711973    -0.192645242230    -0.406560272828    12.000000000000
         C           -1.082048811973     0.433499557770    -0.032587772828    12.000000000000
         C           -4.471056711973    -0.375694242230     0.560885727172    12.000000000000
         H            3.135342288027     0.076629757770     1.442972727172     1.007825032230
         H            1.264743288027     1.619716757770     0.727796727172     1.007825032230
         H           -3.512127711973     1.432716757770    -0.141786272828     1.007825032230
         H           -3.972120711973     0.312855757770    -1.419513272828     1.007825032230
         H            3.305231288027     0.790585757770    -1.521230272828     1.007825032230
         H            3.698276288027     1.897760757770    -0.184601272828     1.007825032230
         H            4.694048288027     0.460541757770    -0.458325272828     1.007825032230
         H            0.383329288027    -1.127190242230    -0.320428272828     1.007825032230
         H           -2.058097711973    -1.230852242230    -0.727904272828     1.007825032230
         H           -1.165581711973     1.515372757770     0.308994727172     1.007825032230
         H           -4.526295711973    -1.437950242230     0.305827727172     1.007825032230
         H           -5.486092711973     0.031014757770     0.533578727172     1.007825032230
         H           -4.095057711973    -0.295162242230     1.584040727172     1.007825032230
         H            3.602082288027    -1.669569242230    -0.001829272828     1.007825032230

  Basis Set: AUG-CC-PVTZ
    Blend: AUG-CC-PVTZ
  Basis Set: (AUG-CC-PVTZ AUX)
    Blend: AUG-CC-PVTZ-JKFIT
	 Reference Energy          =    -386.0568186742683565 [Eh]
	 Singles Energy            =      -0.0000000000000000 [Eh]
	 Same-Spin Energy          =      -0.4005387721507387 [Eh]
	 Opposite-Spin Energy      =      -1.3782136288757636 [Eh]
	 Correlation Energy        =      -1.7787524010265023 [Eh]
	 Total Energy              =    -387.8355710752948653 [Eh]

	 ================> DF-SCS-MP2 Energies <==================
	-----------------------------------------------------------
	 SCS Same-Spin Scale       =       0.3333333333333333 [-]
	 SCS Opposite-Spin Scale   =       1.2000000000000000 [-]
	 SCS Same-Spin Energy      =      -0.1335129240502462 [Eh]
	 SCS Opposite-Spin Energy  =      -1.6538563546509162 [Eh]
	 SCS Correlation Energy    =      -1.7873692787011624 [Eh]
	 SCS Total Energy          =    -387.8441879529694916 [Eh]
	-----------------------------------------------------------

  Dipole Moment: [D]
     X:     1.2355      Y:     0.6863      Z:     0.2941     Total:     1.4436

*** Psi4 exiting successfully. Buy a developer a beer!
