                               Psi4 1.3.2 release

  ==> Input File <==

--------------------------------------------------------------------------
#psi4
#
memory 32 gb

molecule  {
0 1
  O        2.6685594    -1.3323798    -0.0290432
  C        2.7508540     0.0254460     0.4069810
  C        1.3518476     0.5534009     0.3869929
  C       -3.5492030     0.3621160    -0.4101590
  C        3.6709050     0.8409920    -0.4958550
  C        0.2704120    -0.1024690    -0.0006590
  C       -2.1631840    -0.2004740    -0.4090490
  C       -1.0635270     0.4697970    -0.0176060
  C       -4.4702810    -0.3835230     0.5583970
  H        3.1361180     0.0688010     1.4404840
  H        1.2655190     1.6118880     0.7253080
  H       -3.5113520     1.4248880    -0.1442750
  H       -3.9713450     0.3050270    -1.4220020
  H        3.3060070     0.7827570    -1.5237190
  H        3.6990520     1.8899320    -0.1870900
  H        4.6948240     0.4527130    -0.4608140
  H        0.3841050    -1.1350190    -0.3229170
  H       -2.0573220    -1.2386810    -0.7303930
  H       -1.1648060     1.5075440     0.3065060
  H       -4.5255200    -1.4457790     0.3033390
  H       -5.4853170     0.0231860     0.5310900
  H       -4.0942820    -0.3029910     1.5815520
  H        3.6028580    -1.6773980    -0.0043180
units angstrom
no_reorient  #important for SAPT in psi4, default
symmetry c1  #important for SAPT in psi4, default
}

set PROPERTIES_ORIGIN ["COM"]
properties('MP2/aug-cc-pvtz', properties = ['dipole'])
--------------------------------------------------------------------------

    Molecular point group: c1
  Charge       = 0
  Multiplicity = 1
  Basis Set: AUG-CC-PVTZ
    Blend: AUG-CC-PVTZ
  Basis Set: (AUG-CC-PVTZ AUX)
    Blend: AUG-CC-PVTZ-JKFIT

    Orbital Energies [Eh]
    ---------------------

    Doubly Occupied:

       1A    -20.561249     2A    -11.286382     3A    -11.225688
       4A    -11.223108     5A    -11.222853     6A    -11.221361
       7A    -11.221171     8A    -11.218338     9A    -11.212654
      10A     -1.357012    11A     -1.098577    12A     -1.061237
      13A     -1.016173    14A     -0.964175    15A     -0.876028
      16A     -0.829217    17A     -0.752603    18A     -0.741271
      19A     -0.693947    20A     -0.636513    21A     -0.629272
      22A     -0.616285    23A     -0.589237    24A     -0.581339
      25A     -0.546167    26A     -0.543462    27A     -0.526854
      28A     -0.518084    29A     -0.497036    30A     -0.493753
      31A     -0.478928    32A     -0.466494    33A     -0.453080
      34A     -0.420184    35A     -0.300050

  @DF-RHF Final Energy:  -386.05971183137854

   => Energetics <=

    Nuclear Repulsion Energy =            418.4197937594595942
    One-Electron Energy =               -1352.7994411374827450
    Two-Electron Energy =                 548.3199355466446150
    Total Energy =                       -386.0597118313785359
  Basis Set: (AUG-CC-PVTZ AUX)
    Blend: AUG-CC-PVTZ-RI
    Molecular point group: c1

    Geometry (in Angstrom), charge = 0, multiplicity = 1:

       Center              X                  Y                   Z               Mass
    ------------   -----------------  -----------------  -----------------  -----------------
         O            2.672533435527    -1.330450732488    -0.027912772742    15.994914619570
         C            2.754828035527     0.027375067512     0.408111427258    12.000000000000
         C            1.355821635527     0.555329967512     0.388123327258    12.000000000000
         C           -3.545228964473     0.364045067512    -0.409028572742    12.000000000000
         C            3.674879035527     0.842921067512    -0.494724572742    12.000000000000
         C            0.274386035527    -0.100539932488     0.000471427258    12.000000000000
         C           -2.159209964473    -0.198544932488    -0.407918572742    12.000000000000
         C           -1.059552964473     0.471726067512    -0.016475572742    12.000000000000
         C           -4.466306964473    -0.381593932488     0.559527427258    12.000000000000
         H            3.140092035527     0.070730067512     1.441614427258     1.007825032230
         H            1.269493035527     1.613817067512     0.726438427258     1.007825032230
         H           -3.507377964473     1.426817067512    -0.143144572742     1.007825032230
         H           -3.967370964473     0.306956067512    -1.420871572742     1.007825032230
         H            3.309981035527     0.784686067512    -1.522588572742     1.007825032230
         H            3.703026035527     1.891861067512    -0.185959572742     1.007825032230
         H            4.698798035527     0.454642067512    -0.459683572742     1.007825032230
         H            0.388079035527    -1.133089932488    -0.321786572742     1.007825032230
         H           -2.053347964473    -1.236751932488    -0.729262572742     1.007825032230
         H           -1.160831964473     1.509473067512     0.307636427258     1.007825032230
         H           -4.521545964473    -1.443849932488     0.304469427258     1.007825032230
         H           -5.481342964473     0.025115067512     0.532220427258     1.007825032230
         H           -4.090307964473    -0.301061932488     1.582682427258     1.007825032230
         H            3.606832035527    -1.675468932488    -0.003187572742     1.007825032230

  Basis Set: AUG-CC-PVTZ
    Blend: AUG-CC-PVTZ
  Basis Set: (AUG-CC-PVTZ AUX)
    Blend: AUG-CC-PVTZ-JKFIT
	 Reference Energy          =    -386.0597118313785359 [Eh]
	 Singles Energy            =      -0.0000000000000000 [Eh]
	 Same-Spin Energy          =      -0.4005856570775382 [Eh]
	 Opposite-Spin Energy      =      -1.3789209274970946 [Eh]
	 Correlation Energy        =      -1.7795065845746327 [Eh]
	 Total Energy              =    -387.8392184159531553 [Eh]

	 ================> DF-SCS-MP2 Energies <==================
	-----------------------------------------------------------
	 SCS Same-Spin Scale       =       0.3333333333333333 [-]
	 SCS Opposite-Spin Scale   =       1.2000000000000000 [-]
	 SCS Same-Spin Energy      =      -0.1335285523591794 [Eh]
	 SCS Opposite-Spin Energy  =      -1.6547051129965136 [Eh]
	 SCS Correlation Energy    =      -1.7882336653556929 [Eh]
	 SCS Total Energy          =    -387.8479454967342122 [Eh]
	-----------------------------------------------------------

  Dipole Moment: [D]
     X:     1.2601      Y:     0.7060      Z:     0.3002     Total:     1.4753

*** Psi4 exiting successfully. Buy a developer a beer!
