                               Psi4 1.4a3.dev225

  ==> Input File <==

--------------------------------------------------------------------------
#psi4
#
memory 32 gb

molecule  {
0 1
  O       -2.7161510     1.3794200    -0.1343610
  C       -2.7832390     0.0721360     0.4401970
  C       -1.3979030    -0.4954620     0.4743180
  C        3.5083460    -0.4405980    -0.4123350
  C       -3.7239960    -0.8239440    -0.3625680
  C       -0.3030690     0.1219220    -0.0067100
  C        2.1282810     0.1394430    -0.4544070
  C        0.9836436    -0.4909923     0.0413783
  C        4.4606410     0.4027870     0.4416180
  H       -3.1581590     0.1412460     1.4762970
  H       -1.3112260    -1.4900120     0.9147240
  H        3.4619600    -1.4629760    -0.0187660
  H        3.9104550    -0.5133060    -1.4317100
  H       -3.3684670    -0.8811940    -1.3941910
  H       -3.7626400    -1.8335820     0.0574350
  H       -4.7426360    -0.4191700    -0.3608330
  H       -0.4078810     1.1149080    -0.4388390
  H        2.0311270     1.1370710    -0.8883280
  H        1.1170930    -1.4649260     0.4609700
  H        4.5263310     1.4251690     0.0574090
  H        5.4690900    -0.0219830     0.4454750
  H        4.1044230     0.4539160     1.4740500
  H       -3.6221830     1.7324190    -0.1413340
units angstrom
no_reorient  #important for SAPT in psi4, default
symmetry c1  #important for SAPT in psi4, default
}

set PROPERTIES_ORIGIN ["COM"]
properties('MP2/aug-cc-pvtz', properties = ['dipole'])
--------------------------------------------------------------------------

    Molecular point group: c1
  Charge       = 0
  Multiplicity = 1
  Basis Set: AUG-CC-PVTZ
    Blend: AUG-CC-PVTZ
  Basis Set: (AUG-CC-PVTZ AUX)
    Blend: AUG-CC-PVTZ-JKFIT

    Orbital Energies [Eh]
    ---------------------

    Doubly Occupied:

       1A    -20.558861     2A    -11.286532     3A    -11.233236
       4A    -11.226794     5A    -11.224323     6A    -11.223021
       7A    -11.221243     8A    -11.220750     9A    -11.213336
      10A     -1.360147    11A     -1.096288    12A     -1.059438
      13A     -1.017001    14A     -0.957002    15A     -0.878156
      16A     -0.826602    17A     -0.755379    18A     -0.748875
      19A     -0.695455    20A     -0.636958    21A     -0.627283
      22A     -0.616409    23A     -0.588744    24A     -0.583112
      25A     -0.546416    26A     -0.543908    27A     -0.527706
      28A     -0.516465    29A     -0.502213    30A     -0.494109
      31A     -0.479216    32A     -0.471090    33A     -0.452975
      34A     -0.417749    35A     -0.287930

  @DF-RHF Final Energy:  -386.05600802504102

   => Energetics <=

    Nuclear Repulsion Energy =            417.3474254195238586
    One-Electron Energy =               -1350.6174287242397440
    Two-Electron Energy =                 547.2139952796748048
    Total Energy =                       -386.0560080250410238
  Basis Set: (AUG-CC-PVTZ AUX)
    Blend: AUG-CC-PVTZ-RI
    Molecular point group: c1

    Geometry (in Angstrom), charge = 0, multiplicity = 1:

       Center              X                  Y                   Z               Mass
    ------------   -----------------  -----------------  -----------------  -----------------
         O           -2.678946718783     1.365237389417    -0.134383390903    15.994914619570
         C           -2.746034718783     0.057953389417     0.440174609097    12.000000000000
         C           -1.360698718783    -0.509644610583     0.474295609097    12.000000000000
         C            3.545550281217    -0.454780610583    -0.412357390903    12.000000000000
         C           -3.686791718783    -0.838126610583    -0.362590390903    12.000000000000
         C           -0.265864718783     0.107739389417    -0.006732390903    12.000000000000
         C            2.165485281217     0.125260389417    -0.454429390903    12.000000000000
         C            1.020847881217    -0.505174910583     0.041355909097    12.000000000000
         C            4.497845281217     0.388604389417     0.441595609097    12.000000000000
         H           -3.120954718783     0.127063389417     1.476274609097     1.007825032230
         H           -1.274021718783    -1.504194610583     0.914701609097     1.007825032230
         H            3.499164281217    -1.477158610583    -0.018788390903     1.007825032230
         H            3.947659281217    -0.527488610583    -1.431732390903     1.007825032230
         H           -3.331262718783    -0.895376610583    -1.394213390903     1.007825032230
         H           -3.725435718783    -1.847764610583     0.057412609097     1.007825032230
         H           -4.705431718783    -0.433352610583    -0.360855390903     1.007825032230
         H           -0.370676718783     1.100725389417    -0.438861390903     1.007825032230
         H            2.068331281217     1.122888389417    -0.888350390903     1.007825032230
         H            1.154297281217    -1.479108610583     0.460947609097     1.007825032230
         H            4.563535281217     1.410986389417     0.057386609097     1.007825032230
         H            5.506294281217    -0.036165610583     0.445452609097     1.007825032230
         H            4.141627281217     0.439733389417     1.474027609097     1.007825032230
         H           -3.584978718783     1.718236389417    -0.141356390903     1.007825032230

  Basis Set: AUG-CC-PVTZ
    Blend: AUG-CC-PVTZ
  Basis Set: (AUG-CC-PVTZ AUX)
    Blend: AUG-CC-PVTZ-JKFIT
	 Reference Energy          =    -386.0560080250410238 [Eh]
	 Singles Energy            =      -0.0000000000000000 [Eh]
	 Same-Spin Energy          =      -0.4012956203378282 [Eh]
	 Opposite-Spin Energy      =      -1.3801810492071129 [Eh]
	 Correlation Energy        =      -1.7814766695449411 [Eh]
	 Total Energy              =    -387.8374846945859531 [Eh]

	 ================> DF-SCS-MP2 Energies <==================
	-----------------------------------------------------------
	 SCS Same-Spin Scale       =       0.3333333333333333 [-]
	 SCS Opposite-Spin Scale   =       1.2000000000000000 [-]
	 SCS Same-Spin Energy      =      -0.1337652067792761 [Eh]
	 SCS Opposite-Spin Energy  =      -1.6562172590485356 [Eh]
	 SCS Correlation Energy    =      -1.7899824658278116 [Eh]
	 SCS Total Energy          =    -387.8459904908688145 [Eh]
	-----------------------------------------------------------

  Dipole Moment: [D]
     X:    -1.2111      Y:    -0.6981      Z:     0.3994     Total:     1.4538

*** Psi4 exiting successfully. Buy a developer a beer!
