                               Psi4 1.3.2 release

  ==> Input File <==

--------------------------------------------------------------------------
#psi4
#
memory 32 gb

molecule  {
0 1
  O        2.6932640    -1.3344870    -0.0264310
  C        2.7508540     0.0254460     0.4069810
  C        1.3606810     0.5764810     0.3953890
  C       -3.5582566     0.3391885    -0.4187580
  C        3.6709050     0.8409920    -0.4958550
  C        0.2704120    -0.1024690    -0.0006590
  C       -2.1631840    -0.2004740    -0.4090490
  C       -1.0635270     0.4697970    -0.0176060
  C       -4.4702810    -0.3835230     0.5583970
  H        3.1361180     0.0688010     1.4404840
  H        1.2655190     1.6118880     0.7253080
  H       -3.5113520     1.4248880    -0.1442750
  H       -3.9713450     0.3050270    -1.4220020
  H        3.3060070     0.7827570    -1.5237190
  H        3.6990520     1.8899320    -0.1870900
  H        4.6948240     0.4527130    -0.4608140
  H        0.3841050    -1.1350190    -0.3229170
  H       -2.0761564    -1.2395689    -0.7331639
  H       -1.1648060     1.5075440     0.3065060
  H       -4.5255200    -1.4457790     0.3033390
  H       -5.4853170     0.0231860     0.5310900
  H       -4.0942820    -0.3029910     1.5815520
  H        3.6028580    -1.6773980    -0.0043180
units angstrom
no_reorient  #important for SAPT in psi4, default
symmetry c1  #important for SAPT in psi4, default
}

set PROPERTIES_ORIGIN ["COM"]
properties('MP2/aug-cc-pvtz', properties = ['dipole'])
--------------------------------------------------------------------------

    Molecular point group: c1
  Charge       = 0
  Multiplicity = 1
  Basis Set: AUG-CC-PVTZ
    Blend: AUG-CC-PVTZ
  Basis Set: (AUG-CC-PVTZ AUX)
    Blend: AUG-CC-PVTZ-JKFIT

    Orbital Energies [Eh]
    ---------------------

    Doubly Occupied:

       1A    -20.558765     2A    -11.286600     3A    -11.226159
       4A    -11.224148     5A    -11.223532     6A    -11.223340
       7A    -11.221994     8A    -11.220640     9A    -11.212457
      10A     -1.360670    11A     -1.097924    12A     -1.061893
      13A     -1.016954    14A     -0.963047    15A     -0.876893
      16A     -0.828404    17A     -0.751529    18A     -0.748202
      19A     -0.695396    20A     -0.637188    21A     -0.628996
      22A     -0.616750    23A     -0.590267    24A     -0.583019
      25A     -0.546654    26A     -0.544355    27A     -0.527568
      28A     -0.522610    29A     -0.501336    30A     -0.492434
      31A     -0.473019    32A     -0.466746    33A     -0.453122
      34A     -0.419000    35A     -0.298049

  @DF-RHF Final Energy:  -386.06156016365446

   => Energetics <=

    Nuclear Repulsion Energy =            417.9986546635114451
    One-Electron Energy =               -1351.9211107508353962
    Two-Electron Energy =                 547.8608959236695455
    Total Energy =                       -386.0615601636544625
  Basis Set: (AUG-CC-PVTZ AUX)
    Blend: AUG-CC-PVTZ-RI
    Molecular point group: c1

    Geometry (in Angstrom), charge = 0, multiplicity = 1:

       Center              X                  Y                   Z               Mass
    ------------   -----------------  -----------------  -----------------  -----------------
         O            2.694276016793    -1.332298083387    -0.025590447756    15.994914619570
         C            2.751866016793     0.027634916613     0.407821552244    12.000000000000
         C            1.361693016793     0.578669916613     0.396229552244    12.000000000000
         C           -3.557244583207     0.341377416613    -0.417917447756    12.000000000000
         C            3.671917016793     0.843180916613    -0.495014447756    12.000000000000
         C            0.271424016793    -0.100280083387     0.000181552244    12.000000000000
         C           -2.162171983207    -0.198285083387    -0.408208447756    12.000000000000
         C           -1.062514983207     0.471985916613    -0.016765447756    12.000000000000
         C           -4.469268983207    -0.381334083387     0.559237552244    12.000000000000
         H            3.137130016793     0.070989916613     1.441324552244     1.007825032230
         H            1.266531016793     1.614076916613     0.726148552244     1.007825032230
         H           -3.510339983207     1.427076916613    -0.143434447756     1.007825032230
         H           -3.970332983207     0.307215916613    -1.421161447756     1.007825032230
         H            3.307019016793     0.784945916613    -1.522878447756     1.007825032230
         H            3.700064016793     1.892120916613    -0.186249447756     1.007825032230
         H            4.695836016793     0.454901916613    -0.459973447756     1.007825032230
         H            0.385117016793    -1.132830083387    -0.322076447756     1.007825032230
         H           -2.075144383207    -1.237379983387    -0.732323347756     1.007825032230
         H           -1.163793983207     1.509732916613     0.307346552244     1.007825032230
         H           -4.524507983207    -1.443590083387     0.304179552244     1.007825032230
         H           -5.484304983207     0.025374916613     0.531930552244     1.007825032230
         H           -4.093269983207    -0.300802083387     1.582392552244     1.007825032230
         H            3.603870016793    -1.675209083387    -0.003477447756     1.007825032230

  Basis Set: AUG-CC-PVTZ
    Blend: AUG-CC-PVTZ
  Basis Set: (AUG-CC-PVTZ AUX)
    Blend: AUG-CC-PVTZ-JKFIT
	 Reference Energy          =    -386.0615601636544625 [Eh]
	 Singles Energy            =      -0.0000000000000000 [Eh]
	 Same-Spin Energy          =      -0.4004032193114350 [Eh]
	 Opposite-Spin Energy      =      -1.3784620786666322 [Eh]
	 Correlation Energy        =      -1.7788652979780673 [Eh]
	 Total Energy              =    -387.8404254616325488 [Eh]

	 ================> DF-SCS-MP2 Energies <==================
	-----------------------------------------------------------
	 SCS Same-Spin Scale       =       0.3333333333333333 [-]
	 SCS Opposite-Spin Scale   =       1.2000000000000000 [-]
	 SCS Same-Spin Energy      =      -0.1334677397704783 [Eh]
	 SCS Opposite-Spin Energy  =      -1.6541544943999587 [Eh]
	 SCS Correlation Energy    =      -1.7876222341704371 [Eh]
	 SCS Total Energy          =    -387.8491823978249045 [Eh]
	-----------------------------------------------------------

  Dipole Moment: [D]
     X:     1.2152      Y:     0.7168      Z:     0.3069     Total:     1.4438

*** Psi4 exiting successfully. Buy a developer a beer!
