                               Psi4 1.3.2 release

  ==> Input File <==

--------------------------------------------------------------------------
#psi4
#
memory 32 gb

molecule  {
0 1
  O        2.6932640    -1.3344870    -0.0264310
  C        2.7595727     0.0482539     0.4162004
  C        1.3606810     0.5764810     0.3953890
  C       -3.5492030     0.3621160    -0.4101590
  C        3.6709050     0.8409920    -0.4958550
  C        0.2572415    -0.0836191     0.0039778
  C       -2.1631840    -0.2004740    -0.4090490
  C       -1.0635270     0.4697970    -0.0176060
  C       -4.4702810    -0.3835230     0.5583970
  H        3.1361180     0.0688010     1.4404840
  H        1.2655190     1.6118880     0.7253080
  H       -3.5113520     1.4248880    -0.1442750
  H       -3.9713450     0.3050270    -1.4220020
  H        3.3060070     0.7827570    -1.5237190
  H        3.6990520     1.8899320    -0.1870900
  H        4.6948240     0.4527130    -0.4608140
  H        0.3841050    -1.1350190    -0.3229170
  H       -2.0573220    -1.2386810    -0.7303930
  H       -1.1648060     1.5075440     0.3065060
  H       -4.5255200    -1.4457790     0.3033390
  H       -5.4853170     0.0231860     0.5310900
  H       -4.0942820    -0.3029910     1.5815520
  H        3.6028580    -1.6773980    -0.0043180
units angstrom
no_reorient  #important for SAPT in psi4, default
symmetry c1  #important for SAPT in psi4, default
}

set PROPERTIES_ORIGIN ["COM"]
properties('MP2/aug-cc-pvtz', properties = ['dipole'])
--------------------------------------------------------------------------

    Molecular point group: c1
  Charge       = 0
  Multiplicity = 1
  Basis Set: AUG-CC-PVTZ
    Blend: AUG-CC-PVTZ
  Basis Set: (AUG-CC-PVTZ AUX)
    Blend: AUG-CC-PVTZ-JKFIT

    Orbital Energies [Eh]
    ---------------------

    Doubly Occupied:

       1A    -20.555761     2A    -11.286856     3A    -11.227001
       4A    -11.224104     5A    -11.223752     6A    -11.222545
       7A    -11.222024     8A    -11.221221     9A    -11.213199
      10A     -1.350828    11A     -1.099832    12A     -1.062317
      13A     -1.019527    14A     -0.963377    15A     -0.878311
      16A     -0.829282    17A     -0.754610    18A     -0.743777
      19A     -0.693376    20A     -0.634682    21A     -0.630302
      22A     -0.614979    23A     -0.589838    24A     -0.582844
      25A     -0.546540    26A     -0.544561    27A     -0.524894
      28A     -0.518643    29A     -0.496927    30A     -0.490896
      31A     -0.479755    32A     -0.470288    33A     -0.454646
      34A     -0.421917    35A     -0.297014

  @DF-RHF Final Energy:  -386.06025451749974

   => Energetics <=

    Nuclear Repulsion Energy =            417.8621122828849934
    One-Electron Energy =               -1351.6638777509324427
    Two-Electron Energy =                 547.7415109505477631
    Total Energy =                       -386.0602545174997431
  Basis Set: (AUG-CC-PVTZ AUX)
    Blend: AUG-CC-PVTZ-RI
    Molecular point group: c1

    Geometry (in Angstrom), charge = 0, multiplicity = 1:

       Center              X                  Y                   Z               Mass
    ------------   -----------------  -----------------  -----------------  -----------------
         O            2.693687588939    -1.338451064944    -0.027749411613    15.994914619570
         C            2.759996288939     0.044289835056     0.414881988387    12.000000000000
         C            1.361104588939     0.572516935056     0.394070588387    12.000000000000
         C           -3.548779411061     0.358151935056    -0.411477411613    12.000000000000
         C            3.671328588939     0.837027935056    -0.497173411613    12.000000000000
         C            0.257665088939    -0.087583164944     0.002659388387    12.000000000000
         C           -2.162760411061    -0.204438064944    -0.410367411613    12.000000000000
         C           -1.063103411061     0.465832935056    -0.018924411613    12.000000000000
         C           -4.469857411061    -0.387487064944     0.557078588387    12.000000000000
         H            3.136541588939     0.064836935056     1.439165588387     1.007825032230
         H            1.265942588939     1.607923935056     0.723989588387     1.007825032230
         H           -3.510928411061     1.420923935056    -0.145593411613     1.007825032230
         H           -3.970921411061     0.301062935056    -1.423320411613     1.007825032230
         H            3.306430588939     0.778792935056    -1.525037411613     1.007825032230
         H            3.699475588939     1.885967935056    -0.188408411613     1.007825032230
         H            4.695247588939     0.448748935056    -0.462132411613     1.007825032230
         H            0.384528588939    -1.138983064944    -0.324235411613     1.007825032230
         H           -2.056898411061    -1.242645064944    -0.731711411613     1.007825032230
         H           -1.164382411061     1.503579935056     0.305187588387     1.007825032230
         H           -4.525096411061    -1.449743064944     0.302020588387     1.007825032230
         H           -5.484893411061     0.019221935056     0.529771588387     1.007825032230
         H           -4.093858411061    -0.306955064944     1.580233588387     1.007825032230
         H            3.603281588939    -1.681362064944    -0.005636411613     1.007825032230

  Basis Set: AUG-CC-PVTZ
    Blend: AUG-CC-PVTZ
  Basis Set: (AUG-CC-PVTZ AUX)
    Blend: AUG-CC-PVTZ-JKFIT
	 Reference Energy          =    -386.0602545174997431 [Eh]
	 Singles Energy            =      -0.0000000000000000 [Eh]
	 Same-Spin Energy          =      -0.4007325654314690 [Eh]
	 Opposite-Spin Energy      =      -1.3791405594412760 [Eh]
	 Correlation Energy        =      -1.7798731248727448 [Eh]
	 Total Energy              =    -387.8401276423724653 [Eh]

	 ================> DF-SCS-MP2 Energies <==================
	-----------------------------------------------------------
	 SCS Same-Spin Scale       =       0.3333333333333333 [-]
	 SCS Opposite-Spin Scale   =       1.2000000000000000 [-]
	 SCS Same-Spin Energy      =      -0.1335775218104897 [Eh]
	 SCS Opposite-Spin Energy  =      -1.6549686713295311 [Eh]
	 SCS Correlation Energy    =      -1.7885461931400206 [Eh]
	 SCS Total Energy          =    -387.8488007106397504 [Eh]
	-----------------------------------------------------------

  Dipole Moment: [D]
     X:     1.1836      Y:     0.8076      Z:     0.3200     Total:     1.4681

*** Psi4 exiting successfully. Buy a developer a beer!
