                               Psi4 1.3.2 release

  ==> Input File <==

--------------------------------------------------------------------------
#psi4
#
memory 32 gb

molecule  {
0 1
  O        2.6932640    -1.3344870    -0.0264310
  C        2.7508540     0.0254460     0.4069810
  C        1.3606810     0.5764810     0.3953890
  C       -3.5492030     0.3621160    -0.4101590
  C        3.6709050     0.8409920    -0.4958550
  C        0.2704120    -0.1024690    -0.0006590
  C       -2.1631840    -0.2004740    -0.4090490
  C       -1.2473146     0.5486427    -0.0199409
  C       -4.4702810    -0.3835230     0.5583970
  H        3.1361180     0.0688010     1.4404840
  H        1.2655190     1.6118880     0.7253080
  H       -3.5113520     1.4248880    -0.1442750
  H       -3.9713450     0.3050270    -1.4220020
  H        3.3060070     0.7827570    -1.5237190
  H        3.6990520     1.8899320    -0.1870900
  H        4.6948240     0.4527130    -0.4608140
  H        0.3841050    -1.1350190    -0.3229170
  H       -2.0573220    -1.2386810    -0.7303930
  H       -1.1648060     1.5075440     0.3065060
  H       -4.5255200    -1.4457790     0.3033390
  H       -5.4853170     0.0231860     0.5310900
  H       -4.0942820    -0.3029910     1.5815520
  H        3.6028580    -1.6773980    -0.0043180
units angstrom
no_reorient  #important for SAPT in psi4, default
symmetry c1  #important for SAPT in psi4, default
}

set PROPERTIES_ORIGIN ["COM"]
properties('MP2/aug-cc-pvtz', properties = ['dipole'])
--------------------------------------------------------------------------

    Molecular point group: c1
  Charge       = 0
  Multiplicity = 1
  Basis Set: AUG-CC-PVTZ
    Blend: AUG-CC-PVTZ
  Basis Set: (AUG-CC-PVTZ AUX)
    Blend: AUG-CC-PVTZ-JKFIT

    Orbital Energies [Eh]
    ---------------------

    Doubly Occupied:

       1A    -20.557015     2A    -11.284657     3A    -11.227954
       4A    -11.219023     5A    -11.218809     6A    -11.218651
       7A    -11.218409     8A    -11.212340     9A    -11.211372
      10A     -1.358824    11A     -1.104626    12A     -1.059532
      13A     -1.006302    14A     -0.969922    15A     -0.864484
      16A     -0.829006    17A     -0.764737    18A     -0.739885
      19A     -0.691585    20A     -0.644695    21A     -0.621653
      22A     -0.618372    23A     -0.600663    24A     -0.575920
      25A     -0.548377    26A     -0.543353    27A     -0.535015
      28A     -0.518668    29A     -0.500636    30A     -0.491862
      31A     -0.482488    32A     -0.450344    33A     -0.425571
      34A     -0.410678    35A     -0.320976

  @DF-RHF Final Energy:  -386.02715855699938

   => Energetics <=

    Nuclear Repulsion Energy =            417.3740211613732072
    One-Electron Energy =               -1350.7095529955777238
    Two-Electron Energy =                 547.3083732772050780
    Total Energy =                       -386.0271585569994386
  Basis Set: (AUG-CC-PVTZ AUX)
    Blend: AUG-CC-PVTZ-RI
    Molecular point group: c1

    Geometry (in Angstrom), charge = 0, multiplicity = 1:

       Center              X                  Y                   Z               Mass
    ------------   -----------------  -----------------  -----------------  -----------------
         O            2.710753040180    -1.341989835754    -0.026208679492    15.994914619570
         C            2.768343040180     0.017943164246     0.407203320508    12.000000000000
         C            1.378170040180     0.568978164246     0.395611320508    12.000000000000
         C           -3.531713959820     0.354613164246    -0.409936679492    12.000000000000
         C            3.688394040180     0.833489164246    -0.495632679492    12.000000000000
         C            0.287901040180    -0.109971835754    -0.000436679492    12.000000000000
         C           -2.145694959820    -0.207976835754    -0.408826679492    12.000000000000
         C           -1.229825559820     0.541139864246    -0.019718579492    12.000000000000
         C           -4.452791959820    -0.391025835754     0.558619320508    12.000000000000
         H            3.153607040180     0.061298164246     1.440706320508     1.007825032230
         H            1.283008040180     1.604385164246     0.725530320508     1.007825032230
         H           -3.493862959820     1.417385164246    -0.144052679492     1.007825032230
         H           -3.953855959820     0.297524164246    -1.421779679492     1.007825032230
         H            3.323496040180     0.775254164246    -1.523496679492     1.007825032230
         H            3.716541040180     1.882429164246    -0.186867679492     1.007825032230
         H            4.712313040180     0.445210164246    -0.460591679492     1.007825032230
         H            0.401594040180    -1.142521835754    -0.322694679492     1.007825032230
         H           -2.039832959820    -1.246183835754    -0.730170679492     1.007825032230
         H           -1.147316959820     1.500041164246     0.306728320508     1.007825032230
         H           -4.508030959820    -1.453281835754     0.303561320508     1.007825032230
         H           -5.467827959820     0.015683164246     0.531312320508     1.007825032230
         H           -4.076792959820    -0.310493835754     1.581774320508     1.007825032230
         H            3.620347040180    -1.684900835754    -0.004095679492     1.007825032230

  Basis Set: AUG-CC-PVTZ
    Blend: AUG-CC-PVTZ
  Basis Set: (AUG-CC-PVTZ AUX)
    Blend: AUG-CC-PVTZ-JKFIT
	 Reference Energy          =    -386.0271585569993817 [Eh]
	 Singles Energy            =      -0.0000000000000000 [Eh]
	 Same-Spin Energy          =      -0.3984704037375217 [Eh]
	 Opposite-Spin Energy      =      -1.3764829777552239 [Eh]
	 Correlation Energy        =      -1.7749533814927456 [Eh]
	 Total Energy              =    -387.8021119384921462 [Eh]

	 ================> DF-SCS-MP2 Energies <==================
	-----------------------------------------------------------
	 SCS Same-Spin Scale       =       0.3333333333333333 [-]
	 SCS Opposite-Spin Scale   =       1.2000000000000000 [-]
	 SCS Same-Spin Energy      =      -0.1328234679125072 [Eh]
	 SCS Opposite-Spin Energy  =      -1.6517795733062686 [Eh]
	 SCS Correlation Energy    =      -1.7846030412187759 [Eh]
	 SCS Total Energy          =    -387.8117615982181405 [Eh]
	-----------------------------------------------------------

  Dipole Moment: [D]
     X:     1.0807      Y:     0.7493      Z:     0.2851     Total:     1.3456

*** Psi4 exiting successfully. Buy a developer a beer!
