                               Psi4 1.3.2 release

  ==> Input File <==

--------------------------------------------------------------------------
#psi4
#
memory 32 gb

molecule  {
0 1
  O        2.6932640    -1.3344870    -0.0264310
  C        2.7220015    -0.0423398     0.3804799
  C        1.3606810     0.5764810     0.3953890
  C       -3.5492030     0.3621160    -0.4101590
  C        3.6709050     0.8409920    -0.4958550
  C        0.2704120    -0.1024690    -0.0006590
  C       -2.1631840    -0.2004740    -0.4090490
  C       -1.0635270     0.4697970    -0.0176060
  C       -4.4702810    -0.3835230     0.5583970
  H        3.1361180     0.0688010     1.4404840
  H        1.2092735     1.6080529     0.7161776
  H       -3.5113520     1.4248880    -0.1442750
  H       -3.9713450     0.3050270    -1.4220020
  H        3.3060070     0.7827570    -1.5237190
  H        3.6990520     1.8899320    -0.1870900
  H        4.6948240     0.4527130    -0.4608140
  H        0.3841050    -1.1350190    -0.3229170
  H       -2.0573220    -1.2386810    -0.7303930
  H       -1.1648060     1.5075440     0.3065060
  H       -4.5255200    -1.4457790     0.3033390
  H       -5.4853170     0.0231860     0.5310900
  H       -4.0942820    -0.3029910     1.5815520
  H        3.6028580    -1.6773980    -0.0043180
units angstrom
no_reorient  #important for SAPT in psi4, default
symmetry c1  #important for SAPT in psi4, default
}

set PROPERTIES_ORIGIN ["COM"]
properties('MP2/aug-cc-pvtz', properties = ['dipole'])
--------------------------------------------------------------------------

    Molecular point group: c1
  Charge       = 0
  Multiplicity = 1
  Basis Set: AUG-CC-PVTZ
    Blend: AUG-CC-PVTZ
  Basis Set: (AUG-CC-PVTZ AUX)
    Blend: AUG-CC-PVTZ-JKFIT

    Orbital Energies [Eh]
    ---------------------

    Doubly Occupied:

       1A    -20.567847     2A    -11.289918     3A    -11.225002
       4A    -11.222793     5A    -11.222485     6A    -11.222129
       7A    -11.219430     8A    -11.219035     9A    -11.212444
      10A     -1.393396    11A     -1.097481    12A     -1.059157
      13A     -1.009775    14A     -0.959944    15A     -0.876033
      16A     -0.828907    17A     -0.755950    18A     -0.751109
      19A     -0.700963    20A     -0.646813    21A     -0.626294
      22A     -0.623665    23A     -0.593737    24A     -0.583284
      25A     -0.547768    26A     -0.540243    27A     -0.533603
      28A     -0.518468    29A     -0.502995    30A     -0.489867
      31A     -0.478302    32A     -0.464777    33A     -0.446781
      34A     -0.412299    35A     -0.295148

  @DF-RHF Final Energy:  -386.05705139096392

   => Energetics <=

    Nuclear Repulsion Energy =            418.7574543057900200
    One-Electron Energy =               -1353.3533329814274566
    Two-Electron Energy =                 548.5388272846735163
    Total Energy =                       -386.0570513909639203
  Basis Set: (AUG-CC-PVTZ AUX)
    Blend: AUG-CC-PVTZ-RI
    Molecular point group: c1

    Geometry (in Angstrom), charge = 0, multiplicity = 1:

       Center              X                  Y                   Z               Mass
    ------------   -----------------  -----------------  -----------------  -----------------
         O            2.696459053237    -1.328005849471    -0.023836073213    15.994914619570
         C            2.725196553237    -0.035858649471     0.383074826787    12.000000000000
         C            1.363876053237     0.582962150529     0.397983926787    12.000000000000
         C           -3.546007946763     0.368597150529    -0.407564073213    12.000000000000
         C            3.674100053237     0.847473150529    -0.493260073213    12.000000000000
         C            0.273607053237    -0.095987849471     0.001935926787    12.000000000000
         C           -2.159988946763    -0.193992849471    -0.406454073213    12.000000000000
         C           -1.060331946763     0.476278150529    -0.015011073213    12.000000000000
         C           -4.467085946763    -0.377041849471     0.560991926787    12.000000000000
         H            3.139313053237     0.075282150529     1.443078926787     1.007825032230
         H            1.212468553237     1.614534050529     0.718772526787     1.007825032230
         H           -3.508156946763     1.431369150529    -0.141680073213     1.007825032230
         H           -3.968149946763     0.311508150529    -1.419407073213     1.007825032230
         H            3.309202053237     0.789238150529    -1.521124073213     1.007825032230
         H            3.702247053237     1.896413150529    -0.184495073213     1.007825032230
         H            4.698019053237     0.459194150529    -0.458219073213     1.007825032230
         H            0.387300053237    -1.128537849471    -0.320322073213     1.007825032230
         H           -2.054126946763    -1.232199849471    -0.727798073213     1.007825032230
         H           -1.161610946763     1.514025150529     0.309100926787     1.007825032230
         H           -4.522324946763    -1.439297849471     0.305933926787     1.007825032230
         H           -5.482121946763     0.029667150529     0.533684926787     1.007825032230
         H           -4.091086946763    -0.296509849471     1.584146926787     1.007825032230
         H            3.606053053237    -1.670916849471    -0.001723073213     1.007825032230

  Basis Set: AUG-CC-PVTZ
    Blend: AUG-CC-PVTZ
  Basis Set: (AUG-CC-PVTZ AUX)
    Blend: AUG-CC-PVTZ-JKFIT
	 Reference Energy          =    -386.0570513909639203 [Eh]
	 Singles Energy            =      -0.0000000000000000 [Eh]
	 Same-Spin Energy          =      -0.4004812181905685 [Eh]
	 Opposite-Spin Energy      =      -1.3774287228174620 [Eh]
	 Correlation Energy        =      -1.7779099410080303 [Eh]
	 Total Energy              =    -387.8349613319719538 [Eh]

	 ================> DF-SCS-MP2 Energies <==================
	-----------------------------------------------------------
	 SCS Same-Spin Scale       =       0.3333333333333333 [-]
	 SCS Opposite-Spin Scale   =       1.2000000000000000 [-]
	 SCS Same-Spin Energy      =      -0.1334937393968562 [Eh]
	 SCS Opposite-Spin Energy  =      -1.6529144673809544 [Eh]
	 SCS Correlation Energy    =      -1.7864082067778106 [Eh]
	 SCS Total Energy          =    -387.8434595977417416 [Eh]
	-----------------------------------------------------------

  Dipole Moment: [D]
     X:     1.2229      Y:     0.4728      Z:     0.2567     Total:     1.3360

*** Psi4 exiting successfully. Buy a developer a beer!
