                               Psi4 1.3.2 release

  ==> Input File <==

--------------------------------------------------------------------------
#psi4
#
memory 32 gb

molecule  {
0 1
  O        2.6932640    -1.3344870    -0.0264310
  C        2.7508540     0.0254460     0.4069810
  C        1.3606810     0.5764810     0.3953890
  C       -3.5492030     0.3621160    -0.4101590
  C        3.6709050     0.8409920    -0.4958550
  C        0.2750124    -0.0914779     0.0036423
  C       -2.1631840    -0.2004740    -0.4090490
  C       -1.0635270     0.4697970    -0.0176060
  C       -4.4702810    -0.3835230     0.5583970
  H        3.1361180     0.0688010     1.4404840
  H        1.2655190     1.6118880     0.7253080
  H       -3.5113520     1.4248880    -0.1442750
  H       -3.9713450     0.3050270    -1.4220020
  H        3.3060070     0.7827570    -1.5237190
  H        3.6990520     1.8899320    -0.1870900
  H        4.6948240     0.4527130    -0.4608140
  H        0.3841050    -1.1350190    -0.3229170
  H       -2.0573220    -1.2386810    -0.7303930
  H       -1.1554145     1.5079284     0.3080697
  H       -4.5255200    -1.4457790     0.3033390
  H       -5.4853170     0.0231860     0.5310900
  H       -4.0942820    -0.3029910     1.5815520
  H        3.6028580    -1.6773980    -0.0043180
units angstrom
no_reorient  #important for SAPT in psi4, default
symmetry c1  #important for SAPT in psi4, default
}

set PROPERTIES_ORIGIN ["COM"]
properties('MP2/aug-cc-pvtz', properties = ['dipole'])
--------------------------------------------------------------------------

    Molecular point group: c1
  Charge       = 0
  Multiplicity = 1
  Basis Set: AUG-CC-PVTZ
    Blend: AUG-CC-PVTZ
  Basis Set: (AUG-CC-PVTZ AUX)
    Blend: AUG-CC-PVTZ-JKFIT

    Orbital Energies [Eh]
    ---------------------

    Doubly Occupied:

       1A    -20.558642     2A    -11.286606     3A    -11.226331
       4A    -11.223448     5A    -11.223247     6A    -11.222269
       7A    -11.220603     8A    -11.220547     9A    -11.212860
      10A     -1.360560    11A     -1.098362    12A     -1.062087
      13A     -1.016188    14A     -0.963372    15A     -0.876610
      16A     -0.829024    17A     -0.753099    18A     -0.746372
      19A     -0.695023    20A     -0.637230    21A     -0.628658
      22A     -0.616826    23A     -0.590269    24A     -0.582988
      25A     -0.546378    26A     -0.543756    27A     -0.527602
      28A     -0.518764    29A     -0.498808    30A     -0.492250
      31A     -0.479234    32A     -0.467072    33A     -0.453215
      34A     -0.419029    35A     -0.299073

  @DF-RHF Final Energy:  -386.06273143520411

   => Energetics <=

    Nuclear Repulsion Energy =            418.0930700885283500
    One-Electron Energy =               -1352.1188013424232395
    Two-Electron Energy =                 547.9629998186908324
    Total Energy =                       -386.0627314352041140
  Basis Set: (AUG-CC-PVTZ AUX)
    Blend: AUG-CC-PVTZ-RI
    Molecular point group: c1

    Geometry (in Angstrom), charge = 0, multiplicity = 1:

       Center              X                  Y                   Z               Mass
    ------------   -----------------  -----------------  -----------------  -----------------
         O            2.692751132099    -1.335535918427    -0.026852672042    15.994914619570
         C            2.750341132099     0.024397081573     0.406559327958    12.000000000000
         C            1.360168132099     0.575432081573     0.394967327958    12.000000000000
         C           -3.549715867901     0.361067081573    -0.410580672042    12.000000000000
         C            3.670392132099     0.839943081573    -0.496276672042    12.000000000000
         C            0.274499532099    -0.092526818427     0.003220627958    12.000000000000
         C           -2.163696867901    -0.201522918427    -0.409470672042    12.000000000000
         C           -1.064039867901     0.468748081573    -0.018027672042    12.000000000000
         C           -4.470793867901    -0.384571918427     0.557975327958    12.000000000000
         H            3.135605132099     0.067752081573     1.440062327958     1.007825032230
         H            1.265006132099     1.610839081573     0.724886327958     1.007825032230
         H           -3.511864867901     1.423839081573    -0.144696672042     1.007825032230
         H           -3.971857867901     0.303978081573    -1.422423672042     1.007825032230
         H            3.305494132099     0.781708081573    -1.524140672042     1.007825032230
         H            3.698539132099     1.888883081573    -0.187511672042     1.007825032230
         H            4.694311132099     0.451664081573    -0.461235672042     1.007825032230
         H            0.383592132099    -1.136067918427    -0.323338672042     1.007825032230
         H           -2.057834867901    -1.239729918427    -0.730814672042     1.007825032230
         H           -1.155927367901     1.506879481573     0.307648027958     1.007825032230
         H           -4.526032867901    -1.446827918427     0.302917327958     1.007825032230
         H           -5.485829867901     0.022137081573     0.530668327958     1.007825032230
         H           -4.094794867901    -0.304039918427     1.581130327958     1.007825032230
         H            3.602345132099    -1.678446918427    -0.004739672042     1.007825032230

  Basis Set: AUG-CC-PVTZ
    Blend: AUG-CC-PVTZ
  Basis Set: (AUG-CC-PVTZ AUX)
    Blend: AUG-CC-PVTZ-JKFIT
	 Reference Energy          =    -386.0627314352041140 [Eh]
	 Singles Energy            =      -0.0000000000000000 [Eh]
	 Same-Spin Energy          =      -0.4002540078043281 [Eh]
	 Opposite-Spin Energy      =      -1.3780899213685105 [Eh]
	 Correlation Energy        =      -1.7783439291728387 [Eh]
	 Total Energy              =    -387.8410753643769340 [Eh]

	 ================> DF-SCS-MP2 Energies <==================
	-----------------------------------------------------------
	 SCS Same-Spin Scale       =       0.3333333333333333 [-]
	 SCS Opposite-Spin Scale   =       1.2000000000000000 [-]
	 SCS Same-Spin Energy      =      -0.1334180026014427 [Eh]
	 SCS Opposite-Spin Energy  =      -1.6537079056422126 [Eh]
	 SCS Correlation Energy    =      -1.7871259082436552 [Eh]
	 SCS Total Energy          =    -387.8498573434477521 [Eh]
	-----------------------------------------------------------

  Dipole Moment: [D]
     X:     1.2041      Y:     0.7295      Z:     0.3095     Total:     1.4415

*** Psi4 exiting successfully. Buy a developer a beer!
