                               Psi4 1.3.2 release

  ==> Input File <==

--------------------------------------------------------------------------
#psi4
#
memory 32 gb

molecule  {
0 1
  O        2.6932640    -1.3344870    -0.0264310
  C        2.7508540     0.0254460     0.4069810
  C        1.3606810     0.5764810     0.3953890
  C       -3.5492030     0.3621160    -0.4101590
  C        3.6709050     0.8409920    -0.4958550
  C        0.2704120    -0.1024690    -0.0006590
  C       -2.1631840    -0.2004740    -0.4090490
  C       -1.0540280     0.4916342    -0.0089591
  C       -4.4702810    -0.3835230     0.5583970
  H        3.1361180     0.0688010     1.4404840
  H        1.2655190     1.6118880     0.7253080
  H       -3.5113520     1.4248880    -0.1442750
  H       -3.9713450     0.3050270    -1.4220020
  H        3.3060070     0.7827570    -1.5237190
  H        3.6990520     1.8899320    -0.1870900
  H        4.6948240     0.4527130    -0.4608140
  H        0.4027648    -1.1338101    -0.3196481
  H       -2.0573220    -1.2386810    -0.7303930
  H       -1.1648060     1.5075440     0.3065060
  H       -4.5255200    -1.4457790     0.3033390
  H       -5.4853170     0.0231860     0.5310900
  H       -4.0942820    -0.3029910     1.5815520
  H        3.6028580    -1.6773980    -0.0043180
units angstrom
no_reorient  #important for SAPT in psi4, default
symmetry c1  #important for SAPT in psi4, default
}

set PROPERTIES_ORIGIN ["COM"]
properties('MP2/aug-cc-pvtz', properties = ['dipole'])
--------------------------------------------------------------------------

    Molecular point group: c1
  Charge       = 0
  Multiplicity = 1
  Basis Set: AUG-CC-PVTZ
    Blend: AUG-CC-PVTZ
  Basis Set: (AUG-CC-PVTZ AUX)
    Blend: AUG-CC-PVTZ-JKFIT

    Orbital Energies [Eh]
    ---------------------

    Doubly Occupied:

       1A    -20.558757     2A    -11.286083     3A    -11.228842
       4A    -11.224620     5A    -11.223103     6A    -11.222758
       7A    -11.220984     8A    -11.220344     9A    -11.212737
      10A     -1.360657    11A     -1.096283    12A     -1.060710
      13A     -1.015822    14A     -0.960367    15A     -0.876431
      16A     -0.827702    17A     -0.755023    18A     -0.747747
      19A     -0.695406    20A     -0.637178    21A     -0.627257
      22A     -0.616780    23A     -0.589986    24A     -0.582191
      25A     -0.546484    26A     -0.543776    27A     -0.528876
      28A     -0.517666    29A     -0.501383    30A     -0.493416
      31A     -0.479426    32A     -0.468766    33A     -0.452839
      34A     -0.416660    35A     -0.294111

  @DF-RHF Final Energy:  -386.06073899324770

   => Energetics <=

    Nuclear Repulsion Energy =            417.8293293772953803
    One-Electron Energy =               -1351.5977966397749697
    Two-Electron Energy =                 547.7077282692318931
    Total Energy =                       -386.0607389932476963
  Basis Set: (AUG-CC-PVTZ AUX)
    Blend: AUG-CC-PVTZ-RI
    Molecular point group: c1

    Geometry (in Angstrom), charge = 0, multiplicity = 1:

       Center              X                  Y                   Z               Mass
    ------------   -----------------  -----------------  -----------------  -----------------
         O            2.692210913125    -1.336574614017    -0.027279823794    15.994914619570
         C            2.749800913125     0.023358385983     0.406132176206    12.000000000000
         C            1.359627913125     0.574393385983     0.394540176206    12.000000000000
         C           -3.550256086875     0.360028385983    -0.411007823794    12.000000000000
         C            3.669851913125     0.838904385983    -0.496703823794    12.000000000000
         C            0.269358913125    -0.104556614017    -0.001507823794    12.000000000000
         C           -2.164237086875    -0.202561614017    -0.409897823794    12.000000000000
         C           -1.055081086875     0.489546585983    -0.009807923794    12.000000000000
         C           -4.471334086875    -0.385610614017     0.557548176206    12.000000000000
         H            3.135064913125     0.066713385983     1.439635176206     1.007825032230
         H            1.264465913125     1.609800385983     0.724459176206     1.007825032230
         H           -3.512405086875     1.422800385983    -0.145123823794     1.007825032230
         H           -3.972398086875     0.302939385983    -1.422850823794     1.007825032230
         H            3.304953913125     0.780669385983    -1.524567823794     1.007825032230
         H            3.697998913125     1.887844385983    -0.187938823794     1.007825032230
         H            4.693770913125     0.450625385983    -0.461662823794     1.007825032230
         H            0.401711713125    -1.135897714017    -0.320496923794     1.007825032230
         H           -2.058375086875    -1.240768614017    -0.731241823794     1.007825032230
         H           -1.165859086875     1.505456385983     0.305657176206     1.007825032230
         H           -4.526573086875    -1.447866614017     0.302490176206     1.007825032230
         H           -5.486370086875     0.021098385983     0.530241176206     1.007825032230
         H           -4.095335086875    -0.305078614017     1.580703176206     1.007825032230
         H            3.601804913125    -1.679485614017    -0.005166823794     1.007825032230

  Basis Set: AUG-CC-PVTZ
    Blend: AUG-CC-PVTZ
  Basis Set: (AUG-CC-PVTZ AUX)
    Blend: AUG-CC-PVTZ-JKFIT
	 Reference Energy          =    -386.0607389932476963 [Eh]
	 Singles Energy            =      -0.0000000000000000 [Eh]
	 Same-Spin Energy          =      -0.4005984369830277 [Eh]
	 Opposite-Spin Energy      =      -1.3788655413752631 [Eh]
	 Correlation Energy        =      -1.7794639783582906 [Eh]
	 Total Energy              =    -387.8402029716060042 [Eh]

	 ================> DF-SCS-MP2 Energies <==================
	-----------------------------------------------------------
	 SCS Same-Spin Scale       =       0.3333333333333333 [-]
	 SCS Opposite-Spin Scale   =       1.2000000000000000 [-]
	 SCS Same-Spin Energy      =      -0.1335328123276759 [Eh]
	 SCS Opposite-Spin Energy  =      -1.6546386496503156 [Eh]
	 SCS Correlation Energy    =      -1.7881714619779916 [Eh]
	 SCS Total Energy          =    -387.8489104552256777 [Eh]
	-----------------------------------------------------------

  Dipole Moment: [D]
     X:     1.2049      Y:     0.7357      Z:     0.3117     Total:     1.4458

*** Psi4 exiting successfully. Buy a developer a beer!
