                               Psi4 1.3.2 release

  ==> Input File <==

--------------------------------------------------------------------------
#psi4
#
memory 32 gb

molecule  {
0 1
  O        2.7021517    -1.3416942    -0.0042805
  C        2.7508540     0.0254460     0.4069810
  C        1.3606810     0.5764810     0.3953890
  C       -3.5492030     0.3621160    -0.4101590
  C        3.6709050     0.8409920    -0.4958550
  C        0.2704120    -0.1024690    -0.0006590
  C       -2.1631840    -0.2004740    -0.4090490
  C       -1.0635270     0.4697970    -0.0176060
  C       -4.4702810    -0.3835230     0.5583970
  H        3.1376298     0.0495953     1.4405465
  H        1.2655190     1.6118880     0.7253080
  H       -3.5113520     1.4248880    -0.1442750
  H       -3.9713450     0.3050270    -1.4220020
  H        3.3060070     0.7827570    -1.5237190
  H        3.6990520     1.8899320    -0.1870900
  H        4.6948240     0.4527130    -0.4608140
  H        0.3841050    -1.1350190    -0.3229170
  H       -2.0573220    -1.2386810    -0.7303930
  H       -1.1648060     1.5075440     0.3065060
  H       -4.5255200    -1.4457790     0.3033390
  H       -5.4853170     0.0231860     0.5310900
  H       -4.0942820    -0.3029910     1.5815520
  H        3.6028580    -1.6773980    -0.0043180
units angstrom
no_reorient  #important for SAPT in psi4, default
symmetry c1  #important for SAPT in psi4, default
}

set PROPERTIES_ORIGIN ["COM"]
properties('MP2/aug-cc-pvtz', properties = ['dipole'])
--------------------------------------------------------------------------

    Molecular point group: c1
  Charge       = 0
  Multiplicity = 1
  Basis Set: AUG-CC-PVTZ
    Blend: AUG-CC-PVTZ
  Basis Set: (AUG-CC-PVTZ AUX)
    Blend: AUG-CC-PVTZ-JKFIT

    Orbital Energies [Eh]
    ---------------------

    Doubly Occupied:

       1A    -20.556548     2A    -11.286446     3A    -11.226118
       4A    -11.223948     5A    -11.223399     6A    -11.223184
       7A    -11.222097     8A    -11.221086     9A    -11.212888
      10A     -1.362003    11A     -1.098121    12A     -1.061694
      13A     -1.016352    14A     -0.962619    15A     -0.876986
      16A     -0.829082    17A     -0.752888    18A     -0.749098
      19A     -0.694759    20A     -0.637528    21A     -0.628193
      22A     -0.618076    23A     -0.590431    24A     -0.583241
      25A     -0.546605    26A     -0.543917    27A     -0.527428
      28A     -0.518932    29A     -0.500977    30A     -0.492026
      31A     -0.479251    32A     -0.468227    33A     -0.452509
      34A     -0.418380    35A     -0.297707

  @DF-RHF Final Energy:  -386.06330430311164

   => Energetics <=

    Nuclear Repulsion Energy =            417.8917451296380250
    One-Electron Energy =               -1351.7046138006016918
    Two-Electron Energy =                 547.7495643678520310
    Total Energy =                       -386.0633043031116358
  Basis Set: (AUG-CC-PVTZ AUX)
    Blend: AUG-CC-PVTZ-RI
    Molecular point group: c1

    Geometry (in Angstrom), charge = 0, multiplicity = 1:

       Center              X                  Y                   Z               Mass
    ------------   -----------------  -----------------  -----------------  -----------------
         O            2.701012273447    -1.340626499149    -0.007090404760    15.994914619570
         C            2.749714573447     0.026513700851     0.404171095240    12.000000000000
         C            1.359541573447     0.577548700851     0.392579095240    12.000000000000
         C           -3.550342426553     0.363183700851    -0.412968904760    12.000000000000
         C            3.669765573447     0.842059700851    -0.498664904760    12.000000000000
         C            0.269272573447    -0.101401299149    -0.003468904760    12.000000000000
         C           -2.164323426553    -0.199406299149    -0.411858904760    12.000000000000
         C           -1.064666426553     0.470864700851    -0.020415904760    12.000000000000
         C           -4.471420426553    -0.382455299149     0.555587095240    12.000000000000
         H            3.136490373447     0.050663000851     1.437736595240     1.007825032230
         H            1.264379573447     1.612955700851     0.722498095240     1.007825032230
         H           -3.512491426553     1.425955700851    -0.147084904760     1.007825032230
         H           -3.972484426553     0.306094700851    -1.424811904760     1.007825032230
         H            3.304867573447     0.783824700851    -1.526528904760     1.007825032230
         H            3.697912573447     1.890999700851    -0.189899904760     1.007825032230
         H            4.693684573447     0.453780700851    -0.463623904760     1.007825032230
         H            0.382965573447    -1.133951299149    -0.325726904760     1.007825032230
         H           -2.058461426553    -1.237613299149    -0.733202904760     1.007825032230
         H           -1.165945426553     1.508611700851     0.303696095240     1.007825032230
         H           -4.526659426553    -1.444711299149     0.300529095240     1.007825032230
         H           -5.486456426553     0.024253700851     0.528280095240     1.007825032230
         H           -4.095421426553    -0.301923299149     1.578742095240     1.007825032230
         H            3.601718573447    -1.676330299149    -0.007127904760     1.007825032230

  Basis Set: AUG-CC-PVTZ
    Blend: AUG-CC-PVTZ
  Basis Set: (AUG-CC-PVTZ AUX)
    Blend: AUG-CC-PVTZ-JKFIT
	 Reference Energy          =    -386.0633043031116358 [Eh]
	 Singles Energy            =      -0.0000000000000000 [Eh]
	 Same-Spin Energy          =      -0.4001253891129415 [Eh]
	 Opposite-Spin Energy      =      -1.3778426562234065 [Eh]
	 Correlation Energy        =      -1.7779680453363480 [Eh]
	 Total Energy              =    -387.8412723484480011 [Eh]

	 ================> DF-SCS-MP2 Energies <==================
	-----------------------------------------------------------
	 SCS Same-Spin Scale       =       0.3333333333333333 [-]
	 SCS Opposite-Spin Scale   =       1.2000000000000000 [-]
	 SCS Same-Spin Energy      =      -0.1333751297043138 [Eh]
	 SCS Opposite-Spin Energy  =      -1.6534111874680877 [Eh]
	 SCS Correlation Energy    =      -1.7867863171724014 [Eh]
	 SCS Total Energy          =    -387.8500906202840497 [Eh]
	-----------------------------------------------------------

  Dipole Moment: [D]
     X:     1.1867      Y:     0.7574      Z:     0.2611     Total:     1.4319

*** Psi4 exiting successfully. Buy a developer a beer!
