                               Psi4 1.3.2 release

  ==> Input File <==

--------------------------------------------------------------------------
#psi4
#
memory 32 gb

molecule  {
0 1
  O        2.6932640    -1.3344870    -0.0264310
  C        2.7508540     0.0254460     0.4069810
  C        1.3606810     0.5764810     0.3953890
  C       -3.5492030     0.3621160    -0.4101590
  C        3.6709050     0.8409920    -0.4958550
  C        0.2704120    -0.1024690    -0.0006590
  C       -2.1496559    -0.1647931    -0.4446858
  C       -1.0635270     0.4697970    -0.0176060
  C       -4.5101232    -0.3509169     0.5441362
  H        3.1361180     0.0688010     1.4404840
  H        1.2655190     1.6118880     0.7253080
  H       -3.5113520     1.4248880    -0.1442750
  H       -3.9713450     0.3050270    -1.4220020
  H        3.3060070     0.7827570    -1.5237190
  H        3.6990520     1.8899320    -0.1870900
  H        4.6948240     0.4527130    -0.4608140
  H        0.3841050    -1.1350190    -0.3229170
  H       -2.0573220    -1.2386810    -0.7303930
  H       -1.1648060     1.5075440     0.3065060
  H       -4.5255200    -1.4457790     0.3033390
  H       -5.4853170     0.0231860     0.5310900
  H       -4.0942820    -0.3029910     1.5815520
  H        3.6028580    -1.6773980    -0.0043180
units angstrom
no_reorient  #important for SAPT in psi4, default
symmetry c1  #important for SAPT in psi4, default
}

set PROPERTIES_ORIGIN ["COM"]
properties('MP2/aug-cc-pvtz', properties = ['dipole'])
--------------------------------------------------------------------------

    Molecular point group: c1
  Charge       = 0
  Multiplicity = 1
  Basis Set: AUG-CC-PVTZ
    Blend: AUG-CC-PVTZ
  Basis Set: (AUG-CC-PVTZ AUX)
    Blend: AUG-CC-PVTZ-JKFIT

    Orbital Energies [Eh]
    ---------------------

    Doubly Occupied:

       1A    -20.559064     2A    -11.287010     3A    -11.225843
       4A    -11.224338     5A    -11.223136     6A    -11.222741
       7A    -11.221678     8A    -11.220972     9A    -11.214190
      10A     -1.360987    11A     -1.099558    12A     -1.061359
      13A     -1.016908    14A     -0.965245    15A     -0.877942
      16A     -0.830373    17A     -0.749490    18A     -0.747359
      19A     -0.695690    20A     -0.637381    21A     -0.627338
      22A     -0.616465    23A     -0.595428    24A     -0.581470
      25A     -0.546668    26A     -0.545995    27A     -0.527410
      28A     -0.521182    29A     -0.500218    30A     -0.490364
      31A     -0.471964    32A     -0.467316    33A     -0.453313
      34A     -0.420233    35A     -0.300782

  @DF-RHF Final Energy:  -386.05822046201047

   => Energetics <=

    Nuclear Repulsion Energy =            417.8784955959390004
    One-Electron Energy =               -1351.6586175362608628
    Two-Electron Energy =                 547.7219014783113380
    Total Energy =                       -386.0582204620104676
  Basis Set: (AUG-CC-PVTZ AUX)
    Blend: AUG-CC-PVTZ-RI
    Molecular point group: c1

    Geometry (in Angstrom), charge = 0, multiplicity = 1:

       Center              X                  Y                   Z               Mass
    ------------   -----------------  -----------------  -----------------  -----------------
         O            2.695767987915    -1.340985078310    -0.021682651015    15.994914619570
         C            2.753357987915     0.018947921690     0.411729348985    12.000000000000
         C            1.363184987915     0.569982921690     0.400137348985    12.000000000000
         C           -3.546699012085     0.355617921690    -0.405410651015    12.000000000000
         C            3.673408987915     0.834493921690    -0.491106651015    12.000000000000
         C            0.272915987915    -0.108967078310     0.004089348985    12.000000000000
         C           -2.147151912085    -0.171291178310    -0.439937451015    12.000000000000
         C           -1.061023012085     0.463298921690    -0.012857651015    12.000000000000
         C           -4.507619212085    -0.357414978310     0.548884548985    12.000000000000
         H            3.138621987915     0.062302921690     1.445232348985     1.007825032230
         H            1.268022987915     1.605389921690     0.730056348985     1.007825032230
         H           -3.508848012085     1.418389921690    -0.139526651015     1.007825032230
         H           -3.968841012085     0.298528921690    -1.417253651015     1.007825032230
         H            3.308510987915     0.776258921690    -1.518970651015     1.007825032230
         H            3.701555987915     1.883433921690    -0.182341651015     1.007825032230
         H            4.697327987915     0.446214921690    -0.456065651015     1.007825032230
         H            0.386608987915    -1.141517078310    -0.318168651015     1.007825032230
         H           -2.054818012085    -1.245179078310    -0.725644651015     1.007825032230
         H           -1.162302012085     1.501045921690     0.311254348985     1.007825032230
         H           -4.523016012085    -1.452277078310     0.308087348985     1.007825032230
         H           -5.482813012085     0.016687921690     0.535838348985     1.007825032230
         H           -4.091778012085    -0.309489078310     1.586300348985     1.007825032230
         H            3.605361987915    -1.683896078310     0.000430348985     1.007825032230

  Basis Set: AUG-CC-PVTZ
    Blend: AUG-CC-PVTZ
  Basis Set: (AUG-CC-PVTZ AUX)
    Blend: AUG-CC-PVTZ-JKFIT
	 Reference Energy          =    -386.0582204620104676 [Eh]
	 Singles Energy            =      -0.0000000000000000 [Eh]
	 Same-Spin Energy          =      -0.4002336732000162 [Eh]
	 Opposite-Spin Energy      =      -1.3781307572283210 [Eh]
	 Correlation Energy        =      -1.7783644304283373 [Eh]
	 Total Energy              =    -387.8365848924387933 [Eh]

	 ================> DF-SCS-MP2 Energies <==================
	-----------------------------------------------------------
	 SCS Same-Spin Scale       =       0.3333333333333333 [-]
	 SCS Opposite-Spin Scale   =       1.2000000000000000 [-]
	 SCS Same-Spin Energy      =      -0.1334112244000054 [Eh]
	 SCS Opposite-Spin Energy  =      -1.6537569086739852 [Eh]
	 SCS Correlation Energy    =      -1.7871681330739906 [Eh]
	 SCS Total Energy          =    -387.8453885950844438 [Eh]
	-----------------------------------------------------------

  Dipole Moment: [D]
     X:     1.2322      Y:     0.7439      Z:     0.3633     Total:     1.4845

*** Psi4 exiting successfully. Buy a developer a beer!
