                               Psi4 1.3.2 release

  ==> Input File <==

--------------------------------------------------------------------------
#psi4
#
memory 32 gb

molecule  {
0 1
  O        2.6932640    -1.3344870    -0.0264310
  C        2.7508540     0.0254460     0.4069810
  C        1.3606810     0.5764810     0.3953890
  C       -3.5492030     0.3621160    -0.4101590
  C        3.6709050     0.8409920    -0.4958550
  C        0.2704120    -0.1024690    -0.0006590
  C       -2.1631840    -0.2004740    -0.4090490
  C       -1.0635270     0.4697970    -0.0176060
  C       -4.4702810    -0.3835230     0.5583970
  H        3.1361180     0.0688010     1.4404840
  H        1.2655190     1.6118880     0.7253080
  H       -3.5113520     1.4248880    -0.1442750
  H       -3.9713450     0.3050270    -1.4220020
  H        3.3060070     0.7827570    -1.5237190
  H        3.6990520     1.8899320    -0.1870900
  H        4.6948240     0.4527130    -0.4608140
  H        0.3841050    -1.1350190    -0.3229170
  H       -2.0573220    -1.2386810    -0.7303930
  H       -1.1648060     1.5075440     0.3065060
  H       -4.5255200    -1.4457790     0.3033390
  H       -5.4853170     0.0231860     0.5310900
  H       -4.0942820    -0.3029910     1.5815520
  H        3.5093108    -1.6421313    -0.0065922
units angstrom
no_reorient  #important for SAPT in psi4, default
symmetry c1  #important for SAPT in psi4, default
}

set PROPERTIES_ORIGIN ["COM"]
properties('MP2/aug-cc-pvtz', properties = ['dipole'])
--------------------------------------------------------------------------

    Molecular point group: c1
  Charge       = 0
  Multiplicity = 1
  Basis Set: AUG-CC-PVTZ
    Blend: AUG-CC-PVTZ
  Basis Set: (AUG-CC-PVTZ AUX)
    Blend: AUG-CC-PVTZ-JKFIT

    Orbital Energies [Eh]
    ---------------------

    Doubly Occupied:

       1A    -20.548599     2A    -11.287568     3A    -11.226149
       4A    -11.223882     5A    -11.223415     6A    -11.223178
       7A    -11.222006     8A    -11.221222     9A    -11.212936
      10A     -1.386040    11A     -1.099011    12A     -1.064339
      13A     -1.018062    14A     -0.962813    15A     -0.878982
      16A     -0.831274    17A     -0.756932    18A     -0.752239
      19A     -0.705271    20A     -0.639214    21A     -0.628514
      22A     -0.621225    23A     -0.590915    24A     -0.584105
      25A     -0.549232    26A     -0.544192    27A     -0.528457
      28A     -0.519090    29A     -0.501176    30A     -0.494859
      31A     -0.479462    32A     -0.468732    33A     -0.455638
      34A     -0.418706    35A     -0.297750

  @DF-RHF Final Energy:  -386.05764440228745

   => Energetics <=

    Nuclear Repulsion Energy =            418.6797140881683958
    One-Electron Energy =               -1353.1443451811760497
    Two-Electron Energy =                 548.4069866907202595
    Total Energy =                       -386.0576444022874512
  Basis Set: (AUG-CC-PVTZ AUX)
    Blend: AUG-CC-PVTZ-RI
    Molecular point group: c1

    Geometry (in Angstrom), charge = 0, multiplicity = 1:

       Center              X                  Y                   Z               Mass
    ------------   -----------------  -----------------  -----------------  -----------------
         O            2.694011587061    -1.334768792974    -0.026412691335    15.994914619570
         C            2.751601587061     0.025164207026     0.406999308665    12.000000000000
         C            1.361428587061     0.576199207026     0.395407308665    12.000000000000
         C           -3.548455412939     0.361834207026    -0.410140691335    12.000000000000
         C            3.671652587061     0.840710207026    -0.495836691335    12.000000000000
         C            0.271159587061    -0.102750792974    -0.000640691335    12.000000000000
         C           -2.162436412939    -0.200755792974    -0.409030691335    12.000000000000
         C           -1.062779412939     0.469515207026    -0.017587691335    12.000000000000
         C           -4.469533412939    -0.383804792974     0.558415308665    12.000000000000
         H            3.136865587061     0.068519207026     1.440502308665     1.007825032230
         H            1.266266587061     1.611606207026     0.725326308665     1.007825032230
         H           -3.510604412939     1.424606207026    -0.144256691335     1.007825032230
         H           -3.970597412939     0.304745207026    -1.421983691335     1.007825032230
         H            3.306754587061     0.782475207026    -1.523700691335     1.007825032230
         H            3.699799587061     1.889650207026    -0.187071691335     1.007825032230
         H            4.695571587061     0.452431207026    -0.460795691335     1.007825032230
         H            0.384852587061    -1.135300792974    -0.322898691335     1.007825032230
         H           -2.056574412939    -1.238962792974    -0.730374691335     1.007825032230
         H           -1.164058412939     1.507262207026     0.306524308665     1.007825032230
         H           -4.524772412939    -1.446060792974     0.303357308665     1.007825032230
         H           -5.484569412939     0.022904207026     0.531108308665     1.007825032230
         H           -4.093534412939    -0.303272792974     1.581570308665     1.007825032230
         H            3.510058387061    -1.642413092974    -0.006573891335     1.007825032230

  Basis Set: AUG-CC-PVTZ
    Blend: AUG-CC-PVTZ
  Basis Set: (AUG-CC-PVTZ AUX)
    Blend: AUG-CC-PVTZ-JKFIT
	 Reference Energy          =    -386.0576444022874512 [Eh]
	 Singles Energy            =      -0.0000000000000000 [Eh]
	 Same-Spin Energy          =      -0.3991348606737560 [Eh]
	 Opposite-Spin Energy      =      -1.3753157643202720 [Eh]
	 Correlation Energy        =      -1.7744506249940279 [Eh]
	 Total Energy              =    -387.8320950272814684 [Eh]

	 ================> DF-SCS-MP2 Energies <==================
	-----------------------------------------------------------
	 SCS Same-Spin Scale       =       0.3333333333333333 [-]
	 SCS Opposite-Spin Scale   =       1.2000000000000000 [-]
	 SCS Same-Spin Energy      =      -0.1330449535579187 [Eh]
	 SCS Opposite-Spin Energy  =      -1.6503789171843264 [Eh]
	 SCS Correlation Energy    =      -1.7834238707422450 [Eh]
	 SCS Total Energy          =    -387.8410682730296912 [Eh]
	-----------------------------------------------------------

  Dipole Moment: [D]
     X:     1.1440      Y:     0.7806      Z:     0.3107     Total:     1.4193

*** Psi4 exiting successfully. Buy a developer a beer!
