                               Psi4 1.3.2 release

  ==> Input File <==

--------------------------------------------------------------------------
#psi4
#
memory 32 gb

molecule  {
0 1
  O        2.6932640    -1.3344870    -0.0264310
  C        2.7508540     0.0254460     0.4069810
  C        1.3606810     0.5764810     0.3953890
  C       -3.5748282     0.2934796    -0.4378246
  C        3.6709050     0.8409920    -0.4958550
  C        0.2704120    -0.1024690    -0.0006590
  C       -2.1631840    -0.2004740    -0.4090490
  C       -1.0255153     0.4123045    -0.0322881
  C       -4.4702810    -0.3835230     0.5583970
  H        3.1361180     0.0688010     1.4404840
  H        1.2655190     1.6118880     0.7253080
  H       -3.5113520     1.4248880    -0.1442750
  H       -3.9713450     0.3050270    -1.4220020
  H        3.3060070     0.7827570    -1.5237190
  H        3.6990520     1.8899320    -0.1870900
  H        4.6948240     0.4527130    -0.4608140
  H        0.3841050    -1.1350190    -0.3229170
  H       -2.0573220    -1.2386810    -0.7303930
  H       -1.1648060     1.5075440     0.3065060
  H       -4.5255200    -1.4457790     0.3033390
  H       -5.4853170     0.0231860     0.5310900
  H       -4.0942820    -0.3029910     1.5815520
  H        3.6028580    -1.6773980    -0.0043180
units angstrom
no_reorient  #important for SAPT in psi4, default
symmetry c1  #important for SAPT in psi4, default
}

set PROPERTIES_ORIGIN ["COM"]
properties('MP2/aug-cc-pvtz', properties = ['dipole'])
--------------------------------------------------------------------------

    Molecular point group: c1
  Charge       = 0
  Multiplicity = 1
  Basis Set: AUG-CC-PVTZ
    Blend: AUG-CC-PVTZ
  Basis Set: (AUG-CC-PVTZ AUX)
    Blend: AUG-CC-PVTZ-JKFIT

    Orbital Energies [Eh]
    ---------------------

    Doubly Occupied:

       1A    -20.559508     2A    -11.287947     3A    -11.227685
       4A    -11.227189     5A    -11.226080     6A    -11.225660
       7A    -11.221587     8A    -11.219822     9A    -11.212958
      10A     -1.361499    11A     -1.103322    12A     -1.064151
      13A     -1.022756    14A     -0.964871    15A     -0.882072
      16A     -0.829986    17A     -0.756091    18A     -0.741787
      19A     -0.694943    20A     -0.638267    21A     -0.633333
      22A     -0.616775    23A     -0.597509    24A     -0.580609
      25A     -0.547417    26A     -0.546038    27A     -0.531996
      28A     -0.522267    29A     -0.502556    30A     -0.485973
      31A     -0.474563    32A     -0.455101    33A     -0.451496
      34A     -0.427248    35A     -0.295899

  @DF-RHF Final Energy:  -386.04767366361989

   => Energetics <=

    Nuclear Repulsion Energy =            418.5910152780230646
    One-Electron Energy =               -1353.0034515123759320
    Two-Electron Energy =                 548.3647625707329780
    Total Energy =                       -386.0476736636198893
  Basis Set: (AUG-CC-PVTZ AUX)
    Blend: AUG-CC-PVTZ-RI
    Molecular point group: c1

    Geometry (in Angstrom), charge = 0, multiplicity = 1:

       Center              X                  Y                   Z               Mass
    ------------   -----------------  -----------------  -----------------  -----------------
         O            2.692085269783    -1.322484616818    -0.022401093458    15.994914619570
         C            2.749675269783     0.037448383182     0.411010906542    12.000000000000
         C            1.359502269783     0.588483383182     0.399418906542    12.000000000000
         C           -3.576006930217     0.305481983182    -0.433794693458    12.000000000000
         C            3.669726269783     0.852994383182    -0.491825093458    12.000000000000
         C            0.269233269783    -0.090466616818     0.003370906542    12.000000000000
         C           -2.164362730217    -0.188471616818    -0.405019093458    12.000000000000
         C           -1.026694030217     0.424306883182    -0.028258193458    12.000000000000
         C           -4.471459730217    -0.371520616818     0.562426906542    12.000000000000
         H            3.134939269783     0.080803383182     1.444513906542     1.007825032230
         H            1.264340269783     1.623890383182     0.729337906542     1.007825032230
         H           -3.512530730217     1.436890383182    -0.140245093458     1.007825032230
         H           -3.972523730217     0.317029383182    -1.417972093458     1.007825032230
         H            3.304828269783     0.794759383182    -1.519689093458     1.007825032230
         H            3.697873269783     1.901934383182    -0.183060093458     1.007825032230
         H            4.693645269783     0.464715383182    -0.456784093458     1.007825032230
         H            0.382926269783    -1.123016616818    -0.318887093458     1.007825032230
         H           -2.058500730217    -1.226678616818    -0.726363093458     1.007825032230
         H           -1.165984730217     1.519546383182     0.310535906542     1.007825032230
         H           -4.526698730217    -1.433776616818     0.307368906542     1.007825032230
         H           -5.486495730217     0.035188383182     0.535119906542     1.007825032230
         H           -4.095460730217    -0.290988616818     1.585581906542     1.007825032230
         H            3.601679269783    -1.665395616818    -0.000288093458     1.007825032230

  Basis Set: AUG-CC-PVTZ
    Blend: AUG-CC-PVTZ
  Basis Set: (AUG-CC-PVTZ AUX)
    Blend: AUG-CC-PVTZ-JKFIT
	 Reference Energy          =    -386.0476736636198893 [Eh]
	 Singles Energy            =      -0.0000000000000000 [Eh]
	 Same-Spin Energy          =      -0.4017155328234954 [Eh]
	 Opposite-Spin Energy      =      -1.3803047437935470 [Eh]
	 Correlation Energy        =      -1.7820202766170423 [Eh]
	 Total Energy              =    -387.8296939402369503 [Eh]

	 ================> DF-SCS-MP2 Energies <==================
	-----------------------------------------------------------
	 SCS Same-Spin Scale       =       0.3333333333333333 [-]
	 SCS Opposite-Spin Scale   =       1.2000000000000000 [-]
	 SCS Same-Spin Energy      =      -0.1339051776078318 [Eh]
	 SCS Opposite-Spin Energy  =      -1.6563656925522563 [Eh]
	 SCS Correlation Energy    =      -1.7902708701600880 [Eh]
	 SCS Total Energy          =    -387.8379445337799893 [Eh]
	-----------------------------------------------------------

  Dipole Moment: [D]
     X:     1.2722      Y:     0.6585      Z:     0.3047     Total:     1.4646

*** Psi4 exiting successfully. Buy a developer a beer!
