                               Psi4 1.3.2 release

  ==> Input File <==

--------------------------------------------------------------------------
#psi4
#
memory 32 gb

molecule  {
0 1
  O        2.6932640    -1.3344870    -0.0264310
  C        2.7508540     0.0254460     0.4069810
  C        1.3606810     0.5764810     0.3953890
  C       -3.5492030     0.3621160    -0.4101590
  C        3.6709050     0.8409920    -0.4958550
  C        0.2704120    -0.1024690    -0.0006590
  C       -2.1631840    -0.2004740    -0.4090490
  C       -1.0635270     0.4697970    -0.0176060
  C       -4.4702810    -0.3835230     0.5583970
  H        3.1361180     0.0688010     1.4404840
  H        1.2655190     1.6118880     0.7253080
  H       -3.5113520     1.4248880    -0.1442750
  H       -3.9713450     0.3050270    -1.4220020
  H        3.3060070     0.7827570    -1.5237190
  H        3.6990520     1.8899320    -0.1870900
  H        4.6948240     0.4527130    -0.4608140
  H        0.3631984    -0.9451472    -0.2636582
  H       -2.0573220    -1.2386810    -0.7303930
  H       -1.1648060     1.5075440     0.3065060
  H       -4.5255200    -1.4457790     0.3033390
  H       -5.4853170     0.0231860     0.5310900
  H       -4.0942820    -0.3029910     1.5815520
  H        3.6028580    -1.6773980    -0.0043180
units angstrom
no_reorient  #important for SAPT in psi4, default
symmetry c1  #important for SAPT in psi4, default
}

set PROPERTIES_ORIGIN ["COM"]
properties('MP2/aug-cc-pvtz', properties = ['dipole'])
--------------------------------------------------------------------------

    Molecular point group: c1
  Charge       = 0
  Multiplicity = 1
  Basis Set: AUG-CC-PVTZ
    Blend: AUG-CC-PVTZ
  Basis Set: (AUG-CC-PVTZ AUX)
    Blend: AUG-CC-PVTZ-JKFIT

    Orbital Energies [Eh]
    ---------------------

    Doubly Occupied:

       1A    -20.559132     2A    -11.286571     3A    -11.225519
       4A    -11.223076     5A    -11.222513     6A    -11.222234
       7A    -11.220764     8A    -11.212646     9A    -11.199984
      10A     -1.360908    11A     -1.102747    12A     -1.062858
      13A     -1.018856    14A     -0.964039    15A     -0.879749
      16A     -0.831322    17A     -0.776464    18A     -0.751895
      19A     -0.696572    20A     -0.648324    21A     -0.628016
      22A     -0.617749    23A     -0.592303    24A     -0.583199
      25A     -0.549777    26A     -0.545267    27A     -0.527221
      28A     -0.521831    29A     -0.511075    30A     -0.493374
      31A     -0.478963    32A     -0.468554    33A     -0.453171
      34A     -0.418183    35A     -0.297353

  @DF-RHF Final Energy:  -386.02799417810724

   => Energetics <=

    Nuclear Repulsion Energy =            419.0076361290799127
    One-Electron Energy =               -1353.7668339429242224
    Two-Electron Energy =                 548.7312036357370744
    Total Energy =                       -386.0279941781072921
  Basis Set: (AUG-CC-PVTZ AUX)
    Blend: AUG-CC-PVTZ-RI
    Molecular point group: c1

    Geometry (in Angstrom), charge = 0, multiplicity = 1:

       Center              X                  Y                   Z               Mass
    ------------   -----------------  -----------------  -----------------  -----------------
         O            2.693431044453    -1.336004394662    -0.026904462167    15.994914619570
         C            2.751021044453     0.023928605338     0.406507537833    12.000000000000
         C            1.360848044453     0.574963605338     0.394915537833    12.000000000000
         C           -3.549035955547     0.360598605338    -0.410632462167    12.000000000000
         C            3.671072044453     0.839474605338    -0.496328462167    12.000000000000
         C            0.270579044453    -0.103986394662    -0.001132462167    12.000000000000
         C           -2.163016955547    -0.201991394662    -0.409522462167    12.000000000000
         C           -1.063359955547     0.468279605338    -0.018079462167    12.000000000000
         C           -4.470113955547    -0.385040394662     0.557923537833    12.000000000000
         H            3.136285044453     0.067283605338     1.440010537833     1.007825032230
         H            1.265686044453     1.610370605338     0.724834537833     1.007825032230
         H           -3.511184955547     1.423370605338    -0.144748462167     1.007825032230
         H           -3.971177955547     0.303509605338    -1.422475462167     1.007825032230
         H            3.306174044453     0.781239605338    -1.524192462167     1.007825032230
         H            3.699219044453     1.888414605338    -0.187563462167     1.007825032230
         H            4.694991044453     0.451195605338    -0.461287462167     1.007825032230
         H            0.363365444453    -0.946664594662    -0.264131662167     1.007825032230
         H           -2.057154955547    -1.240198394662    -0.730866462167     1.007825032230
         H           -1.164638955547     1.506026605338     0.306032537833     1.007825032230
         H           -4.525352955547    -1.447296394662     0.302865537833     1.007825032230
         H           -5.485149955547     0.021668605338     0.530616537833     1.007825032230
         H           -4.094114955547    -0.304508394662     1.581078537833     1.007825032230
         H            3.603025044453    -1.678915394662    -0.004791462167     1.007825032230

  Basis Set: AUG-CC-PVTZ
    Blend: AUG-CC-PVTZ
  Basis Set: (AUG-CC-PVTZ AUX)
    Blend: AUG-CC-PVTZ-JKFIT
	 Reference Energy          =    -386.0279941781072353 [Eh]
	 Singles Energy            =      -0.0000000000000000 [Eh]
	 Same-Spin Energy          =      -0.3998545187019222 [Eh]
	 Opposite-Spin Energy      =      -1.3775032187764058 [Eh]
	 Correlation Energy        =      -1.7773577374783280 [Eh]
	 Total Energy              =    -387.8053519155855611 [Eh]

	 ================> DF-SCS-MP2 Energies <==================
	-----------------------------------------------------------
	 SCS Same-Spin Scale       =       0.3333333333333333 [-]
	 SCS Opposite-Spin Scale   =       1.2000000000000000 [-]
	 SCS Same-Spin Energy      =      -0.1332848395673074 [Eh]
	 SCS Opposite-Spin Energy  =      -1.6530038625316870 [Eh]
	 SCS Correlation Energy    =      -1.7862887020989944 [Eh]
	 SCS Total Energy          =    -387.8142828802062354 [Eh]
	-----------------------------------------------------------

  Dipole Moment: [D]
     X:     1.2187      Y:     0.7303      Z:     0.3107     Total:     1.4543

*** Psi4 exiting successfully. Buy a developer a beer!
