                               Psi4 1.3.2 release

  ==> Input File <==

--------------------------------------------------------------------------
#psi4
#
memory 32 gb

molecule  {
0 1
  O        2.6932640    -1.3344870    -0.0264310
  C        2.7508540     0.0254460     0.4069810
  C        1.3606810     0.5764810     0.3953890
  C       -3.5492030     0.3621160    -0.4101590
  C        3.6709050     0.8409920    -0.4958550
  C        0.2704120    -0.1024690    -0.0006590
  C       -2.1631840    -0.2004740    -0.4090490
  C       -1.0635270     0.4697970    -0.0176060
  C       -4.4702810    -0.3835230     0.5583970
  H        3.1361180     0.0688010     1.4404840
  H        1.2655190     1.6118880     0.7253080
  H       -3.5113520     1.4248880    -0.1442750
  H       -3.9713450     0.3050270    -1.4220020
  H        3.3060070     0.7827570    -1.5237190
  H        3.6990520     1.8899320    -0.1870900
  H        4.6948240     0.4527130    -0.4608140
  H        0.3841050    -1.1350190    -0.3229170
  H       -2.0573220    -1.2386810    -0.7303930
  H       -1.1555304     1.4125027     0.2768224
  H       -4.5255200    -1.4457790     0.3033390
  H       -5.4853170     0.0231860     0.5310900
  H       -4.0942820    -0.3029910     1.5815520
  H        3.6028580    -1.6773980    -0.0043180
units angstrom
no_reorient  #important for SAPT in psi4, default
symmetry c1  #important for SAPT in psi4, default
}

set PROPERTIES_ORIGIN ["COM"]
properties('MP2/aug-cc-pvtz', properties = ['dipole'])
--------------------------------------------------------------------------

    Molecular point group: c1
  Charge       = 0
  Multiplicity = 1
  Basis Set: AUG-CC-PVTZ
    Blend: AUG-CC-PVTZ
  Basis Set: (AUG-CC-PVTZ AUX)
    Blend: AUG-CC-PVTZ-JKFIT

    Orbital Energies [Eh]
    ---------------------

    Doubly Occupied:

       1A    -20.558414     2A    -11.286227     3A    -11.225076
       4A    -11.223308     5A    -11.222771     6A    -11.221069
       7A    -11.220348     8A    -11.212898     9A    -11.211032
      10A     -1.360301    11A     -1.099919    12A     -1.061166
      13A     -1.017115    14A     -0.963278    15A     -0.877034
      16A     -0.829471    17A     -0.763749    18A     -0.748844
      19A     -0.696964    20A     -0.638730    21A     -0.627940
      22A     -0.617264    23A     -0.593803    24A     -0.583523
      25A     -0.546535    26A     -0.544387    27A     -0.530882
      28A     -0.518625    29A     -0.501650    30A     -0.493831
      31A     -0.479374    32A     -0.468581    33A     -0.452678
      34A     -0.417729    35A     -0.297063

  @DF-RHF Final Energy:  -386.05694950277291

   => Energetics <=

    Nuclear Repulsion Energy =            418.4910312526475877
    One-Electron Energy =               -1352.8728069863773271
    Two-Electron Energy =                 548.3248262309567735
    Total Energy =                       -386.0569495027729090
  Basis Set: (AUG-CC-PVTZ AUX)
    Blend: AUG-CC-PVTZ-RI
    Molecular point group: c1

    Geometry (in Angstrom), charge = 0, multiplicity = 1:

       Center              X                  Y                   Z               Mass
    ------------   -----------------  -----------------  -----------------  -----------------
         O            2.693189828754    -1.333727373353    -0.026193635813    15.994914619570
         C            2.750779828754     0.026205626647     0.407218364187    12.000000000000
         C            1.360606828754     0.577240626647     0.395626364187    12.000000000000
         C           -3.549277171246     0.362875626647    -0.409921635813    12.000000000000
         C            3.670830828754     0.841751626647    -0.495617635813    12.000000000000
         C            0.270337828754    -0.101709373353    -0.000421635813    12.000000000000
         C           -2.163258171246    -0.199714373353    -0.408811635813    12.000000000000
         C           -1.063601171246     0.470556626647    -0.017368635813    12.000000000000
         C           -4.470355171246    -0.382763373353     0.558634364187    12.000000000000
         H            3.136043828754     0.069560626647     1.440721364187     1.007825032230
         H            1.265444828754     1.612647626647     0.725545364187     1.007825032230
         H           -3.511426171246     1.425647626647    -0.144037635813     1.007825032230
         H           -3.971419171246     0.305786626647    -1.421764635813     1.007825032230
         H            3.305932828754     0.783516626647    -1.523481635813     1.007825032230
         H            3.698977828754     1.890691626647    -0.186852635813     1.007825032230
         H            4.694749828754     0.453472626647    -0.460576635813     1.007825032230
         H            0.384030828754    -1.134259373353    -0.322679635813     1.007825032230
         H           -2.057396171246    -1.237921373353    -0.730155635813     1.007825032230
         H           -1.155604571246     1.413262326647     0.277059764187     1.007825032230
         H           -4.525594171246    -1.445019373353     0.303576364187     1.007825032230
         H           -5.485391171246     0.023945626647     0.531327364187     1.007825032230
         H           -4.094356171246    -0.302231373353     1.581789364187     1.007825032230
         H            3.602783828754    -1.676638373353    -0.004080635813     1.007825032230

  Basis Set: AUG-CC-PVTZ
    Blend: AUG-CC-PVTZ
  Basis Set: (AUG-CC-PVTZ AUX)
    Blend: AUG-CC-PVTZ-JKFIT
	 Reference Energy          =    -386.0569495027729090 [Eh]
	 Singles Energy            =      -0.0000000000000000 [Eh]
	 Same-Spin Energy          =      -0.4001341717841918 [Eh]
	 Opposite-Spin Energy      =      -1.3777514682428507 [Eh]
	 Correlation Energy        =      -1.7778856400270424 [Eh]
	 Total Energy              =    -387.8348351427999319 [Eh]

	 ================> DF-SCS-MP2 Energies <==================
	-----------------------------------------------------------
	 SCS Same-Spin Scale       =       0.3333333333333333 [-]
	 SCS Opposite-Spin Scale   =       1.2000000000000000 [-]
	 SCS Same-Spin Energy      =      -0.1333780572613972 [Eh]
	 SCS Opposite-Spin Energy  =      -1.6533017618914208 [Eh]
	 SCS Correlation Energy    =      -1.7866798191528179 [Eh]
	 SCS Total Energy          =    -387.8436293219257323 [Eh]
	-----------------------------------------------------------

  Dipole Moment: [D]
     X:     1.1770      Y:     0.7670      Z:     0.3188     Total:     1.4406

*** Psi4 exiting successfully. Buy a developer a beer!
