                               Psi4 1.3.2 release

  ==> Input File <==

--------------------------------------------------------------------------
#psi4
#
memory 32 gb

molecule  {
0 1
  O        2.6932640    -1.3344870    -0.0264310
  C        2.7508540     0.0254460     0.4069810
  C        1.3606810     0.5764810     0.3953890
  C       -3.5492030     0.3621160    -0.4101590
  C        3.6709050     0.8409920    -0.4958550
  C        0.2838596    -0.1212361    -0.0048112
  C       -2.1631840    -0.2004740    -0.4090490
  C       -1.0635270     0.4697970    -0.0176060
  C       -4.4702810    -0.3835230     0.5583970
  H        3.1361180     0.0688010     1.4404840
  H        1.2842933     1.6124465     0.7284210
  H       -3.5113520     1.4248880    -0.1442750
  H       -3.9713450     0.3050270    -1.4220020
  H        3.3060070     0.7827570    -1.5237190
  H        3.6990520     1.8899320    -0.1870900
  H        4.6948240     0.4527130    -0.4608140
  H        0.3841050    -1.1350190    -0.3229170
  H       -2.0573220    -1.2386810    -0.7303930
  H       -1.1648060     1.5075440     0.3065060
  H       -4.5255200    -1.4457790     0.3033390
  H       -5.4853170     0.0231860     0.5310900
  H       -4.0942820    -0.3029910     1.5815520
  H        3.6028580    -1.6773980    -0.0043180
units angstrom
no_reorient  #important for SAPT in psi4, default
symmetry c1  #important for SAPT in psi4, default
}

set PROPERTIES_ORIGIN ["COM"]
properties('MP2/aug-cc-pvtz', properties = ['dipole'])
--------------------------------------------------------------------------

    Molecular point group: c1
  Charge       = 0
  Multiplicity = 1
  Basis Set: AUG-CC-PVTZ
    Blend: AUG-CC-PVTZ
  Basis Set: (AUG-CC-PVTZ AUX)
    Blend: AUG-CC-PVTZ-JKFIT

    Orbital Energies [Eh]
    ---------------------

    Doubly Occupied:

       1A    -20.558470     2A    -11.285506     3A    -11.225465
       4A    -11.223998     5A    -11.223566     6A    -11.222817
       7A    -11.222057     8A    -11.220397     9A    -11.212523
      10A     -1.360436    11A     -1.096159    12A     -1.061349
      13A     -1.014825    14A     -0.962300    15A     -0.875430
      16A     -0.828191    17A     -0.751405    18A     -0.750337
      19A     -0.694971    20A     -0.638008    21A     -0.626710
      22A     -0.616426    23A     -0.590000    24A     -0.581510
      25A     -0.547481    26A     -0.544112    27A     -0.527211
      28A     -0.519326    29A     -0.504069    30A     -0.492414
      31A     -0.478777    32A     -0.465297    33A     -0.452526
      34A     -0.416086    35A     -0.298632

  @DF-RHF Final Energy:  -386.06227781825589

   => Energetics <=

    Nuclear Repulsion Energy =            417.9028878901401072
    One-Electron Energy =               -1351.7527580354983456
    Two-Electron Energy =                 547.7875923271022884
    Total Energy =                       -386.0622778182558932
  Basis Set: (AUG-CC-PVTZ AUX)
    Blend: AUG-CC-PVTZ-RI
    Molecular point group: c1

    Geometry (in Angstrom), charge = 0, multiplicity = 1:

       Center              X                  Y                   Z               Mass
    ------------   -----------------  -----------------  -----------------  -----------------
         O            2.691834252426    -1.332705543329    -0.026060625728    15.994914619570
         C            2.749424252426     0.027227456671     0.407351374272    12.000000000000
         C            1.359251252426     0.578262456671     0.395759374272    12.000000000000
         C           -3.550632747574     0.363897456671    -0.409788625728    12.000000000000
         C            3.669475252426     0.842773456671    -0.495484625728    12.000000000000
         C            0.282429852426    -0.119454643329    -0.004440825728    12.000000000000
         C           -2.164613747574    -0.198692543329    -0.408678625728    12.000000000000
         C           -1.064956747574     0.471578456671    -0.017235625728    12.000000000000
         C           -4.471710747574    -0.381741543329     0.558767374272    12.000000000000
         H            3.134688252426     0.070582456671     1.440854374272     1.007825032230
         H            1.282863552426     1.614227956671     0.728791374272     1.007825032230
         H           -3.512781747574     1.426669456671    -0.143904625728     1.007825032230
         H           -3.972774747574     0.306808456671    -1.421631625728     1.007825032230
         H            3.304577252426     0.784538456671    -1.523348625728     1.007825032230
         H            3.697622252426     1.891713456671    -0.186719625728     1.007825032230
         H            4.693394252426     0.454494456671    -0.460443625728     1.007825032230
         H            0.382675252426    -1.133237543329    -0.322546625728     1.007825032230
         H           -2.058751747574    -1.236899543329    -0.730022625728     1.007825032230
         H           -1.166235747574     1.509325456671     0.306876374272     1.007825032230
         H           -4.526949747574    -1.443997543329     0.303709374272     1.007825032230
         H           -5.486746747574     0.024967456671     0.531460374272     1.007825032230
         H           -4.095711747574    -0.301209543329     1.581922374272     1.007825032230
         H            3.601428252426    -1.675616543329    -0.003947625728     1.007825032230

  Basis Set: AUG-CC-PVTZ
    Blend: AUG-CC-PVTZ
  Basis Set: (AUG-CC-PVTZ AUX)
    Blend: AUG-CC-PVTZ-JKFIT
	 Reference Energy          =    -386.0622778182558932 [Eh]
	 Singles Energy            =      -0.0000000000000000 [Eh]
	 Same-Spin Energy          =      -0.4000815570440251 [Eh]
	 Opposite-Spin Energy      =      -1.3781033158466216 [Eh]
	 Correlation Energy        =      -1.7781848728906466 [Eh]
	 Total Energy              =    -387.8404626911465130 [Eh]

	 ================> DF-SCS-MP2 Energies <==================
	-----------------------------------------------------------
	 SCS Same-Spin Scale       =       0.3333333333333333 [-]
	 SCS Opposite-Spin Scale   =       1.2000000000000000 [-]
	 SCS Same-Spin Energy      =      -0.1333605190146750 [Eh]
	 SCS Opposite-Spin Energy  =      -1.6537239790159459 [Eh]
	 SCS Correlation Energy    =      -1.7870844980306209 [Eh]
	 SCS Total Energy          =    -387.8493623162864878 [Eh]
	-----------------------------------------------------------

  Dipole Moment: [D]
     X:     1.2196      Y:     0.7308      Z:     0.3131     Total:     1.4558

*** Psi4 exiting successfully. Buy a developer a beer!
