                               Psi4 1.3.2 release

  ==> Input File <==

--------------------------------------------------------------------------
#psi4
#
memory 32 gb

molecule  {
0 1
  O        2.6932640    -1.3344870    -0.0264310
  C        2.7552665     0.0368294     0.4115913
  C        1.3606810     0.5764810     0.3953890
  C       -3.5492030     0.3621160    -0.4101590
  C        3.6709050     0.8409920    -0.4958550
  C        0.2637850    -0.0930695     0.0016444
  C       -2.1631840    -0.2004740    -0.4090490
  C       -1.0635270     0.4697970    -0.0176060
  C       -4.4702810    -0.3835230     0.5583970
  H        3.1361180     0.0688010     1.4404840
  H        1.2655190     1.6118880     0.7253080
  H       -3.5113520     1.4248880    -0.1442750
  H       -3.9713450     0.3050270    -1.4220020
  H        3.3060070     0.7827570    -1.5237190
  H        3.6990520     1.8899320    -0.1870900
  H        4.6948240     0.4527130    -0.4608140
  H        0.3841050    -1.1350190    -0.3229170
  H       -2.0573220    -1.2386810    -0.7303930
  H       -1.1648060     1.5075440     0.3065060
  H       -4.5255200    -1.4457790     0.3033390
  H       -5.4853170     0.0231860     0.5310900
  H       -4.0942820    -0.3029910     1.5815520
  H        3.6028580    -1.6773980    -0.0043180
units angstrom
no_reorient  #important for SAPT in psi4, default
symmetry c1  #important for SAPT in psi4, default
}

set PROPERTIES_ORIGIN ["COM"]
properties('MP2/aug-cc-pvtz', properties = ['dipole'])
--------------------------------------------------------------------------

    Molecular point group: c1
  Charge       = 0
  Multiplicity = 1
  Basis Set: AUG-CC-PVTZ
    Blend: AUG-CC-PVTZ
  Basis Set: (AUG-CC-PVTZ AUX)
    Blend: AUG-CC-PVTZ-JKFIT

    Orbital Energies [Eh]
    ---------------------

    Doubly Occupied:

       1A    -20.557230     2A    -11.286624     3A    -11.226431
       4A    -11.223811     5A    -11.223482     6A    -11.222756
       7A    -11.221927     8A    -11.220879     9A    -11.212993
      10A     -1.355645    11A     -1.098811    12A     -1.061791
      13A     -1.017829    14A     -0.962917    15A     -0.877434
      16A     -0.828893    17A     -0.753472    18A     -0.745841
      19A     -0.694325    20A     -0.635922    21A     -0.629126
      22A     -0.615825    23A     -0.589780    24A     -0.582940
      25A     -0.546281    26A     -0.544279    27A     -0.526196
      28A     -0.518640    29A     -0.498382    30A     -0.492097
      31A     -0.479423    32A     -0.469290    33A     -0.453881
      34A     -0.420107    35A     -0.297238

  @DF-RHF Final Energy:  -386.06176371080306

   => Energetics <=

    Nuclear Repulsion Energy =            417.9291312056145671
    One-Electron Energy =               -1351.7967976285269742
    Two-Electron Energy =                 547.8059027121094005
    Total Energy =                       -386.0617637108030067
  Basis Set: (AUG-CC-PVTZ AUX)
    Blend: AUG-CC-PVTZ-RI
    Molecular point group: c1

    Geometry (in Angstrom), charge = 0, multiplicity = 1:

       Center              X                  Y                   Z               Mass
    ------------   -----------------  -----------------  -----------------  -----------------
         O            2.693474689261    -1.336464626162    -0.027088768868    15.994914619570
         C            2.755477189261     0.034851773838     0.410933531132    12.000000000000
         C            1.360891689261     0.574503373838     0.394731231132    12.000000000000
         C           -3.548992310739     0.360138373838    -0.410816768868    12.000000000000
         C            3.671115689261     0.839014373838    -0.496512768868    12.000000000000
         C            0.263995689261    -0.095047126162     0.000986631132    12.000000000000
         C           -2.162973310739    -0.202451626162    -0.409706768868    12.000000000000
         C           -1.063316310739     0.467819373838    -0.018263768868    12.000000000000
         C           -4.470070310739    -0.385500626162     0.557739231132    12.000000000000
         H            3.136328689261     0.066823373838     1.439826231132     1.007825032230
         H            1.265729689261     1.609910373838     0.724650231132     1.007825032230
         H           -3.511141310739     1.422910373838    -0.144932768868     1.007825032230
         H           -3.971134310739     0.303049373838    -1.422659768868     1.007825032230
         H            3.306217689261     0.780779373838    -1.524376768868     1.007825032230
         H            3.699262689261     1.887954373838    -0.187747768868     1.007825032230
         H            4.695034689261     0.450735373838    -0.461471768868     1.007825032230
         H            0.384315689261    -1.136996626162    -0.323574768868     1.007825032230
         H           -2.057111310739    -1.240658626162    -0.731050768868     1.007825032230
         H           -1.164595310739     1.505566373838     0.305848231132     1.007825032230
         H           -4.525309310739    -1.447756626162     0.302681231132     1.007825032230
         H           -5.485106310739     0.021208373838     0.530432231132     1.007825032230
         H           -4.094071310739    -0.304968626162     1.580894231132     1.007825032230
         H            3.603068689261    -1.679375626162    -0.004975768868     1.007825032230

  Basis Set: AUG-CC-PVTZ
    Blend: AUG-CC-PVTZ
  Basis Set: (AUG-CC-PVTZ AUX)
    Blend: AUG-CC-PVTZ-JKFIT
	 Reference Energy          =    -386.0617637108030635 [Eh]
	 Singles Energy            =      -0.0000000000000000 [Eh]
	 Same-Spin Energy          =      -0.4005285134358517 [Eh]
	 Opposite-Spin Energy      =      -1.3787070263291255 [Eh]
	 Correlation Energy        =      -1.7792355397649771 [Eh]
	 Total Energy              =    -387.8409992505680179 [Eh]

	 ================> DF-SCS-MP2 Energies <==================
	-----------------------------------------------------------
	 SCS Same-Spin Scale       =       0.3333333333333333 [-]
	 SCS Opposite-Spin Scale   =       1.2000000000000000 [-]
	 SCS Same-Spin Energy      =      -0.1335095044786172 [Eh]
	 SCS Opposite-Spin Energy  =      -1.6544484315949506 [Eh]
	 SCS Correlation Energy    =      -1.7879579360735678 [Eh]
	 SCS Total Energy          =    -387.8497216468766169 [Eh]
	-----------------------------------------------------------

  Dipole Moment: [D]
     X:     1.1946      Y:     0.7683      Z:     0.3149     Total:     1.4548

*** Psi4 exiting successfully. Buy a developer a beer!
