                               Psi4 1.4a3.dev225

  ==> Input File <==

--------------------------------------------------------------------------
#psi4
#
memory 32 gb

molecule  {
0 1
  O       -2.7161510     1.3794200    -0.1343610
  C       -2.7832390     0.0721360     0.4401970
  C       -1.3979030    -0.4954620     0.4743180
  C        3.5083460    -0.4405980    -0.4123350
  C       -3.7239960    -0.8239440    -0.3625680
  C       -0.3030690     0.1219220    -0.0067100
  C        2.1282810     0.1394430    -0.4544070
  C        1.0428628    -0.4765633     0.0240597
  C        4.4606410     0.4027870     0.4416180
  H       -3.1581590     0.1412460     1.4762970
  H       -1.3112260    -1.4900120     0.9147240
  H        3.4619600    -1.4629760    -0.0187660
  H        3.9104550    -0.5133060    -1.4317100
  H       -3.3684670    -0.8811940    -1.3941910
  H       -3.7626400    -1.8335820     0.0574350
  H       -4.7426360    -0.4191700    -0.3608330
  H       -0.4078810     1.1149080    -0.4388390
  H        2.0311270     1.1370710    -0.8883280
  H        1.1170930    -1.4649260     0.4609700
  H        4.5263310     1.4251690     0.0574090
  H        5.4690900    -0.0219830     0.4454750
  H        4.1044230     0.4539160     1.4740500
  H       -3.6221830     1.7324190    -0.1413340
units angstrom
no_reorient  #important for SAPT in psi4, default
symmetry c1  #important for SAPT in psi4, default
}

set PROPERTIES_ORIGIN ["COM"]
properties('MP2/aug-cc-pvtz', properties = ['dipole'])
--------------------------------------------------------------------------

    Molecular point group: c1
  Charge       = 0
  Multiplicity = 1
  Basis Set: AUG-CC-PVTZ
    Blend: AUG-CC-PVTZ
  Basis Set: (AUG-CC-PVTZ AUX)
    Blend: AUG-CC-PVTZ-JKFIT

    Orbital Energies [Eh]
    ---------------------

    Doubly Occupied:

       1A    -20.558687     2A    -11.286906     3A    -11.225136
       4A    -11.224754     5A    -11.223169     6A    -11.222808
       7A    -11.222505     8A    -11.220823     9A    -11.212934
      10A     -1.360002    11A     -1.096623    12A     -1.060664
      13A     -1.014381    14A     -0.963104    15A     -0.874970
      16A     -0.828577    17A     -0.752769    18A     -0.747414
      19A     -0.694632    20A     -0.636812    21A     -0.626523
      22A     -0.616550    23A     -0.590852    24A     -0.581557
      25A     -0.546358    26A     -0.543636    27A     -0.528925
      28A     -0.518313    29A     -0.501073    30A     -0.492588
      31A     -0.479909    32A     -0.464884    33A     -0.452513
      34A     -0.416486    35A     -0.300159

  @DF-RHF Final Energy:  -386.06280249402784

   => Energetics <=

    Nuclear Repulsion Energy =            417.4142001681338456
    One-Electron Energy =               -1350.7780208106071314
    Two-Electron Energy =                 547.3010181484454506
    Total Energy =                       -386.0628024940277783
  Basis Set: (AUG-CC-PVTZ AUX)
    Blend: AUG-CC-PVTZ-RI
    Molecular point group: c1

    Geometry (in Angstrom), charge = 0, multiplicity = 1:

       Center              X                  Y                   Z               Mass
    ------------   -----------------  -----------------  -----------------  -----------------
         O           -2.684581970474     1.363864337321    -0.132735366783    15.994914619570
         C           -2.751669970474     0.056580337321     0.441822633217    12.000000000000
         C           -1.366333970474    -0.511017662679     0.475943633217    12.000000000000
         C            3.539915029526    -0.456153662679    -0.410709366783    12.000000000000
         C           -3.692426970474    -0.839499662679    -0.360942366783    12.000000000000
         C           -0.271499970474     0.106366337321    -0.005084366783    12.000000000000
         C            2.159850029526     0.123887337321    -0.452781366783    12.000000000000
         C            1.074431829526    -0.492118962679     0.025685333217    12.000000000000
         C            4.492210029526     0.387231337321     0.443243633217    12.000000000000
         H           -3.126589970474     0.125690337321     1.477922633217     1.007825032230
         H           -1.279656970474    -1.505567662679     0.916349633217     1.007825032230
         H            3.493529029526    -1.478531662679    -0.017140366783     1.007825032230
         H            3.942024029526    -0.528861662679    -1.430084366783     1.007825032230
         H           -3.336897970474    -0.896749662679    -1.392565366783     1.007825032230
         H           -3.731070970474    -1.849137662679     0.059060633217     1.007825032230
         H           -4.711066970474    -0.434725662679    -0.359207366783     1.007825032230
         H           -0.376311970474     1.099352337321    -0.437213366783     1.007825032230
         H            2.062696029526     1.121515337321    -0.886702366783     1.007825032230
         H            1.148662029526    -1.480481662679     0.462595633217     1.007825032230
         H            4.557900029526     1.409613337321     0.059034633217     1.007825032230
         H            5.500659029526    -0.037538662679     0.447100633217     1.007825032230
         H            4.135992029526     0.438360337321     1.475675633217     1.007825032230
         H           -3.590613970474     1.716863337321    -0.139708366783     1.007825032230

  Basis Set: AUG-CC-PVTZ
    Blend: AUG-CC-PVTZ
  Basis Set: (AUG-CC-PVTZ AUX)
    Blend: AUG-CC-PVTZ-JKFIT
	 Reference Energy          =    -386.0628024940278351 [Eh]
	 Singles Energy            =      -0.0000000000000000 [Eh]
	 Same-Spin Energy          =      -0.3998802653749195 [Eh]
	 Opposite-Spin Energy      =      -1.3778965267749892 [Eh]
	 Correlation Energy        =      -1.7777767921499086 [Eh]
	 Total Energy              =    -387.8405792861777286 [Eh]

	 ================> DF-SCS-MP2 Energies <==================
	-----------------------------------------------------------
	 SCS Same-Spin Scale       =       0.3333333333333333 [-]
	 SCS Opposite-Spin Scale   =       1.2000000000000000 [-]
	 SCS Same-Spin Energy      =      -0.1332934217916398 [Eh]
	 SCS Opposite-Spin Energy  =      -1.6534758321299869 [Eh]
	 SCS Correlation Energy    =      -1.7867692539216267 [Eh]
	 SCS Total Energy          =    -387.8495717479494829 [Eh]
	-----------------------------------------------------------

  Dipole Moment: [D]
     X:    -1.2011      Y:    -0.6883      Z:     0.3893     Total:     1.4380

*** Psi4 exiting successfully. Buy a developer a beer!
