                               Psi4 1.3.2 release

  ==> Input File <==

--------------------------------------------------------------------------
#psi4
#
memory 32 gb

molecule  {
0 1
  O        2.6932640    -1.3344870    -0.0264310
  C        2.7508540     0.0254460     0.4069810
  C        1.3606810     0.5764810     0.3953890
  C       -3.5492030     0.3621160    -0.4101590
  C        3.6709050     0.8409920    -0.4958550
  C        0.2704120    -0.1024690    -0.0006590
  C       -2.1631840    -0.2004740    -0.4090490
  C       -0.9001316     0.5693909     0.0405576
  C       -4.4702810    -0.3835230     0.5583970
  H        3.1361180     0.0688010     1.4404840
  H        1.2655190     1.6118880     0.7253080
  H       -3.5113520     1.4248880    -0.1442750
  H       -3.9713450     0.3050270    -1.4220020
  H        3.3060070     0.7827570    -1.5237190
  H        3.6990520     1.8899320    -0.1870900
  H        4.6948240     0.4527130    -0.4608140
  H        0.3841050    -1.1350190    -0.3229170
  H       -2.0573220    -1.2386810    -0.7303930
  H       -1.1648060     1.5075440     0.3065060
  H       -4.5255200    -1.4457790     0.3033390
  H       -5.4853170     0.0231860     0.5310900
  H       -4.0942820    -0.3029910     1.5815520
  H        3.6028580    -1.6773980    -0.0043180
units angstrom
no_reorient  #important for SAPT in psi4, default
symmetry c1  #important for SAPT in psi4, default
}

set PROPERTIES_ORIGIN ["COM"]
properties('MP2/aug-cc-pvtz', properties = ['dipole'])
--------------------------------------------------------------------------

    Molecular point group: c1
  Charge       = 0
  Multiplicity = 1
  Basis Set: AUG-CC-PVTZ
    Blend: AUG-CC-PVTZ
  Basis Set: (AUG-CC-PVTZ AUX)
    Blend: AUG-CC-PVTZ-JKFIT

    Orbital Energies [Eh]
    ---------------------

    Doubly Occupied:

       1A    -20.559095     2A    -11.284634     3A    -11.249066
       4A    -11.234459     5A    -11.225394     6A    -11.220216
       7A    -11.219925     8A    -11.217460     9A    -11.213427
      10A     -1.360848    11A     -1.103615    12A     -1.056783
      13A     -1.021940    14A     -0.944101    15A     -0.882572
      16A     -0.822339    17A     -0.765441    18A     -0.749978
      19A     -0.699755    20A     -0.637975    21A     -0.630278
      22A     -0.616433    23A     -0.598886    24A     -0.578317
      25A     -0.546890    26A     -0.544089    27A     -0.528820
      28A     -0.513826    29A     -0.507898    30A     -0.495047
      31A     -0.481821    32A     -0.457087    33A     -0.453625
      34A     -0.422625    35A     -0.260772

  @DF-RHF Final Energy:  -386.00229860444489

   => Energetics <=

    Nuclear Repulsion Energy =            417.6127016485306740
    One-Electron Energy =               -1351.0191243206368199
    Two-Electron Energy =                 547.4041240676612006
    Total Energy =                       -386.0022986044449453
  Basis Set: (AUG-CC-PVTZ AUX)
    Blend: AUG-CC-PVTZ-RI
    Molecular point group: c1

    Geometry (in Angstrom), charge = 0, multiplicity = 1:

       Center              X                  Y                   Z               Mass
    ------------   -----------------  -----------------  -----------------  -----------------
         O            2.677715383681    -1.343964217865    -0.031965668347    15.994914619570
         C            2.735305383681     0.015968782135     0.401446331653    12.000000000000
         C            1.345132383681     0.567003782135     0.389854331653    12.000000000000
         C           -3.564751616319     0.352638782135    -0.415693668347    12.000000000000
         C            3.655356383681     0.831514782135    -0.501389668347    12.000000000000
         C            0.254863383681    -0.111946217865    -0.006193668347    12.000000000000
         C           -2.178732616319    -0.209951217865    -0.414583668347    12.000000000000
         C           -0.915680216319     0.559913682135     0.035022931653    12.000000000000
         C           -4.485829616319    -0.393000217865     0.552862331653    12.000000000000
         H            3.120569383681     0.059323782135     1.434949331653     1.007825032230
         H            1.249970383681     1.602410782135     0.719773331653     1.007825032230
         H           -3.526900616319     1.415410782135    -0.149809668347     1.007825032230
         H           -3.986893616319     0.295549782135    -1.427536668347     1.007825032230
         H            3.290458383681     0.773279782135    -1.529253668347     1.007825032230
         H            3.683503383681     1.880454782135    -0.192624668347     1.007825032230
         H            4.679275383681     0.443235782135    -0.466348668347     1.007825032230
         H            0.368556383681    -1.144496217865    -0.328451668347     1.007825032230
         H           -2.072870616319    -1.248158217865    -0.735927668347     1.007825032230
         H           -1.180354616319     1.498066782135     0.300971331653     1.007825032230
         H           -4.541068616319    -1.455256217865     0.297804331653     1.007825032230
         H           -5.500865616319     0.013708782135     0.525555331653     1.007825032230
         H           -4.109830616319    -0.312468217865     1.576017331653     1.007825032230
         H            3.587309383681    -1.686875217865    -0.009852668347     1.007825032230

  Basis Set: AUG-CC-PVTZ
    Blend: AUG-CC-PVTZ
  Basis Set: (AUG-CC-PVTZ AUX)
    Blend: AUG-CC-PVTZ-JKFIT
	 Reference Energy          =    -386.0022986044448885 [Eh]
	 Singles Energy            =      -0.0000000000000000 [Eh]
	 Same-Spin Energy          =      -0.4058016983852119 [Eh]
	 Opposite-Spin Energy      =      -1.3880316618788076 [Eh]
	 Correlation Energy        =      -1.7938333602640193 [Eh]
	 Total Energy              =    -387.7961319647089340 [Eh]

	 ================> DF-SCS-MP2 Energies <==================
	-----------------------------------------------------------
	 SCS Same-Spin Scale       =       0.3333333333333333 [-]
	 SCS Opposite-Spin Scale   =       1.2000000000000000 [-]
	 SCS Same-Spin Energy      =      -0.1352672327950706 [Eh]
	 SCS Opposite-Spin Energy  =      -1.6656379942545689 [Eh]
	 SCS Correlation Energy    =      -1.8009052270496395 [Eh]
	 SCS Total Energy          =    -387.8032038314944998 [Eh]
	-----------------------------------------------------------

  Dipole Moment: [D]
     X:     1.3119      Y:     0.7826      Z:     0.3460     Total:     1.5663

*** Psi4 exiting successfully. Buy a developer a beer!
