                               Psi4 1.3.2 release

  ==> Input File <==

--------------------------------------------------------------------------
#psi4
#
memory 32 gb

molecule  {
0 1
  O        2.7089695    -1.3290051    -0.0450016
  C        2.7508540     0.0254460     0.4069810
  C        1.3606810     0.5764810     0.3953890
  C       -3.5492030     0.3621160    -0.4101590
  C        3.6756900     0.8191552    -0.5103118
  C        0.2704120    -0.1024690    -0.0006590
  C       -2.1631840    -0.2004740    -0.4090490
  C       -1.0635270     0.4697970    -0.0176060
  C       -4.4702810    -0.3835230     0.5583970
  H        3.1361180     0.0688010     1.4404840
  H        1.2655190     1.6118880     0.7253080
  H       -3.5113520     1.4248880    -0.1442750
  H       -3.9713450     0.3050270    -1.4220020
  H        3.3060070     0.7827570    -1.5237190
  H        3.6990520     1.8899320    -0.1870900
  H        4.6948240     0.4527130    -0.4608140
  H        0.3841050    -1.1350190    -0.3229170
  H       -2.0573220    -1.2386810    -0.7303930
  H       -1.1648060     1.5075440     0.3065060
  H       -4.5255200    -1.4457790     0.3033390
  H       -5.4853170     0.0231860     0.5310900
  H       -4.0942820    -0.3029910     1.5815520
  H        3.6028580    -1.6773980    -0.0043180
units angstrom
no_reorient  #important for SAPT in psi4, default
symmetry c1  #important for SAPT in psi4, default
}

set PROPERTIES_ORIGIN ["COM"]
properties('MP2/aug-cc-pvtz', properties = ['dipole'])
--------------------------------------------------------------------------

    Molecular point group: c1
  Charge       = 0
  Multiplicity = 1
  Basis Set: AUG-CC-PVTZ
    Blend: AUG-CC-PVTZ
  Basis Set: (AUG-CC-PVTZ AUX)
    Blend: AUG-CC-PVTZ-JKFIT

    Orbital Energies [Eh]
    ---------------------

    Doubly Occupied:

       1A    -20.556130     2A    -11.286629     3A    -11.226283
       4A    -11.224151     5A    -11.223514     6A    -11.223311
       7A    -11.222309     8A    -11.219636     9A    -11.212993
      10A     -1.362363    11A     -1.098223    12A     -1.061533
      13A     -1.015946    14A     -0.962571    15A     -0.877102
      16A     -0.829043    17A     -0.752747    18A     -0.749171
      19A     -0.697231    20A     -0.637608    21A     -0.628887
      22A     -0.614138    23A     -0.590400    24A     -0.583310
      25A     -0.550581    26A     -0.542708    27A     -0.524918
      28A     -0.518736    29A     -0.501118    30A     -0.491760
      31A     -0.479352    32A     -0.468522    33A     -0.452216
      34A     -0.418588    35A     -0.297934

  @DF-RHF Final Energy:  -386.06250783988582

   => Energetics <=

    Nuclear Repulsion Energy =            418.0260941130126753
    One-Electron Energy =               -1351.9738772396774493
    Two-Electron Energy =                 547.8852752867788922
    Total Energy =                       -386.0625078398858250
  Basis Set: (AUG-CC-PVTZ AUX)
    Blend: AUG-CC-PVTZ-RI
    Molecular point group: c1

    Geometry (in Angstrom), charge = 0, multiplicity = 1:

       Center              X                  Y                   Z               Mass
    ------------   -----------------  -----------------  -----------------  -----------------
         O            2.706522058707    -1.327622386167    -0.041270300161    15.994914619570
         C            2.748406558707     0.026828713833     0.410712299839    12.000000000000
         C            1.358233558707     0.577863713833     0.399120299839    12.000000000000
         C           -3.551650441293     0.363498713833    -0.406427700161    12.000000000000
         C            3.673242558707     0.820537913833    -0.506580500161    12.000000000000
         C            0.267964558707    -0.101086286167     0.003072299839    12.000000000000
         C           -2.165631441293    -0.199091286167    -0.405317700161    12.000000000000
         C           -1.065974441293     0.471179713833    -0.013874700161    12.000000000000
         C           -4.472728441293    -0.382140286167     0.562128299839    12.000000000000
         H            3.133670558707     0.070183713833     1.444215299839     1.007825032230
         H            1.263071558707     1.613270713833     0.729039299839     1.007825032230
         H           -3.513799441293     1.426270713833    -0.140543700161     1.007825032230
         H           -3.973792441293     0.306409713833    -1.418270700161     1.007825032230
         H            3.303559558707     0.784139713833    -1.519987700161     1.007825032230
         H            3.696604558707     1.891314713833    -0.183358700161     1.007825032230
         H            4.692376558707     0.454095713833    -0.457082700161     1.007825032230
         H            0.381657558707    -1.133636286167    -0.319185700161     1.007825032230
         H           -2.059769441293    -1.237298286167    -0.726661700161     1.007825032230
         H           -1.167253441293     1.508926713833     0.310237299839     1.007825032230
         H           -4.527967441293    -1.444396286167     0.307070299839     1.007825032230
         H           -5.487764441293     0.024568713833     0.534821299839     1.007825032230
         H           -4.096729441293    -0.301608286167     1.585283299839     1.007825032230
         H            3.600410558707    -1.676015286167    -0.000586700161     1.007825032230

  Basis Set: AUG-CC-PVTZ
    Blend: AUG-CC-PVTZ
  Basis Set: (AUG-CC-PVTZ AUX)
    Blend: AUG-CC-PVTZ-JKFIT
	 Reference Energy          =    -386.0625078398858250 [Eh]
	 Singles Energy            =      -0.0000000000000000 [Eh]
	 Same-Spin Energy          =      -0.4001380121802264 [Eh]
	 Opposite-Spin Energy      =      -1.3778551398472563 [Eh]
	 Correlation Energy        =      -1.7779931520274825 [Eh]
	 Total Energy              =    -387.8405009919133022 [Eh]

	 ================> DF-SCS-MP2 Energies <==================
	-----------------------------------------------------------
	 SCS Same-Spin Scale       =       0.3333333333333333 [-]
	 SCS Opposite-Spin Scale   =       1.2000000000000000 [-]
	 SCS Same-Spin Energy      =      -0.1333793373934088 [Eh]
	 SCS Opposite-Spin Energy  =      -1.6534261678167075 [Eh]
	 SCS Correlation Energy    =      -1.7868055052101162 [Eh]
	 SCS Total Energy          =    -387.8493133450959363 [Eh]
	-----------------------------------------------------------

  Dipole Moment: [D]
     X:     1.1554      Y:     0.7055      Z:     0.3508     Total:     1.3985

*** Psi4 exiting successfully. Buy a developer a beer!
