                               Psi4 1.3.2 release

  ==> Input File <==

--------------------------------------------------------------------------
#psi4
#
memory 32 gb

molecule  {
0 1
  O        2.6932640    -1.3344870    -0.0264310
  C        2.7508540     0.0254460     0.4069810
  C        1.3606810     0.5764810     0.3953890
  C       -3.5492030     0.3621160    -0.4101590
  C        3.6709050     0.8409920    -0.4958550
  C        0.2704120    -0.1024690    -0.0006590
  C       -2.1584951    -0.1887642    -0.4056885
  C       -1.0635270     0.4697970    -0.0176060
  C       -4.4702810    -0.3835230     0.5583970
  H        3.1361180     0.0688010     1.4404840
  H        1.2655190     1.6118880     0.7253080
  H       -3.5018389     1.4243022    -0.1434597
  H       -3.9713450     0.3050270    -1.4220020
  H        3.3060070     0.7827570    -1.5237190
  H        3.6990520     1.8899320    -0.1870900
  H        4.6948240     0.4527130    -0.4608140
  H        0.3841050    -1.1350190    -0.3229170
  H       -2.0573220    -1.2386810    -0.7303930
  H       -1.1648060     1.5075440     0.3065060
  H       -4.5255200    -1.4457790     0.3033390
  H       -5.4853170     0.0231860     0.5310900
  H       -4.0942820    -0.3029910     1.5815520
  H        3.6028580    -1.6773980    -0.0043180
units angstrom
no_reorient  #important for SAPT in psi4, default
symmetry c1  #important for SAPT in psi4, default
}

set PROPERTIES_ORIGIN ["COM"]
properties('MP2/aug-cc-pvtz', properties = ['dipole'])
--------------------------------------------------------------------------

    Molecular point group: c1
  Charge       = 0
  Multiplicity = 1
  Basis Set: AUG-CC-PVTZ
    Blend: AUG-CC-PVTZ
  Basis Set: (AUG-CC-PVTZ AUX)
    Blend: AUG-CC-PVTZ-JKFIT

    Orbital Energies [Eh]
    ---------------------

    Doubly Occupied:

       1A    -20.558721     2A    -11.286535     3A    -11.225216
       4A    -11.223596     5A    -11.223252     6A    -11.222100
       7A    -11.221420     8A    -11.220600     9A    -11.213034
      10A     -1.360623    11A     -1.098834    12A     -1.061469
      13A     -1.016427    14A     -0.963486    15A     -0.876637
      16A     -0.829293    17A     -0.750356    18A     -0.748104
      19A     -0.695375    20A     -0.637208    21A     -0.628427
      22A     -0.616767    23A     -0.590043    24A     -0.583233
      25A     -0.546457    26A     -0.543181    27A     -0.526870
      28A     -0.519617    29A     -0.500939    30A     -0.492386
      31A     -0.478149    32A     -0.466937    33A     -0.453060
      34A     -0.419321    35A     -0.298976

  @DF-RHF Final Energy:  -386.06272502991669

   => Energetics <=

    Nuclear Repulsion Energy =            418.1312870237600805
    One-Electron Energy =               -1352.1947279799692296
    Two-Electron Energy =                 548.0007159262925143
    Total Energy =                       -386.0627250299166917
  Basis Set: (AUG-CC-PVTZ AUX)
    Blend: AUG-CC-PVTZ-RI
    Molecular point group: c1

    Geometry (in Angstrom), charge = 0, multiplicity = 1:

       Center              X                  Y                   Z               Mass
    ------------   -----------------  -----------------  -----------------  -----------------
         O            2.692741738685    -1.335596555520    -0.026757165065    15.994914619570
         C            2.750331738685     0.024336444480     0.406654834935    12.000000000000
         C            1.360158738685     0.575371444480     0.395062834935    12.000000000000
         C           -3.549725261315     0.361006444480    -0.410485165065    12.000000000000
         C            3.670382738685     0.839882444480    -0.496181165065    12.000000000000
         C            0.269889738685    -0.103578555520    -0.000985165065    12.000000000000
         C           -2.159017361315    -0.189873755520    -0.406014665065    12.000000000000
         C           -1.064049261315     0.468687444480    -0.017932165065    12.000000000000
         C           -4.470803261315    -0.384632555520     0.558070834935    12.000000000000
         H            3.135595738685     0.067691444480     1.440157834935     1.007825032230
         H            1.264996738685     1.610778444480     0.724981834935     1.007825032230
         H           -3.502361161315     1.423192644480    -0.143785865065     1.007825032230
         H           -3.971867261315     0.303917444480    -1.422328165065     1.007825032230
         H            3.305484738685     0.781647444480    -1.524045165065     1.007825032230
         H            3.698529738685     1.888822444480    -0.187416165065     1.007825032230
         H            4.694301738685     0.451603444480    -0.461140165065     1.007825032230
         H            0.383582738685    -1.136128555520    -0.323243165065     1.007825032230
         H           -2.057844261315    -1.239790555520    -0.730719165065     1.007825032230
         H           -1.165328261315     1.506434444480     0.306179834935     1.007825032230
         H           -4.526042261315    -1.446888555520     0.303012834935     1.007825032230
         H           -5.485839261315     0.022076444480     0.530763834935     1.007825032230
         H           -4.094804261315    -0.304100555520     1.581225834935     1.007825032230
         H            3.602335738685    -1.678507555520    -0.004644165065     1.007825032230

  Basis Set: AUG-CC-PVTZ
    Blend: AUG-CC-PVTZ
  Basis Set: (AUG-CC-PVTZ AUX)
    Blend: AUG-CC-PVTZ-JKFIT
	 Reference Energy          =    -386.0627250299166917 [Eh]
	 Singles Energy            =      -0.0000000000000000 [Eh]
	 Same-Spin Energy          =      -0.4002566392083209 [Eh]
	 Opposite-Spin Energy      =      -1.3781020235032178 [Eh]
	 Correlation Energy        =      -1.7783586627115386 [Eh]
	 Total Energy              =    -387.8410836926282172 [Eh]

	 ================> DF-SCS-MP2 Energies <==================
	-----------------------------------------------------------
	 SCS Same-Spin Scale       =       0.3333333333333333 [-]
	 SCS Opposite-Spin Scale   =       1.2000000000000000 [-]
	 SCS Same-Spin Energy      =      -0.1334188797361070 [Eh]
	 SCS Opposite-Spin Energy  =      -1.6537224282038612 [Eh]
	 SCS Correlation Energy    =      -1.7871413079399681 [Eh]
	 SCS Total Energy          =    -387.8498663378566675 [Eh]
	-----------------------------------------------------------

  Dipole Moment: [D]
     X:     1.2058      Y:     0.7312      Z:     0.3142     Total:     1.4447

*** Psi4 exiting successfully. Buy a developer a beer!
