                               Psi4 1.3.2 release

  ==> Input File <==

--------------------------------------------------------------------------
#psi4
#
memory 32 gb

molecule  {
0 1
  O        2.6932640    -1.3344870    -0.0264310
  C        2.7508540     0.0254460     0.4069810
  C        1.3606810     0.5764810     0.3953890
  C       -3.5492030     0.3621160    -0.4101590
  C        3.6709050     0.8409920    -0.4958550
  C        0.2609068    -0.1243196    -0.0092652
  C       -2.1631840    -0.2004740    -0.4090490
  C       -1.0635270     0.4697970    -0.0176060
  C       -4.4702810    -0.3835230     0.5583970
  H        3.1361180     0.0688010     1.4404840
  H        1.2655190     1.6118880     0.7253080
  H       -3.5113520     1.4248880    -0.1442750
  H       -3.9713450     0.3050270    -1.4220020
  H        3.3060070     0.7827570    -1.5237190
  H        3.6990520     1.8899320    -0.1870900
  H        4.6948240     0.4527130    -0.4608140
  H        0.3841050    -1.1350190    -0.3229170
  H       -2.0573220    -1.2386810    -0.7303930
  H       -1.1835651     1.5065381     0.3033047
  H       -4.5255200    -1.4457790     0.3033390
  H       -5.4853170     0.0231860     0.5310900
  H       -4.0942820    -0.3029910     1.5815520
  H        3.6028580    -1.6773980    -0.0043180
units angstrom
no_reorient  #important for SAPT in psi4, default
symmetry c1  #important for SAPT in psi4, default
}

set PROPERTIES_ORIGIN ["COM"]
properties('MP2/aug-cc-pvtz', properties = ['dipole'])
--------------------------------------------------------------------------

    Molecular point group: c1
  Charge       = 0
  Multiplicity = 1
  Basis Set: AUG-CC-PVTZ
    Blend: AUG-CC-PVTZ
  Basis Set: (AUG-CC-PVTZ AUX)
    Blend: AUG-CC-PVTZ-JKFIT

    Orbital Energies [Eh]
    ---------------------

    Doubly Occupied:

       1A    -20.558763     2A    -11.286215     3A    -11.225875
       4A    -11.225141     5A    -11.224116     6A    -11.223053
       7A    -11.222757     8A    -11.220434     9A    -11.212667
      10A     -1.360620    11A     -1.096951    12A     -1.059781
      13A     -1.016052    14A     -0.960646    15A     -0.876625
      16A     -0.827686    17A     -0.751871    18A     -0.750733
      19A     -0.695682    20A     -0.637681    21A     -0.626698
      22A     -0.616498    23A     -0.589733    24A     -0.582089
      25A     -0.546953    26A     -0.543521    27A     -0.526999
      28A     -0.518768    29A     -0.504776    30A     -0.492369
      31A     -0.478906    32A     -0.468682    33A     -0.452489
      34A     -0.416865    35A     -0.294224

  @DF-RHF Final Energy:  -386.06072009899134

   => Energetics <=

    Nuclear Repulsion Energy =            417.8141933127834022
    One-Electron Energy =               -1351.5639869429653572
    Two-Electron Energy =                 547.6890735311906155
    Total Energy =                       -386.0607200989913963
  Basis Set: (AUG-CC-PVTZ AUX)
    Blend: AUG-CC-PVTZ-RI
    Molecular point group: c1

    Geometry (in Angstrom), charge = 0, multiplicity = 1:

       Center              X                  Y                   Z               Mass
    ------------   -----------------  -----------------  -----------------  -----------------
         O            2.694318388891    -1.332399617275    -0.025586322859    15.994914619570
         C            2.751908388891     0.027533382725     0.407825677141    12.000000000000
         C            1.361735388891     0.578568382725     0.396233677141    12.000000000000
         C           -3.548148611109     0.364203382725    -0.409314322859    12.000000000000
         C            3.671959388891     0.843079382725    -0.495010322859    12.000000000000
         C            0.261961188891    -0.122232217275    -0.008420522859    12.000000000000
         C           -2.162129611109    -0.198386617275    -0.408204322859    12.000000000000
         C           -1.062472611109     0.471884382725    -0.016761322859    12.000000000000
         C           -4.469226611109    -0.381435617275     0.559241677141    12.000000000000
         H            3.137172388891     0.070888382725     1.441328677141     1.007825032230
         H            1.266573388891     1.613975382725     0.726152677141     1.007825032230
         H           -3.510297611109     1.426975382725    -0.143430322859     1.007825032230
         H           -3.970290611109     0.307114382725    -1.421157322859     1.007825032230
         H            3.307061388891     0.784844382725    -1.522874322859     1.007825032230
         H            3.700106388891     1.892019382725    -0.186245322859     1.007825032230
         H            4.695878388891     0.454800382725    -0.459969322859     1.007825032230
         H            0.385159388891    -1.132931617275    -0.322072322859     1.007825032230
         H           -2.056267611109    -1.236593617275    -0.729548322859     1.007825032230
         H           -1.182510711109     1.508625482725     0.304149377141     1.007825032230
         H           -4.524465611109    -1.443691617275     0.304183677141     1.007825032230
         H           -5.484262611109     0.025273382725     0.531934677141     1.007825032230
         H           -4.093227611109    -0.300903617275     1.582396677141     1.007825032230
         H            3.603912388891    -1.675310617275    -0.003473322859     1.007825032230

  Basis Set: AUG-CC-PVTZ
    Blend: AUG-CC-PVTZ
  Basis Set: (AUG-CC-PVTZ AUX)
    Blend: AUG-CC-PVTZ-JKFIT
	 Reference Energy          =    -386.0607200989913395 [Eh]
	 Singles Energy            =      -0.0000000000000000 [Eh]
	 Same-Spin Energy          =      -0.4005839775476995 [Eh]
	 Opposite-Spin Energy      =      -1.3788803415473385 [Eh]
	 Correlation Energy        =      -1.7794643190950379 [Eh]
	 Total Energy              =    -387.8401844180863804 [Eh]

	 ================> DF-SCS-MP2 Energies <==================
	-----------------------------------------------------------
	 SCS Same-Spin Scale       =       0.3333333333333333 [-]
	 SCS Opposite-Spin Scale   =       1.2000000000000000 [-]
	 SCS Same-Spin Energy      =      -0.1335279925158998 [Eh]
	 SCS Opposite-Spin Energy  =      -1.6546564098568062 [Eh]
	 SCS Correlation Energy    =      -1.7881844023727060 [Eh]
	 SCS Total Energy          =    -387.8489045013640180 [Eh]
	-----------------------------------------------------------

  Dipole Moment: [D]
     X:     1.2065      Y:     0.7285      Z:     0.3093     Total:     1.4429

*** Psi4 exiting successfully. Buy a developer a beer!
