                               Psi4 1.4a3.dev225

  ==> Input File <==

--------------------------------------------------------------------------
#psi4
#
memory 32 gb

molecule  {
0 1
  O       -2.7161510     1.3794200    -0.1343610
  C       -2.7832390     0.0721360     0.4401970
  C       -1.3979030    -0.4954620     0.4743180
  C        3.5083460    -0.4405980    -0.4123350
  C       -3.7239960    -0.8239440    -0.3625680
  C       -0.3030690     0.1219220    -0.0067100
  C        2.1282810     0.1394430    -0.4544070
  C        1.0245920    -0.4684390     0.0236420
  C        4.4606410     0.4027870     0.4416180
  H       -3.1513671     0.1399940     1.4575273
  H       -1.3112260    -1.4900120     0.9147240
  H        3.4619600    -1.4629760    -0.0187660
  H        3.9104550    -0.5133060    -1.4317100
  H       -3.3684670    -0.8811940    -1.3941910
  H       -3.7626400    -1.8335820     0.0574350
  H       -4.7426360    -0.4191700    -0.3608330
  H       -0.4078810     1.1149080    -0.4388390
  H        2.0311270     1.1370710    -0.8883280
  H        1.1170930    -1.4649260     0.4609700
  H        4.5263310     1.4251690     0.0574090
  H        5.4690900    -0.0219830     0.4454750
  H        4.1044230     0.4539160     1.4740500
  H       -3.6221830     1.7324190    -0.1413340
units angstrom
no_reorient  #important for SAPT in psi4, default
symmetry c1  #important for SAPT in psi4, default
}

set PROPERTIES_ORIGIN ["COM"]
properties('MP2/aug-cc-pvtz', properties = ['dipole'])
--------------------------------------------------------------------------

    Molecular point group: c1
  Charge       = 0
  Multiplicity = 1
  Basis Set: AUG-CC-PVTZ
    Blend: AUG-CC-PVTZ
  Basis Set: (AUG-CC-PVTZ AUX)
    Blend: AUG-CC-PVTZ-JKFIT

    Orbital Energies [Eh]
    ---------------------

    Doubly Occupied:

       1A    -20.558441     2A    -11.284502     3A    -11.226436
       4A    -11.224199     5A    -11.223701     6A    -11.223512
       7A    -11.222316     8A    -11.220724     9A    -11.213104
      10A     -1.359942    11A     -1.097041    12A     -1.060813
      13A     -1.015898    14A     -0.961994    15A     -0.876729
      16A     -0.829254    17A     -0.752893    18A     -0.747798
      19A     -0.696610    20A     -0.636750    21A     -0.627603
      22A     -0.616607    23A     -0.589654    24A     -0.582699
      25A     -0.546365    26A     -0.543548    27A     -0.527428
      28A     -0.518267    29A     -0.500675    30A     -0.492839
      31A     -0.479276    32A     -0.467824    33A     -0.453388
      34A     -0.418064    35A     -0.297329

  @DF-RHF Final Energy:  -386.06250255728088

   => Energetics <=

    Nuclear Repulsion Energy =            417.6054068472572567
    One-Electron Energy =               -1351.1473689423730775
    Two-Electron Energy =                 547.4794595378349413
    Total Energy =                       -386.0625025572809363
  Basis Set: (AUG-CC-PVTZ AUX)
    Blend: AUG-CC-PVTZ-RI
    Molecular point group: c1

    Geometry (in Angstrom), charge = 0, multiplicity = 1:

       Center              X                  Y                   Z               Mass
    ------------   -----------------  -----------------  -----------------  -----------------
         O           -2.682897616529     1.363101241399    -0.132545611619    15.994914619570
         C           -2.749985616529     0.055817241399     0.442012388381    12.000000000000
         C           -1.364649616529    -0.511780758601     0.476133388381    12.000000000000
         C            3.541599383471    -0.456916758601    -0.410519611619    12.000000000000
         C           -3.690742616529    -0.840262758601    -0.360752611619    12.000000000000
         C           -0.269815616529     0.105603241399    -0.004894611619    12.000000000000
         C            2.161534383471     0.123124241399    -0.452591611619    12.000000000000
         C            1.057845383471    -0.484757758601     0.025457388381    12.000000000000
         C            4.493894383471     0.386468241399     0.443433388381    12.000000000000
         H           -3.118113716529     0.123675241399     1.459342688381     1.007825032230
         H           -1.277972616529    -1.506330758601     0.916539388381     1.007825032230
         H            3.495213383471    -1.479294758601    -0.016950611619     1.007825032230
         H            3.943708383471    -0.529624758601    -1.429894611619     1.007825032230
         H           -3.335213616529    -0.897512758601    -1.392375611619     1.007825032230
         H           -3.729386616529    -1.849900758601     0.059250388381     1.007825032230
         H           -4.709382616529    -0.435488758601    -0.359017611619     1.007825032230
         H           -0.374627616529     1.098589241399    -0.437023611619     1.007825032230
         H            2.064380383471     1.120752241399    -0.886512611619     1.007825032230
         H            1.150346383471    -1.481244758601     0.462785388381     1.007825032230
         H            4.559584383471     1.408850241399     0.059224388381     1.007825032230
         H            5.502343383471    -0.038301758601     0.447290388381     1.007825032230
         H            4.137676383471     0.437597241399     1.475865388381     1.007825032230
         H           -3.588929616529     1.716100241399    -0.139518611619     1.007825032230

  Basis Set: AUG-CC-PVTZ
    Blend: AUG-CC-PVTZ
  Basis Set: (AUG-CC-PVTZ AUX)
    Blend: AUG-CC-PVTZ-JKFIT
	 Reference Energy          =    -386.0625025572808795 [Eh]
	 Singles Energy            =      -0.0000000000000000 [Eh]
	 Same-Spin Energy          =      -0.4002440889769593 [Eh]
	 Opposite-Spin Energy      =      -1.3782691608645092 [Eh]
	 Correlation Energy        =      -1.7785132498414686 [Eh]
	 Total Energy              =    -387.8410158071223464 [Eh]

	 ================> DF-SCS-MP2 Energies <==================
	-----------------------------------------------------------
	 SCS Same-Spin Scale       =       0.3333333333333333 [-]
	 SCS Opposite-Spin Scale   =       1.2000000000000000 [-]
	 SCS Same-Spin Energy      =      -0.1334146963256531 [Eh]
	 SCS Opposite-Spin Energy  =      -1.6539229930374111 [Eh]
	 SCS Correlation Energy    =      -1.7873376893630641 [Eh]
	 SCS Total Energy          =    -387.8498402466439643 [Eh]
	-----------------------------------------------------------

  Dipole Moment: [D]
     X:    -1.2173      Y:    -0.6887      Z:     0.4067     Total:     1.4565

*** Psi4 exiting successfully. Buy a developer a beer!
