                               Psi4 1.3.2 release

  ==> Input File <==

--------------------------------------------------------------------------
#psi4
#
memory 32 gb

molecule  {
0 1
  O        2.6932640    -1.3344870    -0.0264310
  C        2.7508540     0.0254460     0.4069810
  C        1.3606810     0.5764810     0.3953890
  C       -3.5492030     0.3621160    -0.4101590
  C        3.6709050     0.8409920    -0.4958550
  C        0.2704120    -0.1024690    -0.0006590
  C       -2.1631840    -0.2004740    -0.4090490
  C       -1.0635270     0.4697970    -0.0176060
  C       -4.4702810    -0.3835230     0.5583970
  H        3.1361180     0.0688010     1.4404840
  H        1.2655190     1.6118880     0.7253080
  H       -3.5078990     1.5218403    -0.1200195
  H       -3.9713450     0.3050270    -1.4220020
  H        3.3060070     0.7827570    -1.5237190
  H        3.6990520     1.8899320    -0.1870900
  H        4.6948240     0.4527130    -0.4608140
  H        0.3841050    -1.1350190    -0.3229170
  H       -2.0573220    -1.2386810    -0.7303930
  H       -1.1648060     1.5075440     0.3065060
  H       -4.5255200    -1.4457790     0.3033390
  H       -5.4853170     0.0231860     0.5310900
  H       -4.0942820    -0.3029910     1.5815520
  H        3.6028580    -1.6773980    -0.0043180
units angstrom
no_reorient  #important for SAPT in psi4, default
symmetry c1  #important for SAPT in psi4, default
}

set PROPERTIES_ORIGIN ["COM"]
properties('MP2/aug-cc-pvtz', properties = ['dipole'])
--------------------------------------------------------------------------

    Molecular point group: c1
  Charge       = 0
  Multiplicity = 1
  Basis Set: AUG-CC-PVTZ
    Blend: AUG-CC-PVTZ
  Basis Set: (AUG-CC-PVTZ AUX)
    Blend: AUG-CC-PVTZ-JKFIT

    Orbital Energies [Eh]
    ---------------------

    Doubly Occupied:

       1A    -20.558845     2A    -11.286650     3A    -11.235281
       4A    -11.226613     5A    -11.223905     6A    -11.223367
       7A    -11.221968     8A    -11.220682     9A    -11.213856
      10A     -1.360749    11A     -1.097344    12A     -1.060151
      13A     -1.015434    14A     -0.962678    15A     -0.876210
      16A     -0.825785    17A     -0.748271    18A     -0.748183
      19A     -0.695274    20A     -0.635107    21A     -0.628070
      22A     -0.615804    23A     -0.589052    24A     -0.581223
      25A     -0.546728    26A     -0.544044    27A     -0.527481
      28A     -0.519598    29A     -0.500869    30A     -0.492268
      31A     -0.469174    32A     -0.467136    33A     -0.453132
      34A     -0.418555    35A     -0.297836

  @DF-RHF Final Energy:  -386.05606030190268

   => Energetics <=

    Nuclear Repulsion Energy =            417.5966885867508154
    One-Electron Energy =               -1351.1308544260771214
    Two-Electron Energy =                 547.4781055374236303
    Total Energy =                       -386.0560603019026757
  Basis Set: (AUG-CC-PVTZ AUX)
    Blend: AUG-CC-PVTZ-RI
    Molecular point group: c1

    Geometry (in Angstrom), charge = 0, multiplicity = 1:

       Center              X                  Y                   Z               Mass
    ------------   -----------------  -----------------  -----------------  -----------------
         O            2.693236362887    -1.335261783383    -0.026624716307    15.994914619570
         C            2.750826362887     0.024671216617     0.406787283693    12.000000000000
         C            1.360653362887     0.575706216617     0.395195283693    12.000000000000
         C           -3.549230637113     0.361341216617    -0.410352716307    12.000000000000
         C            3.670877362887     0.840217216617    -0.496048716307    12.000000000000
         C            0.270384362887    -0.103243783383    -0.000852716307    12.000000000000
         C           -2.163211637113    -0.201248783383    -0.409242716307    12.000000000000
         C           -1.063554637113     0.469022216617    -0.017799716307    12.000000000000
         C           -4.470308637113    -0.384297783383     0.558203283693    12.000000000000
         H            3.136090362887     0.068026216617     1.440290283693     1.007825032230
         H            1.265491362887     1.611113216617     0.725114283693     1.007825032230
         H           -3.507926637113     1.521065516617    -0.120213216307     1.007825032230
         H           -3.971372637113     0.304252216617    -1.422195716307     1.007825032230
         H            3.305979362887     0.781982216617    -1.523912716307     1.007825032230
         H            3.699024362887     1.889157216617    -0.187283716307     1.007825032230
         H            4.694796362887     0.451938216617    -0.461007716307     1.007825032230
         H            0.384077362887    -1.135793783383    -0.323110716307     1.007825032230
         H           -2.057349637113    -1.239455783383    -0.730586716307     1.007825032230
         H           -1.164833637113     1.506769216617     0.306312283693     1.007825032230
         H           -4.525547637113    -1.446553783383     0.303145283693     1.007825032230
         H           -5.485344637113     0.022411216617     0.530896283693     1.007825032230
         H           -4.094309637113    -0.303765783383     1.581358283693     1.007825032230
         H            3.602830362887    -1.678172783383    -0.004511716307     1.007825032230

  Basis Set: AUG-CC-PVTZ
    Blend: AUG-CC-PVTZ
  Basis Set: (AUG-CC-PVTZ AUX)
    Blend: AUG-CC-PVTZ-JKFIT
	 Reference Energy          =    -386.0560603019026757 [Eh]
	 Singles Energy            =      -0.0000000000000000 [Eh]
	 Same-Spin Energy          =      -0.4004186707015110 [Eh]
	 Opposite-Spin Energy      =      -1.3791528737020651 [Eh]
	 Correlation Energy        =      -1.7795715444035762 [Eh]
	 Total Energy              =    -387.8356318463062280 [Eh]

	 ================> DF-SCS-MP2 Energies <==================
	-----------------------------------------------------------
	 SCS Same-Spin Scale       =       0.3333333333333333 [-]
	 SCS Opposite-Spin Scale   =       1.2000000000000000 [-]
	 SCS Same-Spin Energy      =      -0.1334728902338370 [Eh]
	 SCS Opposite-Spin Energy  =      -1.6549834484424781 [Eh]
	 SCS Correlation Energy    =      -1.7884563386763150 [Eh]
	 SCS Total Energy          =    -387.8445166405790019 [Eh]
	-----------------------------------------------------------

  Dipole Moment: [D]
     X:     1.2213      Y:     0.6521      Z:     0.3076     Total:     1.4182

*** Psi4 exiting successfully. Buy a developer a beer!
