                               Psi4 1.3.2 release

  ==> Input File <==

--------------------------------------------------------------------------
#psi4
#
memory 32 gb

molecule  {
0 1
  O        2.6932640    -1.3344870    -0.0264310
  C        2.7508540     0.0254460     0.4069810
  C        1.3581200     0.5628371     0.3183372
  C       -3.5492030     0.3621160    -0.4101590
  C        3.6709050     0.8409920    -0.4958550
  C        0.2704120    -0.1024690    -0.0006590
  C       -2.1631840    -0.2004740    -0.4090490
  C       -1.0635270     0.4697970    -0.0176060
  C       -4.4702810    -0.3835230     0.5583970
  H        3.1854733     0.0455363     1.4214458
  H        1.2655190     1.6118880     0.7253080
  H       -3.5113520     1.4248880    -0.1442750
  H       -3.9713450     0.3050270    -1.4220020
  H        3.3060070     0.7827570    -1.5237190
  H        3.6990520     1.8899320    -0.1870900
  H        4.6948240     0.4527130    -0.4608140
  H        0.3841050    -1.1350190    -0.3229170
  H       -2.0573220    -1.2386810    -0.7303930
  H       -1.1648060     1.5075440     0.3065060
  H       -4.5255200    -1.4457790     0.3033390
  H       -5.4853170     0.0231860     0.5310900
  H       -4.0942820    -0.3029910     1.5815520
  H        3.6028580    -1.6773980    -0.0043180
units angstrom
no_reorient  #important for SAPT in psi4, default
symmetry c1  #important for SAPT in psi4, default
}

set PROPERTIES_ORIGIN ["COM"]
properties('MP2/aug-cc-pvtz', properties = ['dipole'])
--------------------------------------------------------------------------

    Molecular point group: c1
  Charge       = 0
  Multiplicity = 1
  Basis Set: AUG-CC-PVTZ
    Blend: AUG-CC-PVTZ
  Basis Set: (AUG-CC-PVTZ AUX)
    Blend: AUG-CC-PVTZ-JKFIT

    Orbital Energies [Eh]
    ---------------------

    Doubly Occupied:

       1A    -20.556935     2A    -11.286590     3A    -11.226949
       4A    -11.223917     5A    -11.223702     6A    -11.222242
       7A    -11.219005     8A    -11.218854     9A    -11.213276
      10A     -1.360180    11A     -1.100343    12A     -1.062814
      13A     -1.017097    14A     -0.964992    15A     -0.875107
      16A     -0.829876    17A     -0.754046    18A     -0.742147
      19A     -0.697500    20A     -0.637566    21A     -0.631044
      22A     -0.616111    23A     -0.589848    24A     -0.582643
      25A     -0.544414    26A     -0.542184    27A     -0.525768
      28A     -0.518439    29A     -0.496240    30A     -0.494773
      31A     -0.479718    32A     -0.466975    33A     -0.451475
      34A     -0.421131    35A     -0.302448

  @DF-RHF Final Energy:  -386.05898675551566

   => Energetics <=

    Nuclear Repulsion Energy =            418.5075395480549787
    One-Electron Energy =               -1352.9403503996923064
    Two-Electron Energy =                 548.3738240961216661
    Total Energy =                       -386.0589867555156616
  Basis Set: (AUG-CC-PVTZ AUX)
    Blend: AUG-CC-PVTZ-RI
    Molecular point group: c1

    Geometry (in Angstrom), charge = 0, multiplicity = 1:

       Center              X                  Y                   Z               Mass
    ------------   -----------------  -----------------  -----------------  -----------------
         O            2.693113215091    -1.333002668278    -0.018946526054    15.994914619570
         C            2.750703215091     0.026930331722     0.414465473946    12.000000000000
         C            1.357969215091     0.564321431722     0.325821673946    12.000000000000
         C           -3.549353784909     0.363600331722    -0.402674526054    12.000000000000
         C            3.670754215091     0.842476331722    -0.488370526054    12.000000000000
         C            0.270261215091    -0.100984668278     0.006825473946    12.000000000000
         C           -2.163334784909    -0.198989668278    -0.401564526054    12.000000000000
         C           -1.063677784909     0.471281331722    -0.010121526054    12.000000000000
         C           -4.470431784909    -0.382038668278     0.565881473946    12.000000000000
         H            3.185322515091     0.047020631722     1.428930273946     1.007825032230
         H            1.265368215091     1.613372331722     0.732792473946     1.007825032230
         H           -3.511502784909     1.426372331722    -0.136790526054     1.007825032230
         H           -3.971495784909     0.306511331722    -1.414517526054     1.007825032230
         H            3.305856215091     0.784241331722    -1.516234526054     1.007825032230
         H            3.698901215091     1.891416331722    -0.179605526054     1.007825032230
         H            4.694673215091     0.454197331722    -0.453329526054     1.007825032230
         H            0.383954215091    -1.133534668278    -0.315432526054     1.007825032230
         H           -2.057472784909    -1.237196668278    -0.722908526054     1.007825032230
         H           -1.164956784909     1.509028331722     0.313990473946     1.007825032230
         H           -4.525670784909    -1.444294668278     0.310823473946     1.007825032230
         H           -5.485467784909     0.024670331722     0.538574473946     1.007825032230
         H           -4.094432784909    -0.301506668278     1.589036473946     1.007825032230
         H            3.602707215091    -1.675913668278     0.003166473946     1.007825032230

  Basis Set: AUG-CC-PVTZ
    Blend: AUG-CC-PVTZ
  Basis Set: (AUG-CC-PVTZ AUX)
    Blend: AUG-CC-PVTZ-JKFIT
	 Reference Energy          =    -386.0589867555156616 [Eh]
	 Singles Energy            =      -0.0000000000000000 [Eh]
	 Same-Spin Energy          =      -0.4002502652803838 [Eh]
	 Opposite-Spin Energy      =      -1.3781471728920049 [Eh]
	 Correlation Energy        =      -1.7783974381723886 [Eh]
	 Total Energy              =    -387.8373841936880240 [Eh]

	 ================> DF-SCS-MP2 Energies <==================
	-----------------------------------------------------------
	 SCS Same-Spin Scale       =       0.3333333333333333 [-]
	 SCS Opposite-Spin Scale   =       1.2000000000000000 [-]
	 SCS Same-Spin Energy      =      -0.1334167550934612 [Eh]
	 SCS Opposite-Spin Energy  =      -1.6537766074704059 [Eh]
	 SCS Correlation Energy    =      -1.7871933625638672 [Eh]
	 SCS Total Energy          =    -387.8461801180795305 [Eh]
	-----------------------------------------------------------

  Dipole Moment: [D]
     X:     1.1372      Y:     0.6789      Z:     0.3623     Total:     1.3731

*** Psi4 exiting successfully. Buy a developer a beer!
