                               Psi4 1.3.2 release

  ==> Input File <==

--------------------------------------------------------------------------
#psi4
#
memory 32 gb

molecule  {
0 1
  O        2.6932640    -1.3344870    -0.0264310
  C        2.7417118     0.0028059     0.3977581
  C        1.3606810     0.5764810     0.3953890
  C       -3.5492030     0.3621160    -0.4101590
  C        3.6709050     0.8409920    -0.4958550
  C        0.2839146    -0.1211121    -0.0051751
  C       -2.1631840    -0.2004740    -0.4090490
  C       -1.0635270     0.4697970    -0.0176060
  C       -4.4702810    -0.3835230     0.5583970
  H        3.1361180     0.0688010     1.4404840
  H        1.2655190     1.6118880     0.7253080
  H       -3.5113520     1.4248880    -0.1442750
  H       -3.9713450     0.3050270    -1.4220020
  H        3.3060070     0.7827570    -1.5237190
  H        3.6990520     1.8899320    -0.1870900
  H        4.6948240     0.4527130    -0.4608140
  H        0.3841050    -1.1350190    -0.3229170
  H       -2.0573220    -1.2386810    -0.7303930
  H       -1.1648060     1.5075440     0.3065060
  H       -4.5255200    -1.4457790     0.3033390
  H       -5.4853170     0.0231860     0.5310900
  H       -4.0942820    -0.3029910     1.5815520
  H        3.6028580    -1.6773980    -0.0043180
units angstrom
no_reorient  #important for SAPT in psi4, default
symmetry c1  #important for SAPT in psi4, default
}

set PROPERTIES_ORIGIN ["COM"]
properties('MP2/aug-cc-pvtz', properties = ['dipole'])
--------------------------------------------------------------------------

    Molecular point group: c1
  Charge       = 0
  Multiplicity = 1
  Basis Set: AUG-CC-PVTZ
    Blend: AUG-CC-PVTZ
  Basis Set: (AUG-CC-PVTZ AUX)
    Blend: AUG-CC-PVTZ-JKFIT

    Orbital Energies [Eh]
    ---------------------

    Doubly Occupied:

       1A    -20.561565     2A    -11.286388     3A    -11.225172
       4A    -11.223633     5A    -11.223090     6A    -11.222639
       7A    -11.221305     8A    -11.219886     9A    -11.212400
      10A     -1.370843    11A     -1.095980    12A     -1.060483
      13A     -1.012737    14A     -0.961537    15A     -0.875053
      16A     -0.827992    17A     -0.752880    18A     -0.750508
      19A     -0.697084    20A     -0.640495    21A     -0.625950
      22A     -0.618593    23A     -0.590982    24A     -0.581908
      25A     -0.547593    26A     -0.542680    27A     -0.529571
      28A     -0.519357    29A     -0.505415    30A     -0.491774
      31A     -0.478546    32A     -0.464420    33A     -0.450678
      34A     -0.414527    35A     -0.297900

  @DF-RHF Final Energy:  -386.06213678136288

   => Energetics <=

    Nuclear Repulsion Energy =            418.1489424432681972
    One-Electron Energy =               -1352.2190253929079518
    Two-Electron Energy =                 548.0079461682768169
    Total Energy =                       -386.0621367813629377
  Basis Set: (AUG-CC-PVTZ AUX)
    Blend: AUG-CC-PVTZ-RI
    Molecular point group: c1

    Geometry (in Angstrom), charge = 0, multiplicity = 1:

       Center              X                  Y                   Z               Mass
    ------------   -----------------  -----------------  -----------------  -----------------
         O            2.692849027037    -1.330558465745    -0.025123474460    15.994914619570
         C            2.741296827037     0.006734434255     0.399065625540    12.000000000000
         C            1.360266027037     0.580409534255     0.396696525540    12.000000000000
         C           -3.549617972963     0.366044534255    -0.408851474460    12.000000000000
         C            3.670490027037     0.844920534255    -0.494547474460    12.000000000000
         C            0.283499627037    -0.117183565745    -0.003867574460    12.000000000000
         C           -2.163598972963    -0.196545465745    -0.407741474460    12.000000000000
         C           -1.063941972963     0.473725534255    -0.016298474460    12.000000000000
         C           -4.470695972963    -0.379594465745     0.559704525540    12.000000000000
         H            3.135703027037     0.072729534255     1.441791525540     1.007825032230
         H            1.265104027037     1.615816534255     0.726615525540     1.007825032230
         H           -3.511766972963     1.428816534255    -0.142967474460     1.007825032230
         H           -3.971759972963     0.308955534255    -1.420694474460     1.007825032230
         H            3.305592027037     0.786685534255    -1.522411474460     1.007825032230
         H            3.698637027037     1.893860534255    -0.185782474460     1.007825032230
         H            4.694409027037     0.456641534255    -0.459506474460     1.007825032230
         H            0.383690027037    -1.131090465745    -0.321609474460     1.007825032230
         H           -2.057736972963    -1.234752465745    -0.729085474460     1.007825032230
         H           -1.165220972963     1.511472534255     0.307813525540     1.007825032230
         H           -4.525934972963    -1.441850465745     0.304646525540     1.007825032230
         H           -5.485731972963     0.027114534255     0.532397525540     1.007825032230
         H           -4.094696972963    -0.299062465745     1.582859525540     1.007825032230
         H            3.602443027037    -1.673469465745    -0.003010474460     1.007825032230

  Basis Set: AUG-CC-PVTZ
    Blend: AUG-CC-PVTZ
  Basis Set: (AUG-CC-PVTZ AUX)
    Blend: AUG-CC-PVTZ-JKFIT
	 Reference Energy          =    -386.0621367813628808 [Eh]
	 Singles Energy            =      -0.0000000000000000 [Eh]
	 Same-Spin Energy          =      -0.4000624022866126 [Eh]
	 Opposite-Spin Energy      =      -1.3776915708044364 [Eh]
	 Correlation Energy        =      -1.7777539730910490 [Eh]
	 Total Energy              =    -387.8398907544539043 [Eh]

	 ================> DF-SCS-MP2 Energies <==================
	-----------------------------------------------------------
	 SCS Same-Spin Scale       =       0.3333333333333333 [-]
	 SCS Opposite-Spin Scale   =       1.2000000000000000 [-]
	 SCS Same-Spin Energy      =      -0.1333541340955375 [Eh]
	 SCS Opposite-Spin Energy  =      -1.6532298849653235 [Eh]
	 SCS Correlation Energy    =      -1.7865840190608611 [Eh]
	 SCS Total Energy          =    -387.8487208004237345 [Eh]
	-----------------------------------------------------------

  Dipole Moment: [D]
     X:     1.2266      Y:     0.6490      Z:     0.2971     Total:     1.4191

*** Psi4 exiting successfully. Buy a developer a beer!
