                               Psi4 1.3.2 release

  ==> Input File <==

--------------------------------------------------------------------------
#psi4
#
memory 32 gb

molecule  {
0 1
  O        2.6932640    -1.3344870    -0.0264310
  C        2.7508540     0.0254460     0.4069810
  C        1.3606810     0.5764810     0.3953890
  C       -3.5492030     0.3621160    -0.4101590
  C        3.6709050     0.8409920    -0.4958550
  C        0.2704120    -0.1024690    -0.0006590
  C       -2.1565921    -0.2099708    -0.4111296
  C       -1.0635270     0.4697970    -0.0176060
  C       -4.4702810    -0.3835230     0.5583970
  H        3.1361180     0.0688010     1.4404840
  H        1.2655190     1.6118880     0.7253080
  H       -3.5113520     1.4248880    -0.1442750
  H       -3.9713450     0.3050270    -1.4220020
  H        3.3060070     0.7827570    -1.5237190
  H        3.6990520     1.8899320    -0.1870900
  H        4.6948240     0.4527130    -0.4608140
  H        0.3841050    -1.1350190    -0.3229170
  H       -2.0573220    -1.2386810    -0.7303930
  H       -1.1554187     1.5079197     0.3080963
  H       -4.5255200    -1.4457790     0.3033390
  H       -5.4853170     0.0231860     0.5310900
  H       -4.0942820    -0.3029910     1.5815520
  H        3.6028580    -1.6773980    -0.0043180
units angstrom
no_reorient  #important for SAPT in psi4, default
symmetry c1  #important for SAPT in psi4, default
}

set PROPERTIES_ORIGIN ["COM"]
properties('MP2/aug-cc-pvtz', properties = ['dipole'])
--------------------------------------------------------------------------

    Molecular point group: c1
  Charge       = 0
  Multiplicity = 1
  Basis Set: AUG-CC-PVTZ
    Blend: AUG-CC-PVTZ
  Basis Set: (AUG-CC-PVTZ AUX)
    Blend: AUG-CC-PVTZ-JKFIT

    Orbital Energies [Eh]
    ---------------------

    Doubly Occupied:

       1A    -20.558614     2A    -11.286361     3A    -11.225699
       4A    -11.223619     5A    -11.223391     6A    -11.222933
       7A    -11.221433     8A    -11.220471     9A    -11.212551
      10A     -1.360506    11A     -1.097454    12A     -1.060472
      13A     -1.015902    14A     -0.962376    15A     -0.875998
      16A     -0.827858    17A     -0.754192    18A     -0.747916
      19A     -0.695148    20A     -0.637564    21A     -0.627324
      22A     -0.616664    23A     -0.589634    24A     -0.582346
      25A     -0.546757    26A     -0.544361    27A     -0.528312
      28A     -0.517780    29A     -0.500226    30A     -0.492131
      31A     -0.480224    32A     -0.466485    33A     -0.452882
      34A     -0.418419    35A     -0.297506

  @DF-RHF Final Energy:  -386.06258559040936

   => Energetics <=

    Nuclear Repulsion Energy =            417.9519031283397226
    One-Electron Energy =               -1351.8459600157079876
    Two-Electron Energy =                 547.8314712969589664
    Total Energy =                       -386.0625855904092987
  Basis Set: (AUG-CC-PVTZ AUX)
    Blend: AUG-CC-PVTZ-RI
    Molecular point group: c1

    Geometry (in Angstrom), charge = 0, multiplicity = 1:

       Center              X                  Y                   Z               Mass
    ------------   -----------------  -----------------  -----------------  -----------------
         O            2.692561656119    -1.333586236725    -0.026245588131    15.994914619570
         C            2.750151656119     0.026346763275     0.407166411869    12.000000000000
         C            1.359978656119     0.577381763275     0.395574411869    12.000000000000
         C           -3.549905343881     0.363016763275    -0.409973588131    12.000000000000
         C            3.670202656119     0.841892763275    -0.495669588131    12.000000000000
         C            0.269709656119    -0.101568236725    -0.000473588131    12.000000000000
         C           -2.157294443881    -0.209070036725    -0.410944188131    12.000000000000
         C           -1.064229343881     0.470697763275    -0.017420588131    12.000000000000
         C           -4.470983343881    -0.382622236725     0.558582411869    12.000000000000
         H            3.135415656119     0.069701763275     1.440669411869     1.007825032230
         H            1.264816656119     1.612788763275     0.725493411869     1.007825032230
         H           -3.512054343881     1.425788763275    -0.144089588131     1.007825032230
         H           -3.972047343881     0.305927763275    -1.421816588131     1.007825032230
         H            3.305304656119     0.783657763275    -1.523533588131     1.007825032230
         H            3.698349656119     1.890832763275    -0.186904588131     1.007825032230
         H            4.694121656119     0.453613763275    -0.460628588131     1.007825032230
         H            0.383402656119    -1.134118236725    -0.322731588131     1.007825032230
         H           -2.058024343881    -1.237780236725    -0.730207588131     1.007825032230
         H           -1.156121043881     1.508820463275     0.308281711869     1.007825032230
         H           -4.526222343881    -1.444878236725     0.303524411869     1.007825032230
         H           -5.486019343881     0.024086763275     0.531275411869     1.007825032230
         H           -4.094984343881    -0.302090236725     1.581737411869     1.007825032230
         H            3.602155656119    -1.676497236725    -0.004132588131     1.007825032230

  Basis Set: AUG-CC-PVTZ
    Blend: AUG-CC-PVTZ
  Basis Set: (AUG-CC-PVTZ AUX)
    Blend: AUG-CC-PVTZ-JKFIT
	 Reference Energy          =    -386.0625855904093555 [Eh]
	 Singles Energy            =      -0.0000000000000000 [Eh]
	 Same-Spin Energy          =      -0.4002432961921716 [Eh]
	 Opposite-Spin Energy      =      -1.3782286363052783 [Eh]
	 Correlation Energy        =      -1.7784719324974498 [Eh]
	 Total Energy              =    -387.8410575229067945 [Eh]

	 ================> DF-SCS-MP2 Energies <==================
	-----------------------------------------------------------
	 SCS Same-Spin Scale       =       0.3333333333333333 [-]
	 SCS Opposite-Spin Scale   =       1.2000000000000000 [-]
	 SCS Same-Spin Energy      =      -0.1334144320640572 [Eh]
	 SCS Opposite-Spin Energy  =      -1.6538743635663338 [Eh]
	 SCS Correlation Energy    =      -1.7872887956303909 [Eh]
	 SCS Total Energy          =    -387.8498743860397440 [Eh]
	-----------------------------------------------------------

  Dipole Moment: [D]
     X:     1.2117      Y:     0.7248      Z:     0.3079     Total:     1.4451

*** Psi4 exiting successfully. Buy a developer a beer!
