                               Psi4 1.3.2 release

  ==> Input File <==

--------------------------------------------------------------------------
#psi4
#
memory 32 gb

molecule  {
0 1
  O        2.6932640    -1.3344870    -0.0264310
  C        2.7508540     0.0254460     0.4069810
  C        1.3606810     0.5764810     0.3953890
  C       -3.5492030     0.3621160    -0.4101590
  C        3.7009201     0.8524065    -0.4533867
  C        0.2704120    -0.1024690    -0.0006590
  C       -2.1631840    -0.2004740    -0.4090490
  C       -1.0635270     0.4697970    -0.0176060
  C       -4.4702810    -0.3835230     0.5583970
  H        3.1650156     0.0910508     1.4280602
  H        1.2655190     1.6118880     0.7253080
  H       -3.5113520     1.4248880    -0.1442750
  H       -3.9713450     0.3050270    -1.4220020
  H        3.3060070     0.7827570    -1.5237190
  H        3.6990520     1.8899320    -0.1870900
  H        4.6948240     0.4527130    -0.4608140
  H        0.3841050    -1.1350190    -0.3229170
  H       -2.0573220    -1.2386810    -0.7303930
  H       -1.1648060     1.5075440     0.3065060
  H       -4.5255200    -1.4457790     0.3033390
  H       -5.4853170     0.0231860     0.5310900
  H       -4.0942820    -0.3029910     1.5815520
  H        3.6028580    -1.6773980    -0.0043180
units angstrom
no_reorient  #important for SAPT in psi4, default
symmetry c1  #important for SAPT in psi4, default
}

set PROPERTIES_ORIGIN ["COM"]
properties('MP2/aug-cc-pvtz', properties = ['dipole'])
--------------------------------------------------------------------------

    Molecular point group: c1
  Charge       = 0
  Multiplicity = 1
  Basis Set: AUG-CC-PVTZ
    Blend: AUG-CC-PVTZ
  Basis Set: (AUG-CC-PVTZ AUX)
    Blend: AUG-CC-PVTZ-JKFIT

    Orbital Energies [Eh]
    ---------------------

    Doubly Occupied:

       1A    -20.560219     2A    -11.286849     3A    -11.226214
       4A    -11.224148     5A    -11.223459     6A    -11.223258
       7A    -11.222313     8A    -11.220340     9A    -11.212920
      10A     -1.361139    11A     -1.098044    12A     -1.061463
      13A     -1.016847    14A     -0.963195    15A     -0.876527
      16A     -0.828325    17A     -0.752622    18A     -0.748400
      19A     -0.695555    20A     -0.638952    21A     -0.628410
      22A     -0.617731    23A     -0.592493    24A     -0.583140
      25A     -0.551442    26A     -0.534992    27A     -0.527696
      28A     -0.517717    29A     -0.501089    30A     -0.493358
      31A     -0.479461    32A     -0.469327    33A     -0.450367
      34A     -0.417610    35A     -0.297661

  @DF-RHF Final Energy:  -386.05907755345095

   => Energetics <=

    Nuclear Repulsion Energy =            417.7752205304198014
    One-Electron Energy =               -1351.4620348119110531
    Two-Electron Energy =                 547.6277367280403041
    Total Energy =                       -386.0590775534509476
  Basis Set: (AUG-CC-PVTZ AUX)
    Blend: AUG-CC-PVTZ-RI
    Molecular point group: c1

    Geometry (in Angstrom), charge = 0, multiplicity = 1:

       Center              X                  Y                   Z               Mass
    ------------   -----------------  -----------------  -----------------  -----------------
         O            2.690176797117    -1.335750956788    -0.030372825330    15.994914619570
         C            2.747766797117     0.024182043212     0.403039174670    12.000000000000
         C            1.357593797117     0.575217043212     0.391447174670    12.000000000000
         C           -3.552290202883     0.360852043212    -0.414100825330    12.000000000000
         C            3.697832897117     0.851142543212    -0.457328525330    12.000000000000
         C            0.267324797117    -0.103732956788    -0.004600825330    12.000000000000
         C           -2.166271202883    -0.201737956788    -0.412990825330    12.000000000000
         C           -1.066614202883     0.468533043212    -0.021547825330    12.000000000000
         C           -4.473368202883    -0.384786956788     0.554455174670    12.000000000000
         H            3.161928397117     0.089786843212     1.424118374670     1.007825032230
         H            1.262431797117     1.610624043212     0.721366174670     1.007825032230
         H           -3.514439202883     1.423624043212    -0.148216825330     1.007825032230
         H           -3.974432202883     0.303763043212    -1.425943825330     1.007825032230
         H            3.302919797117     0.781493043212    -1.527660825330     1.007825032230
         H            3.695964797117     1.888668043212    -0.191031825330     1.007825032230
         H            4.691736797117     0.451449043212    -0.464755825330     1.007825032230
         H            0.381017797117    -1.136282956788    -0.326858825330     1.007825032230
         H           -2.060409202883    -1.239944956788    -0.734334825330     1.007825032230
         H           -1.167893202883     1.506280043212     0.302564174670     1.007825032230
         H           -4.528607202883    -1.447042956788     0.299397174670     1.007825032230
         H           -5.488404202883     0.021922043212     0.527148174670     1.007825032230
         H           -4.097369202883    -0.304254956788     1.577610174670     1.007825032230
         H            3.599770797117    -1.678661956788    -0.008259825330     1.007825032230

  Basis Set: AUG-CC-PVTZ
    Blend: AUG-CC-PVTZ
  Basis Set: (AUG-CC-PVTZ AUX)
    Blend: AUG-CC-PVTZ-JKFIT
	 Reference Energy          =    -386.0590775534509476 [Eh]
	 Singles Energy            =      -0.0000000000000000 [Eh]
	 Same-Spin Energy          =      -0.4004474922863445 [Eh]
	 Opposite-Spin Energy      =      -1.3785102426117799 [Eh]
	 Correlation Energy        =      -1.7789577348981243 [Eh]
	 Total Energy              =    -387.8380352883490900 [Eh]

	 ================> DF-SCS-MP2 Energies <==================
	-----------------------------------------------------------
	 SCS Same-Spin Scale       =       0.3333333333333333 [-]
	 SCS Opposite-Spin Scale   =       1.2000000000000000 [-]
	 SCS Same-Spin Energy      =      -0.1334824974287815 [Eh]
	 SCS Opposite-Spin Energy  =      -1.6542122911341359 [Eh]
	 SCS Correlation Energy    =      -1.7876947885629173 [Eh]
	 SCS Total Energy          =    -387.8467723420138782 [Eh]
	-----------------------------------------------------------

  Dipole Moment: [D]
     X:     1.2034      Y:     0.7194      Z:     0.3246     Total:     1.4391

*** Psi4 exiting successfully. Buy a developer a beer!
