                               Psi4 1.3.2 release

  ==> Input File <==

--------------------------------------------------------------------------
#psi4
#
memory 32 gb

molecule  {
0 1
  O        2.6932640    -1.3344870    -0.0264310
  C        2.7508540     0.0254460     0.4069810
  C        1.3606810     0.5764810     0.3953890
  C       -3.5492030     0.3621160    -0.4101590
  C        3.6709050     0.8409920    -0.4958550
  C        0.2704120    -0.1024690    -0.0006590
  C       -2.1631840    -0.2004740    -0.4090490
  C       -1.0635270     0.4697970    -0.0176060
  C       -4.4702810    -0.3835230     0.5583970
  H        3.1361180     0.0688010     1.4404840
  H        1.2567954     1.7068048     0.7555520
  H       -3.5113520     1.4248880    -0.1442750
  H       -3.9713450     0.3050270    -1.4220020
  H        3.3060070     0.7827570    -1.5237190
  H        3.6990520     1.8899320    -0.1870900
  H        4.6948240     0.4527130    -0.4608140
  H        0.3841050    -1.1350190    -0.3229170
  H       -2.0573220    -1.2386810    -0.7303930
  H       -1.1648060     1.5075440     0.3065060
  H       -4.5255200    -1.4457790     0.3033390
  H       -5.4853170     0.0231860     0.5310900
  H       -4.0942820    -0.3029910     1.5815520
  H        3.6028580    -1.6773980    -0.0043180
units angstrom
no_reorient  #important for SAPT in psi4, default
symmetry c1  #important for SAPT in psi4, default
}

set PROPERTIES_ORIGIN ["COM"]
properties('MP2/aug-cc-pvtz', properties = ['dipole'])
--------------------------------------------------------------------------

    Molecular point group: c1
  Charge       = 0
  Multiplicity = 1
  Basis Set: AUG-CC-PVTZ
    Blend: AUG-CC-PVTZ
  Basis Set: (AUG-CC-PVTZ AUX)
    Blend: AUG-CC-PVTZ-JKFIT

    Orbital Energies [Eh]
    ---------------------

    Doubly Occupied:

       1A    -20.559605     2A    -11.287770     3A    -11.234285
       4A    -11.226058     5A    -11.223970     6A    -11.223320
       7A    -11.222995     8A    -11.220540     9A    -11.212858
      10A     -1.361528    11A     -1.097321    12A     -1.060152
      13A     -1.016404    14A     -0.961683    15A     -0.876373
      16A     -0.828898    17A     -0.752425    18A     -0.737038
      19A     -0.695578    20A     -0.637776    21A     -0.627092
      22A     -0.617139    23A     -0.588998    24A     -0.579847
      25A     -0.545749    26A     -0.540307    27A     -0.526751
      28A     -0.517774    29A     -0.496563    30A     -0.492955
      31A     -0.479101    32A     -0.467253    33A     -0.453672
      34A     -0.418771    35A     -0.298071

  @DF-RHF Final Energy:  -386.05547837784957

   => Energetics <=

    Nuclear Repulsion Energy =            417.5407178275118554
    One-Electron Energy =               -1351.0191485493119217
    Two-Electron Energy =                 547.4229523439505556
    Total Energy =                       -386.0554783778495676
  Basis Set: (AUG-CC-PVTZ AUX)
    Blend: AUG-CC-PVTZ-RI
    Molecular point group: c1

    Geometry (in Angstrom), charge = 0, multiplicity = 1:

       Center              X                  Y                   Z               Mass
    ------------   -----------------  -----------------  -----------------  -----------------
         O            2.693333678096    -1.335245515697    -0.026672576311    15.994914619570
         C            2.750923678096     0.024687484303     0.406739423689    12.000000000000
         C            1.360750678096     0.575722484303     0.395147423689    12.000000000000
         C           -3.549133321904     0.361357484303    -0.410400576311    12.000000000000
         C            3.670974678096     0.840233484303    -0.496096576311    12.000000000000
         C            0.270481678096    -0.103227515697    -0.000900576311    12.000000000000
         C           -2.163114321904    -0.201232515697    -0.409290576311    12.000000000000
         C           -1.063457321904     0.469038484303    -0.017847576311    12.000000000000
         C           -4.470211321904    -0.384281515697     0.558155423689    12.000000000000
         H            3.136187678096     0.068042484303     1.440242423689     1.007825032230
         H            1.256865078096     1.706046284303     0.755310423689     1.007825032230
         H           -3.511282321904     1.424129484303    -0.144516576311     1.007825032230
         H           -3.971275321904     0.304268484303    -1.422243576311     1.007825032230
         H            3.306076678096     0.781998484303    -1.523960576311     1.007825032230
         H            3.699121678096     1.889173484303    -0.187331576311     1.007825032230
         H            4.694893678096     0.451954484303    -0.461055576311     1.007825032230
         H            0.384174678096    -1.135777515697    -0.323158576311     1.007825032230
         H           -2.057252321904    -1.239439515697    -0.730634576311     1.007825032230
         H           -1.164736321904     1.506785484303     0.306264423689     1.007825032230
         H           -4.525450321904    -1.446537515697     0.303097423689     1.007825032230
         H           -5.485247321904     0.022427484303     0.530848423689     1.007825032230
         H           -4.094212321904    -0.303749515697     1.581310423689     1.007825032230
         H            3.602927678096    -1.678156515697    -0.004559576311     1.007825032230

  Basis Set: AUG-CC-PVTZ
    Blend: AUG-CC-PVTZ
  Basis Set: (AUG-CC-PVTZ AUX)
    Blend: AUG-CC-PVTZ-JKFIT
	 Reference Energy          =    -386.0554783778495676 [Eh]
	 Singles Energy            =      -0.0000000000000000 [Eh]
	 Same-Spin Energy          =      -0.4005648808704901 [Eh]
	 Opposite-Spin Energy      =      -1.3792268883977084 [Eh]
	 Correlation Energy        =      -1.7797917692681984 [Eh]
	 Total Energy              =    -387.8352701471177397 [Eh]

	 ================> DF-SCS-MP2 Energies <==================
	-----------------------------------------------------------
	 SCS Same-Spin Scale       =       0.3333333333333333 [-]
	 SCS Opposite-Spin Scale   =       1.2000000000000000 [-]
	 SCS Same-Spin Energy      =      -0.1335216269568300 [Eh]
	 SCS Opposite-Spin Energy  =      -1.6550722660772499 [Eh]
	 SCS Correlation Energy    =      -1.7885938930340799 [Eh]
	 SCS Total Energy          =    -387.8440722708836574 [Eh]
	-----------------------------------------------------------

  Dipole Moment: [D]
     X:     1.2128      Y:     0.6805      Z:     0.2932     Total:     1.4212

*** Psi4 exiting successfully. Buy a developer a beer!
