                               Psi4 1.4a3.dev225

  ==> Input File <==

--------------------------------------------------------------------------
#psi4
#
memory 32 gb

molecule  {
0 1
  O       -2.7161510     1.3794200    -0.1343610
  C       -2.7832390     0.0721360     0.4401970
  C       -1.3979030    -0.4954620     0.4743180
  C        3.5083460    -0.4405980    -0.4123350
  C       -3.7239960    -0.8239440    -0.3625680
  C       -0.3030690     0.1219220    -0.0067100
  C        2.1282810     0.1394430    -0.4544070
  C        1.0245920    -0.4684390     0.0236420
  C        4.4606410     0.4027870     0.4416180
  H       -3.1581590     0.1412460     1.4762970
  H       -1.3112260    -1.4900120     0.9147240
  H        3.4611139    -1.4816241    -0.0115873
  H        3.9104550    -0.5133060    -1.4317100
  H       -3.3684670    -0.8811940    -1.3941910
  H       -3.7626400    -1.8335820     0.0574350
  H       -4.7426360    -0.4191700    -0.3608330
  H       -0.4078810     1.1149080    -0.4388390
  H        2.0311270     1.1370710    -0.8883280
  H        1.1170930    -1.4649260     0.4609700
  H        4.5263310     1.4251690     0.0574090
  H        5.4690900    -0.0219830     0.4454750
  H        4.1044230     0.4539160     1.4740500
  H       -3.6221830     1.7324190    -0.1413340
units angstrom
no_reorient  #important for SAPT in psi4, default
symmetry c1  #important for SAPT in psi4, default
}

set PROPERTIES_ORIGIN ["COM"]
properties('MP2/aug-cc-pvtz', properties = ['dipole'])
--------------------------------------------------------------------------

    Molecular point group: c1
  Charge       = 0
  Multiplicity = 1
  Basis Set: AUG-CC-PVTZ
    Blend: AUG-CC-PVTZ
  Basis Set: (AUG-CC-PVTZ AUX)
    Blend: AUG-CC-PVTZ-JKFIT

    Orbital Energies [Eh]
    ---------------------

    Doubly Occupied:

       1A    -20.558843     2A    -11.287065     3A    -11.226798
       4A    -11.226021     5A    -11.224357     6A    -11.223744
       7A    -11.222501     8A    -11.220966     9A    -11.213335
      10A     -1.360167    11A     -1.096943    12A     -1.060334
      13A     -1.015436    14A     -0.962092    15A     -0.876259
      16A     -0.827747    17A     -0.751470    18A     -0.747892
      19A     -0.694836    20A     -0.636325    21A     -0.627365
      22A     -0.616318    23A     -0.589466    24A     -0.582526
      25A     -0.546450    26A     -0.543674    27A     -0.527430
      28A     -0.518431    29A     -0.500757    30A     -0.492370
      31A     -0.477250    32A     -0.467936    33A     -0.452873
      34A     -0.417938    35A     -0.297398

  @DF-RHF Final Energy:  -386.06181174249576

   => Energetics <=

    Nuclear Repulsion Energy =            417.4172925906190699
    One-Electron Energy =               -1350.7755782168267160
    Two-Electron Energy =                 547.2964738837118830
    Total Energy =                       -386.0618117424957063
  Basis Set: (AUG-CC-PVTZ AUX)
    Blend: AUG-CC-PVTZ-RI
    Molecular point group: c1

    Geometry (in Angstrom), charge = 0, multiplicity = 1:

       Center              X                  Y                   Z               Mass
    ------------   -----------------  -----------------  -----------------  -----------------
         O           -2.682836573746     1.363240270775    -0.132752990851    15.994914619570
         C           -2.749924573746     0.055956270775     0.441805009149    12.000000000000
         C           -1.364588573746    -0.511641729225     0.475926009149    12.000000000000
         C            3.541660426254    -0.456777729225    -0.410726990851    12.000000000000
         C           -3.690681573746    -0.840123729225    -0.360959990851    12.000000000000
         C           -0.269754573746     0.105742270775    -0.005101990851    12.000000000000
         C            2.161595426254     0.123263270775    -0.452798990851    12.000000000000
         C            1.057906426254    -0.484618729225     0.025250009149    12.000000000000
         C            4.493955426254     0.386607270775     0.443226009149    12.000000000000
         H           -3.124844573746     0.125066270775     1.477905009149     1.007825032230
         H           -1.277911573746    -1.506191729225     0.916332009149     1.007825032230
         H            3.494428326254    -1.497803829225    -0.009979290851     1.007825032230
         H            3.943769426254    -0.529485729225    -1.430101990851     1.007825032230
         H           -3.335152573746    -0.897373729225    -1.392582990851     1.007825032230
         H           -3.729325573746    -1.849761729225     0.059043009149     1.007825032230
         H           -4.709321573746    -0.435349729225    -0.359224990851     1.007825032230
         H           -0.374566573746     1.098728270775    -0.437230990851     1.007825032230
         H            2.064441426254     1.120891270775    -0.886719990851     1.007825032230
         H            1.150407426254    -1.481105729225     0.462578009149     1.007825032230
         H            4.559645426254     1.408989270775     0.059017009149     1.007825032230
         H            5.502404426254    -0.038162729225     0.447083009149     1.007825032230
         H            4.137737426254     0.437736270775     1.475658009149     1.007825032230
         H           -3.588868573746     1.716239270775    -0.139725990851     1.007825032230

  Basis Set: AUG-CC-PVTZ
    Blend: AUG-CC-PVTZ
  Basis Set: (AUG-CC-PVTZ AUX)
    Blend: AUG-CC-PVTZ-JKFIT
	 Reference Energy          =    -386.0618117424957632 [Eh]
	 Singles Energy            =      -0.0000000000000000 [Eh]
	 Same-Spin Energy          =      -0.4002833593619111 [Eh]
	 Opposite-Spin Energy      =      -1.3785639834363714 [Eh]
	 Correlation Energy        =      -1.7788473427982825 [Eh]
	 Total Energy              =    -387.8406590852940212 [Eh]

	 ================> DF-SCS-MP2 Energies <==================
	-----------------------------------------------------------
	 SCS Same-Spin Scale       =       0.3333333333333333 [-]
	 SCS Opposite-Spin Scale   =       1.2000000000000000 [-]
	 SCS Same-Spin Energy      =      -0.1334277864539704 [Eh]
	 SCS Opposite-Spin Energy  =      -1.6542767801236458 [Eh]
	 SCS Correlation Energy    =      -1.7877045665776161 [Eh]
	 SCS Total Energy          =    -387.8495163090733513 [Eh]
	-----------------------------------------------------------

  Dipole Moment: [D]
     X:    -1.2115      Y:    -0.6720      Z:     0.3892     Total:     1.4391

*** Psi4 exiting successfully. Buy a developer a beer!
