                               Psi4 1.3.2 release

  ==> Input File <==

--------------------------------------------------------------------------
#psi4
#
memory 32 gb

molecule  {
0 1
  O        2.6932640    -1.3344870    -0.0264310
  C        2.7548855     0.1206468     0.4373216
  C        1.3606810     0.5764810     0.3953890
  C       -3.5492030     0.3621160    -0.4101590
  C        3.6709050     0.8409920    -0.4958550
  C        0.2704120    -0.1024690    -0.0006590
  C       -2.1631840    -0.2004740    -0.4090490
  C       -1.0635270     0.4697970    -0.0176060
  C       -4.4702810    -0.3835230     0.5583970
  H        3.1361180     0.0688010     1.4404840
  H        1.2655190     1.6118880     0.7253080
  H       -3.5113520     1.4248880    -0.1442750
  H       -3.9713450     0.3050270    -1.4220020
  H        3.3060070     0.7827570    -1.5237190
  H        3.6990520     1.8899320    -0.1870900
  H        4.6948240     0.4527130    -0.4608140
  H        0.3841050    -1.1350190    -0.3229170
  H       -2.0573220    -1.2386810    -0.7303930
  H       -1.1648060     1.5075440     0.3065060
  H       -4.5255200    -1.4457790     0.3033390
  H       -5.4853170     0.0231860     0.5310900
  H       -4.0942820    -0.3029910     1.5815520
  H        3.6028580    -1.6773980    -0.0043180
units angstrom
no_reorient  #important for SAPT in psi4, default
symmetry c1  #important for SAPT in psi4, default
}

set PROPERTIES_ORIGIN ["COM"]
properties('MP2/aug-cc-pvtz', properties = ['dipole'])
--------------------------------------------------------------------------

    Molecular point group: c1
  Charge       = 0
  Multiplicity = 1
  Basis Set: AUG-CC-PVTZ
    Blend: AUG-CC-PVTZ
  Basis Set: (AUG-CC-PVTZ AUX)
    Blend: AUG-CC-PVTZ-JKFIT

    Orbital Energies [Eh]
    ---------------------

    Doubly Occupied:

       1A    -20.545236     2A    -11.287345     3A    -11.227843
       4A    -11.226740     5A    -11.224530     6A    -11.224278
       7A    -11.223062     8A    -11.223012     9A    -11.213636
      10A     -1.323464    11A     -1.100457    12A     -1.067558
      13A     -1.022852    14A     -0.965866    15A     -0.880594
      16A     -0.830639    17A     -0.754020    18A     -0.745407
      19A     -0.685701    20A     -0.634695    21A     -0.628514
      22A     -0.608285    23A     -0.590513    24A     -0.579531
      25A     -0.552241    26A     -0.544880    27A     -0.521175
      28A     -0.519643    29A     -0.501138    30A     -0.483373
      31A     -0.480827    32A     -0.472003    33A     -0.452902
      34A     -0.421989    35A     -0.300104

  @DF-RHF Final Energy:  -386.05216413247285

   => Energetics <=

    Nuclear Repulsion Energy =            417.3832659215088370
    One-Electron Energy =               -1350.7427534283272053
    Two-Electron Energy =                 547.3073233743455148
    Total Energy =                       -386.0521641324728535
  Basis Set: (AUG-CC-PVTZ AUX)
    Blend: AUG-CC-PVTZ-RI
    Molecular point group: c1

    Geometry (in Angstrom), charge = 0, multiplicity = 1:

       Center              X                  Y                   Z               Mass
    ------------   -----------------  -----------------  -----------------  -----------------
         O            2.692880324898    -1.343546173984    -0.029318053928    15.994914619570
         C            2.754501824898     0.111587626016     0.434434546072    12.000000000000
         C            1.360297324898     0.567421826016     0.392501946072    12.000000000000
         C           -3.549586675102     0.353056826016    -0.413046053928    12.000000000000
         C            3.670521324898     0.831932826016    -0.498742053928    12.000000000000
         C            0.270028324898    -0.111528173984    -0.003546053928    12.000000000000
         C           -2.163567675102    -0.209533173984    -0.411936053928    12.000000000000
         C           -1.063910675102     0.460737826016    -0.020493053928    12.000000000000
         C           -4.470664675102    -0.392582173984     0.555509946072    12.000000000000
         H            3.135734324898     0.059741826016     1.437596946072     1.007825032230
         H            1.265135324898     1.602828826016     0.722420946072     1.007825032230
         H           -3.511735675102     1.415828826016    -0.147162053928     1.007825032230
         H           -3.971728675102     0.295967826016    -1.424889053928     1.007825032230
         H            3.305623324898     0.773697826016    -1.526606053928     1.007825032230
         H            3.698668324898     1.880872826016    -0.189977053928     1.007825032230
         H            4.694440324898     0.443653826016    -0.463701053928     1.007825032230
         H            0.383721324898    -1.144078173984    -0.325804053928     1.007825032230
         H           -2.057705675102    -1.247740173984    -0.733280053928     1.007825032230
         H           -1.165189675102     1.498484826016     0.303618946072     1.007825032230
         H           -4.525903675102    -1.454838173984     0.300451946072     1.007825032230
         H           -5.485700675102     0.014126826016     0.528202946072     1.007825032230
         H           -4.094665675102    -0.312050173984     1.578664946072     1.007825032230
         H            3.602474324898    -1.686457173984    -0.007205053928     1.007825032230

  Basis Set: AUG-CC-PVTZ
    Blend: AUG-CC-PVTZ
  Basis Set: (AUG-CC-PVTZ AUX)
    Blend: AUG-CC-PVTZ-JKFIT
	 Reference Energy          =    -386.0521641324728535 [Eh]
	 Singles Energy            =      -0.0000000000000000 [Eh]
	 Same-Spin Energy          =      -0.4010028137588381 [Eh]
	 Opposite-Spin Energy      =      -1.3806499774824128 [Eh]
	 Correlation Energy        =      -1.7816527912412510 [Eh]
	 Total Energy              =    -387.8338169237140960 [Eh]

	 ================> DF-SCS-MP2 Energies <==================
	-----------------------------------------------------------
	 SCS Same-Spin Scale       =       0.3333333333333333 [-]
	 SCS Opposite-Spin Scale   =       1.2000000000000000 [-]
	 SCS Same-Spin Energy      =      -0.1336676045862794 [Eh]
	 SCS Opposite-Spin Energy  =      -1.6567799729788952 [Eh]
	 SCS Correlation Energy    =      -1.7904475775651747 [Eh]
	 SCS Total Energy          =    -387.8426117100379997 [Eh]
	-----------------------------------------------------------

  Dipole Moment: [D]
     X:     1.1096      Y:     1.0371      Z:     0.3517     Total:     1.5590

*** Psi4 exiting successfully. Buy a developer a beer!
