                               Psi4 1.4a3.dev225

  ==> Input File <==

--------------------------------------------------------------------------
#psi4
#
memory 32 gb

molecule  {
0 1
  O       -2.7161510     1.3794200    -0.1343610
  C       -2.7832390     0.0721360     0.4401970
  C       -1.3979030    -0.4954620     0.4743180
  C        3.5083460    -0.4405980    -0.4123350
  C       -3.7239960    -0.8239440    -0.3625680
  C       -0.3030690     0.1219220    -0.0067100
  C        2.1282810     0.1394430    -0.4544070
  C        1.0245920    -0.4684390     0.0236420
  C        4.4606410     0.4027870     0.4416180
  H       -3.1581590     0.1412460     1.4762970
  H       -1.3112260    -1.4900120     0.9147240
  H        3.4619600    -1.4629760    -0.0187660
  H        3.9104550    -0.5133060    -1.4317100
  H       -3.3684670    -0.8811940    -1.3941910
  H       -3.7626400    -1.8335820     0.0574350
  H       -4.7426360    -0.4191700    -0.3608330
  H       -0.4078810     1.1149080    -0.4388390
  H        2.0311270     1.1370710    -0.8883280
  H        1.1170930    -1.4649260     0.4609700
  H        4.5263310     1.4251690     0.0574090
  H        5.4690900    -0.0219830     0.4454750
  H        4.1044230     0.4539160     1.4740500
  H       -3.5755953     1.7142680    -0.1409755
units angstrom
no_reorient  #important for SAPT in psi4, default
symmetry c1  #important for SAPT in psi4, default
}

set PROPERTIES_ORIGIN ["COM"]
properties('MP2/aug-cc-pvtz', properties = ['dipole'])
--------------------------------------------------------------------------

    Molecular point group: c1
  Charge       = 0
  Multiplicity = 1
  Basis Set: AUG-CC-PVTZ
    Blend: AUG-CC-PVTZ
  Basis Set: (AUG-CC-PVTZ AUX)
    Blend: AUG-CC-PVTZ-JKFIT

    Orbital Energies [Eh]
    ---------------------

    Doubly Occupied:

       1A    -20.554006     2A    -11.287562     3A    -11.226632
       4A    -11.224433     5A    -11.223868     6A    -11.223681
       7A    -11.222575     8A    -11.221275     9A    -11.213210
      10A     -1.371829    11A     -1.097615    12A     -1.062045
      13A     -1.016551    14A     -0.962235    15A     -0.877468
      16A     -0.829678    17A     -0.753263    18A     -0.750919
      19A     -0.700125    20A     -0.637814    21A     -0.627604
      22A     -0.618851    23A     -0.590222    24A     -0.583482
      25A     -0.547740    26A     -0.543898    27A     -0.527930
      28A     -0.518464    29A     -0.501005    30A     -0.493700
      31A     -0.479476    32A     -0.468247    33A     -0.454105
      34A     -0.418092    35A     -0.297465

  @DF-RHF Final Energy:  -386.06305700801431

   => Energetics <=

    Nuclear Repulsion Energy =            417.8273212599782482
    One-Electron Energy =               -1351.5266285525103740
    Two-Electron Energy =                 547.6362502845178142
    Total Energy =                       -386.0630570080143116
  Basis Set: (AUG-CC-PVTZ AUX)
    Blend: AUG-CC-PVTZ-RI
    Molecular point group: c1

    Geometry (in Angstrom), charge = 0, multiplicity = 1:

       Center              X                  Y                   Z               Mass
    ------------   -----------------  -----------------  -----------------  -----------------
         O           -2.683215663978     1.363236297959    -0.132698483912    15.994914619570
         C           -2.750303663978     0.055952297959     0.441859516088    12.000000000000
         C           -1.364967663978    -0.511645702041     0.475980516088    12.000000000000
         C            3.541281336022    -0.456781702041    -0.410672483912    12.000000000000
         C           -3.691060663978    -0.840127702041    -0.360905483912    12.000000000000
         C           -0.270133663978     0.105738297959    -0.005047483912    12.000000000000
         C            2.161216336022     0.123259297959    -0.452744483912    12.000000000000
         C            1.057527336022    -0.484622702041     0.025304516088    12.000000000000
         C            4.493576336022     0.386603297959     0.443280516088    12.000000000000
         H           -3.125223663978     0.125062297959     1.477959516088     1.007825032230
         H           -1.278290663978    -1.506195702041     0.916386516088     1.007825032230
         H            3.494895336022    -1.479159702041    -0.017103483912     1.007825032230
         H            3.943390336022    -0.529489702041    -1.430047483912     1.007825032230
         H           -3.335531663978    -0.897377702041    -1.392528483912     1.007825032230
         H           -3.729704663978    -1.849765702041     0.059097516088     1.007825032230
         H           -4.709700663978    -0.435353702041    -0.359170483912     1.007825032230
         H           -0.374945663978     1.098724297959    -0.437176483912     1.007825032230
         H            2.064062336022     1.120887297959    -0.886665483912     1.007825032230
         H            1.150028336022    -1.481109702041     0.462632516088     1.007825032230
         H            4.559266336022     1.408985297959     0.059071516088     1.007825032230
         H            5.502025336022    -0.038166702041     0.447137516088     1.007825032230
         H            4.137358336022     0.437732297959     1.475712516088     1.007825032230
         H           -3.542659963978     1.698084297959    -0.139312983912     1.007825032230

  Basis Set: AUG-CC-PVTZ
    Blend: AUG-CC-PVTZ
  Basis Set: (AUG-CC-PVTZ AUX)
    Blend: AUG-CC-PVTZ-JKFIT
	 Reference Energy          =    -386.0630570080143116 [Eh]
	 Singles Energy            =      -0.0000000000000000 [Eh]
	 Same-Spin Energy          =      -0.3996653864794338 [Eh]
	 Opposite-Spin Energy      =      -1.3768701462525152 [Eh]
	 Correlation Energy        =      -1.7765355327319490 [Eh]
	 Total Energy              =    -387.8395925407462528 [Eh]

	 ================> DF-SCS-MP2 Energies <==================
	-----------------------------------------------------------
	 SCS Same-Spin Scale       =       0.3333333333333333 [-]
	 SCS Opposite-Spin Scale   =       1.2000000000000000 [-]
	 SCS Same-Spin Energy      =      -0.1332217954931446 [Eh]
	 SCS Opposite-Spin Energy  =      -1.6522441755030182 [Eh]
	 SCS Correlation Energy    =      -1.7854659709961627 [Eh]
	 SCS Total Energy          =    -387.8485229790104540 [Eh]
	-----------------------------------------------------------

  Dipole Moment: [D]
     X:    -1.1794      Y:    -0.7106      Z:     0.3939     Total:     1.4321

*** Psi4 exiting successfully. Buy a developer a beer!
