                               Psi4 1.3.2 release

  ==> Input File <==

--------------------------------------------------------------------------
#psi4
#
memory 32 gb

molecule  {
0 1
  O        2.6932640    -1.3344870    -0.0264310
  C        2.7508540     0.0254460     0.4069810
  C        1.3606810     0.5764810     0.3953890
  C       -3.5492030     0.3621160    -0.4101590
  C        3.6709050     0.8409920    -0.4958550
  C        0.2704120    -0.1024690    -0.0006590
  C       -2.1631840    -0.2004740    -0.4090490
  C       -1.0635270     0.4697970    -0.0176060
  C       -4.4600738    -0.4287313     0.5318271
  H        3.1361180     0.0688010     1.4404840
  H        1.2655190     1.6118880     0.7253080
  H       -3.4873742     1.4306636    -0.1735271
  H       -3.9713450     0.3050270    -1.4220020
  H        3.3060070     0.7827570    -1.5237190
  H        3.6990520     1.8899320    -0.1870900
  H        4.6948240     0.4527130    -0.4608140
  H        0.3841050    -1.1350190    -0.3229170
  H       -2.0573220    -1.2386810    -0.7303930
  H       -1.1648060     1.5075440     0.3065060
  H       -4.5255200    -1.4457790     0.3033390
  H       -5.4853170     0.0231860     0.5310900
  H       -4.0942820    -0.3029910     1.5815520
  H        3.6028580    -1.6773980    -0.0043180
units angstrom
no_reorient  #important for SAPT in psi4, default
symmetry c1  #important for SAPT in psi4, default
}

set PROPERTIES_ORIGIN ["COM"]
properties('MP2/aug-cc-pvtz', properties = ['dipole'])
--------------------------------------------------------------------------

    Molecular point group: c1
  Charge       = 0
  Multiplicity = 1
  Basis Set: AUG-CC-PVTZ
    Blend: AUG-CC-PVTZ
  Basis Set: (AUG-CC-PVTZ AUX)
    Blend: AUG-CC-PVTZ-JKFIT

    Orbital Energies [Eh]
    ---------------------

    Doubly Occupied:

       1A    -20.558542     2A    -11.286279     3A    -11.225549
       4A    -11.223694     5A    -11.223302     6A    -11.222552
       7A    -11.221458     8A    -11.220393     9A    -11.213935
      10A     -1.360433    11A     -1.097893    12A     -1.061511
      13A     -1.016084    14A     -0.962241    15A     -0.876890
      16A     -0.829313    17A     -0.752845    18A     -0.747833
      19A     -0.695109    20A     -0.637645    21A     -0.627025
      22A     -0.616803    23A     -0.591035    24A     -0.581544
      25A     -0.547401    26A     -0.544111    27A     -0.530778
      28A     -0.518119    29A     -0.499281    30A     -0.489329
      31A     -0.482686    32A     -0.465088    33A     -0.452752
      34A     -0.417751    35A     -0.296958

  @DF-RHF Final Energy:  -386.05887596397099

   => Energetics <=

    Nuclear Repulsion Energy =            418.0964507347806034
    One-Electron Energy =               -1352.1223283639958481
    Two-Electron Energy =                 547.9670016652443110
    Total Energy =                       -386.0588759639709906
  Basis Set: (AUG-CC-PVTZ AUX)
    Blend: AUG-CC-PVTZ-RI
    Molecular point group: c1

    Geometry (in Angstrom), charge = 0, multiplicity = 1:

       Center              X                  Y                   Z               Mass
    ------------   -----------------  -----------------  -----------------  -----------------
         O            2.692101020002    -1.330231114880    -0.023668713929    15.994914619570
         C            2.749691020002     0.029701885120     0.409743286071    12.000000000000
         C            1.359518020002     0.580736885120     0.398151286071    12.000000000000
         C           -3.550365979998     0.366371885120    -0.407396713929    12.000000000000
         C            3.669742020002     0.845247885120    -0.493092713929    12.000000000000
         C            0.269249020002    -0.098213114880     0.002103286071    12.000000000000
         C           -2.164346979998    -0.196218114880    -0.406286713929    12.000000000000
         C           -1.064689979998     0.474052885120    -0.014843713929    12.000000000000
         C           -4.461236779998    -0.424475414880     0.534589386071    12.000000000000
         H            3.134955020002     0.073056885120     1.443246286071     1.007825032230
         H            1.264356020002     1.616143885120     0.728070286071     1.007825032230
         H           -3.488537179998     1.434919485120    -0.170764813929     1.007825032230
         H           -3.972507979998     0.309282885120    -1.419239713929     1.007825032230
         H            3.304844020002     0.787012885120    -1.520956713929     1.007825032230
         H            3.697889020002     1.894187885120    -0.184327713929     1.007825032230
         H            4.693661020002     0.456968885120    -0.458051713929     1.007825032230
         H            0.382942020002    -1.130763114880    -0.320154713929     1.007825032230
         H           -2.058484979998    -1.234425114880    -0.727630713929     1.007825032230
         H           -1.165968979998     1.511799885120     0.309268286071     1.007825032230
         H           -4.526682979998    -1.441523114880     0.306101286071     1.007825032230
         H           -5.486479979998     0.027441885120     0.533852286071     1.007825032230
         H           -4.095444979998    -0.298735114880     1.584314286071     1.007825032230
         H            3.601695020002    -1.673142114880    -0.001555713929     1.007825032230

  Basis Set: AUG-CC-PVTZ
    Blend: AUG-CC-PVTZ
  Basis Set: (AUG-CC-PVTZ AUX)
    Blend: AUG-CC-PVTZ-JKFIT
	 Reference Energy          =    -386.0588759639709906 [Eh]
	 Singles Energy            =      -0.0000000000000000 [Eh]
	 Same-Spin Energy          =      -0.4004591216292266 [Eh]
	 Opposite-Spin Energy      =      -1.3785134851982659 [Eh]
	 Correlation Energy        =      -1.7789726068274925 [Eh]
	 Total Energy              =    -387.8378485707984851 [Eh]

	 ================> DF-SCS-MP2 Energies <==================
	-----------------------------------------------------------
	 SCS Same-Spin Scale       =       0.3333333333333333 [-]
	 SCS Opposite-Spin Scale   =       1.2000000000000000 [-]
	 SCS Same-Spin Energy      =      -0.1334863738764089 [Eh]
	 SCS Opposite-Spin Energy  =      -1.6542161822379191 [Eh]
	 SCS Correlation Energy    =      -1.7877025561143280 [Eh]
	 SCS Total Energy          =    -387.8465785200853020 [Eh]
	-----------------------------------------------------------

  Dipole Moment: [D]
     X:     1.1863      Y:     0.7064      Z:     0.2907     Total:     1.4110

*** Psi4 exiting successfully. Buy a developer a beer!
