                               Psi4 1.4a3.dev225

  ==> Input File <==

--------------------------------------------------------------------------
#psi4
#
memory 32 gb

molecule  {
0 1
  O       -2.7161510     1.3794200    -0.1343610
  C       -2.7832390     0.0721360     0.4401970
  C       -1.3979030    -0.4954620     0.4743180
  C        3.5083460    -0.4405980    -0.4123350
  C       -3.7239960    -0.8239440    -0.3625680
  C       -0.3030690     0.1219220    -0.0067100
  C        2.1282810     0.1394430    -0.4544070
  C        1.0409714    -0.4594177     0.0165475
  C        4.4606410     0.4027870     0.4416180
  H       -3.1581590     0.1412460     1.4762970
  H       -1.3112260    -1.4900120     0.9147240
  H        3.4619600    -1.4629760    -0.0187660
  H        3.9104550    -0.5133060    -1.4317100
  H       -3.3684670    -0.8811940    -1.3941910
  H       -3.7626400    -1.8335820     0.0574350
  H       -4.7426360    -0.4191700    -0.3608330
  H       -0.4078810     1.1149080    -0.4388390
  H        2.0311270     1.1370710    -0.8883280
  H        1.1170930    -1.4649260     0.4609700
  H        4.5263310     1.4251690     0.0574090
  H        5.4690900    -0.0219830     0.4454750
  H        4.1044230     0.4539160     1.4740500
  H       -3.6221830     1.7324190    -0.1413340
units angstrom
no_reorient  #important for SAPT in psi4, default
symmetry c1  #important for SAPT in psi4, default
}

set PROPERTIES_ORIGIN ["COM"]
properties('MP2/aug-cc-pvtz', properties = ['dipole'])
--------------------------------------------------------------------------

    Molecular point group: c1
  Charge       = 0
  Multiplicity = 1
  Basis Set: AUG-CC-PVTZ
    Blend: AUG-CC-PVTZ
  Basis Set: (AUG-CC-PVTZ AUX)
    Blend: AUG-CC-PVTZ-JKFIT

    Orbital Energies [Eh]
    ---------------------

    Doubly Occupied:

       1A    -20.558806     2A    -11.287238     3A    -11.224740
       4A    -11.224079     5A    -11.223435     6A    -11.223012
       7A    -11.222084     8A    -11.221023     9A    -11.213065
      10A     -1.360143    11A     -1.097956    12A     -1.061077
      13A     -1.015117    14A     -0.964102    15A     -0.875632
      16A     -0.829173    17A     -0.751552    18A     -0.747055
      19A     -0.694678    20A     -0.636811    21A     -0.627477
      22A     -0.616538    23A     -0.590759    24A     -0.582353
      25A     -0.546426    26A     -0.543463    27A     -0.527371
      28A     -0.518900    29A     -0.500537    30A     -0.491818
      31A     -0.479596    32A     -0.465065    33A     -0.452806
      34A     -0.418251    35A     -0.301076

  @DF-RHF Final Energy:  -386.06282496251026

   => Energetics <=

    Nuclear Repulsion Energy =            417.5762190758970860
    One-Electron Energy =               -1351.0916570845188289
    Two-Electron Energy =                 547.4526130461114235
    Total Energy =                       -386.0628249625102626
  Basis Set: (AUG-CC-PVTZ AUX)
    Blend: AUG-CC-PVTZ-RI
    Molecular point group: c1

    Geometry (in Angstrom), charge = 0, multiplicity = 1:

       Center              X                  Y                   Z               Mass
    ------------   -----------------  -----------------  -----------------  -----------------
         O           -2.684401986363     1.362232775744    -0.132020511842    15.994914619570
         C           -2.751489986363     0.054948775744     0.442537488158    12.000000000000
         C           -1.366153986363    -0.512649224256     0.476658488158    12.000000000000
         C            3.540095013637    -0.457785224256    -0.409994511842    12.000000000000
         C           -3.692246986363    -0.841131224256    -0.360227511842    12.000000000000
         C           -0.271319986363     0.104734775744    -0.004369511842    12.000000000000
         C            2.160030013637     0.122255775744    -0.452066511842    12.000000000000
         C            1.072720413637    -0.476604924256     0.018887988158    12.000000000000
         C            4.492390013637     0.385599775744     0.443958488158    12.000000000000
         H           -3.126409986363     0.124058775744     1.478637488158     1.007825032230
         H           -1.279476986363    -1.507199224256     0.917064488158     1.007825032230
         H            3.493709013637    -1.480163224256    -0.016425511842     1.007825032230
         H            3.942204013637    -0.530493224256    -1.429369511842     1.007825032230
         H           -3.336717986363    -0.898381224256    -1.391850511842     1.007825032230
         H           -3.730890986363    -1.850769224256     0.059775488158     1.007825032230
         H           -4.710886986363    -0.436357224256    -0.358492511842     1.007825032230
         H           -0.376131986363     1.097720775744    -0.436498511842     1.007825032230
         H            2.062876013637     1.119883775744    -0.885987511842     1.007825032230
         H            1.148842013637    -1.482113224256     0.463310488158     1.007825032230
         H            4.558080013637     1.407981775744     0.059749488158     1.007825032230
         H            5.500839013637    -0.039170224256     0.447815488158     1.007825032230
         H            4.136172013637     0.436728775744     1.476390488158     1.007825032230
         H           -3.590433986363     1.715231775744    -0.138993511842     1.007825032230

  Basis Set: AUG-CC-PVTZ
    Blend: AUG-CC-PVTZ
  Basis Set: (AUG-CC-PVTZ AUX)
    Blend: AUG-CC-PVTZ-JKFIT
	 Reference Energy          =    -386.0628249625102626 [Eh]
	 Singles Energy            =      -0.0000000000000000 [Eh]
	 Same-Spin Energy          =      -0.3999273608651660 [Eh]
	 Opposite-Spin Energy      =      -1.3778268789709220 [Eh]
	 Correlation Energy        =      -1.7777542398360882 [Eh]
	 Total Energy              =    -387.8405792023463619 [Eh]

	 ================> DF-SCS-MP2 Energies <==================
	-----------------------------------------------------------
	 SCS Same-Spin Scale       =       0.3333333333333333 [-]
	 SCS Opposite-Spin Scale   =       1.2000000000000000 [-]
	 SCS Same-Spin Energy      =      -0.1333091202883886 [Eh]
	 SCS Opposite-Spin Energy  =      -1.6533922547651063 [Eh]
	 SCS Correlation Energy    =      -1.7867013750534950 [Eh]
	 SCS Total Energy          =    -387.8495263375637592 [Eh]
	-----------------------------------------------------------

  Dipole Moment: [D]
     X:    -1.2106      Y:    -0.6802      Z:     0.3877     Total:     1.4417

*** Psi4 exiting successfully. Buy a developer a beer!
