                               Psi4 1.3.2 release

  ==> Input File <==

--------------------------------------------------------------------------
#psi4
#
memory 32 gb

molecule  {
0 1
  O        2.6932640    -1.3344870    -0.0264310
  C        2.7508540     0.0254460     0.4069810
  C        1.3606810     0.5764810     0.3953890
  C       -3.5492030     0.3621160    -0.4101590
  C        3.6709050     0.8409920    -0.4958550
  C        0.2704120    -0.1024690    -0.0006590
  C       -2.1631840    -0.2004740    -0.4090490
  C       -1.0635270     0.4697970    -0.0176060
  C       -4.4702810    -0.3835230     0.5583970
  H        3.1361180     0.0688010     1.4404840
  H        1.2655190     1.6118880     0.7253080
  H       -3.5148050     1.3279357    -0.1685305
  H       -3.9713450     0.3050270    -1.4220020
  H        3.3060070     0.7827570    -1.5237190
  H        3.6990520     1.8899320    -0.1870900
  H        4.6948240     0.4527130    -0.4608140
  H        0.3841050    -1.1350190    -0.3229170
  H       -2.0573220    -1.2386810    -0.7303930
  H       -1.1648060     1.5075440     0.3065060
  H       -4.5255200    -1.4457790     0.3033390
  H       -5.4853170     0.0231860     0.5310900
  H       -4.0942820    -0.3029910     1.5815520
  H        3.6028580    -1.6773980    -0.0043180
units angstrom
no_reorient  #important for SAPT in psi4, default
symmetry c1  #important for SAPT in psi4, default
}

set PROPERTIES_ORIGIN ["COM"]
properties('MP2/aug-cc-pvtz', properties = ['dipole'])
--------------------------------------------------------------------------

    Molecular point group: c1
  Charge       = 0
  Multiplicity = 1
  Basis Set: AUG-CC-PVTZ
    Blend: AUG-CC-PVTZ
  Basis Set: (AUG-CC-PVTZ AUX)
    Blend: AUG-CC-PVTZ-JKFIT

    Orbital Energies [Eh]
    ---------------------

    Doubly Occupied:

       1A    -20.558569     2A    -11.286337     3A    -11.225300
       4A    -11.223431     5A    -11.222741     6A    -11.221573
       7A    -11.220444     8A    -11.212065     9A    -11.210578
      10A     -1.360463    11A     -1.098957    12A     -1.063335
      13A     -1.017347    14A     -0.962464    15A     -0.877666
      16A     -0.832963    17A     -0.757698    18A     -0.747886
      19A     -0.695289    20A     -0.640877    21A     -0.627907
      22A     -0.617668    23A     -0.591919    24A     -0.583593
      25A     -0.546418    26A     -0.543420    27A     -0.527494
      28A     -0.518367    29A     -0.501242    30A     -0.493416
      31A     -0.486856    32A     -0.467460    33A     -0.452831
      34A     -0.418089    35A     -0.297202

  @DF-RHF Final Energy:  -386.05683357488351

   => Energetics <=

    Nuclear Repulsion Energy =            418.4532734762985342
    One-Electron Energy =               -1352.8004826687715649
    Two-Electron Energy =                 548.2903756175894614
    Total Energy =                       -386.0568335748835125
  Basis Set: (AUG-CC-PVTZ AUX)
    Blend: AUG-CC-PVTZ-RI
    Molecular point group: c1

    Geometry (in Angstrom), charge = 0, multiplicity = 1:

       Center              X                  Y                   Z               Mass
    ------------   -----------------  -----------------  -----------------  -----------------
         O            2.693291555538    -1.333712100669    -0.026237017108    15.994914619570
         C            2.750881555538     0.026220899331     0.407174982892    12.000000000000
         C            1.360708555538     0.577255899331     0.395582982892    12.000000000000
         C           -3.549175444462     0.362890899331    -0.409965017108    12.000000000000
         C            3.670932555538     0.841766899331    -0.495661017108    12.000000000000
         C            0.270439555538    -0.101694100669    -0.000465017108    12.000000000000
         C           -2.163156444462    -0.199699100669    -0.408855017108    12.000000000000
         C           -1.063499444462     0.470571899331    -0.017412017108    12.000000000000
         C           -4.470253444462    -0.382748100669     0.558590982892    12.000000000000
         H            3.136145555538     0.069575899331     1.440677982892     1.007825032230
         H            1.265546555538     1.612662899331     0.725501982892     1.007825032230
         H           -3.514777444462     1.328710599331    -0.168336517108     1.007825032230
         H           -3.971317444462     0.305801899331    -1.421808017108     1.007825032230
         H            3.306034555538     0.783531899331    -1.523525017108     1.007825032230
         H            3.699079555538     1.890706899331    -0.186896017108     1.007825032230
         H            4.694851555538     0.453487899331    -0.460620017108     1.007825032230
         H            0.384132555538    -1.134244100669    -0.322723017108     1.007825032230
         H           -2.057294444462    -1.237906100669    -0.730199017108     1.007825032230
         H           -1.164778444462     1.508318899331     0.306699982892     1.007825032230
         H           -4.525492444462    -1.445004100669     0.303532982892     1.007825032230
         H           -5.485289444462     0.023960899331     0.531283982892     1.007825032230
         H           -4.094254444462    -0.302216100669     1.581745982892     1.007825032230
         H            3.602885555538    -1.676623100669    -0.004124017108     1.007825032230

  Basis Set: AUG-CC-PVTZ
    Blend: AUG-CC-PVTZ
  Basis Set: (AUG-CC-PVTZ AUX)
    Blend: AUG-CC-PVTZ-JKFIT
	 Reference Energy          =    -386.0568335748835125 [Eh]
	 Singles Energy            =      -0.0000000000000000 [Eh]
	 Same-Spin Energy          =      -0.4003061743812990 [Eh]
	 Opposite-Spin Energy      =      -1.3777293175040208 [Eh]
	 Correlation Energy        =      -1.7780354918853198 [Eh]
	 Total Energy              =    -387.8348690667688174 [Eh]

	 ================> DF-SCS-MP2 Energies <==================
	-----------------------------------------------------------
	 SCS Same-Spin Scale       =       0.3333333333333333 [-]
	 SCS Opposite-Spin Scale   =       1.2000000000000000 [-]
	 SCS Same-Spin Energy      =      -0.1334353914604330 [Eh]
	 SCS Opposite-Spin Energy  =      -1.6532751810048250 [Eh]
	 SCS Correlation Energy    =      -1.7867105724652579 [Eh]
	 SCS Total Energy          =    -387.8435441473487799 [Eh]
	-----------------------------------------------------------

  Dipole Moment: [D]
     X:     1.1925      Y:     0.7870      Z:     0.3096     Total:     1.4619

*** Psi4 exiting successfully. Buy a developer a beer!
