                               Psi4 1.4a3.dev225

  ==> Input File <==

--------------------------------------------------------------------------
#psi4
#
memory 32 gb

molecule  {
0 1
  O       -2.7161510     1.3794200    -0.1343610
  C       -2.7832390     0.0721360     0.4401970
  C       -1.3979030    -0.4954620     0.4743180
  C        3.5083460    -0.4405980    -0.4123350
  C       -3.7239960    -0.8239440    -0.3625680
  C       -0.3030690     0.1219220    -0.0067100
  C        2.1282810     0.1394430    -0.4544070
  C        1.0245920    -0.4684390     0.0236420
  C        4.4606410     0.4027870     0.4416180
  H       -3.1581590     0.1412460     1.4762970
  H       -1.3112260    -1.4900120     0.9147240
  H        3.4598448    -1.5095962    -0.0008193
  H        3.9104550    -0.5133060    -1.4317100
  H       -3.3684670    -0.8811940    -1.3941910
  H       -3.7626400    -1.8335820     0.0574350
  H       -4.7426360    -0.4191700    -0.3608330
  H       -0.4078810     1.1149080    -0.4388390
  H        2.0311270     1.1370710    -0.8883280
  H        1.1170930    -1.4649260     0.4609700
  H        4.5263310     1.4251690     0.0574090
  H        5.4690900    -0.0219830     0.4454750
  H        4.1044230     0.4539160     1.4740500
  H       -3.6221830     1.7324190    -0.1413340
units angstrom
no_reorient  #important for SAPT in psi4, default
symmetry c1  #important for SAPT in psi4, default
}

set PROPERTIES_ORIGIN ["COM"]
properties('MP2/aug-cc-pvtz', properties = ['dipole'])
--------------------------------------------------------------------------

    Molecular point group: c1
  Charge       = 0
  Multiplicity = 1
  Basis Set: AUG-CC-PVTZ
    Blend: AUG-CC-PVTZ
  Basis Set: (AUG-CC-PVTZ AUX)
    Blend: AUG-CC-PVTZ-JKFIT

    Orbital Energies [Eh]
    ---------------------

    Doubly Occupied:

       1A    -20.558889     2A    -11.287117     3A    -11.229869
       4A    -11.226802     5A    -11.224439     6A    -11.223852
       7A    -11.222567     8A    -11.221005     9A    -11.213643
      10A     -1.360214    11A     -1.096776    12A     -1.059952
      13A     -1.015205    14A     -0.962148    15A     -0.876119
      16A     -0.826852    17A     -0.750152    18A     -0.747954
      19A     -0.694841    20A     -0.635602    21A     -0.627385
      22A     -0.616048    23A     -0.589126    24A     -0.582089
      25A     -0.546504    26A     -0.543775    27A     -0.527446
      28A     -0.518682    29A     -0.500802    30A     -0.492323
      31A     -0.473976    32A     -0.468080    33A     -0.452923
      34A     -0.418018    35A     -0.297505

  @DF-RHF Final Energy:  -386.06020401238391

   => Energetics <=

    Nuclear Repulsion Energy =            417.2947344661296825
    One-Electron Energy =               -1350.5325170170299316
    Two-Electron Energy =                 547.1775785385162862
    Total Energy =                       -386.0602040123839060
  Basis Set: (AUG-CC-PVTZ AUX)
    Blend: AUG-CC-PVTZ-RI
    Molecular point group: c1

    Geometry (in Angstrom), charge = 0, multiplicity = 1:

       Center              X                  Y                   Z               Mass
    ------------   -----------------  -----------------  -----------------  -----------------
         O           -2.682826431117     1.363463823387    -0.132839048548    15.994914619570
         C           -2.749914431117     0.056179823387     0.441718951452    12.000000000000
         C           -1.364578431117    -0.511418176613     0.475839951452    12.000000000000
         C            3.541670568883    -0.456554176613    -0.410813048548    12.000000000000
         C           -3.690671431117    -0.839900176613    -0.361046048548    12.000000000000
         C           -0.269744431117     0.105965823387    -0.005188048548    12.000000000000
         C            2.161605568883     0.123486823387    -0.452885048548    12.000000000000
         C            1.057916568883    -0.484395176613     0.025163951452    12.000000000000
         C            4.493965568883     0.386830823387     0.443139951452    12.000000000000
         H           -3.124834431117     0.125289823387     1.477818951452     1.007825032230
         H           -1.277901431117    -1.505968176613     0.916245951452     1.007825032230
         H            3.493169368883    -1.525552376613     0.000702651452     1.007825032230
         H            3.943779568883    -0.529262176613    -1.430188048548     1.007825032230
         H           -3.335142431117    -0.897150176613    -1.392669048548     1.007825032230
         H           -3.729315431117    -1.849538176613     0.058956951452     1.007825032230
         H           -4.709311431117    -0.435126176613    -0.359311048548     1.007825032230
         H           -0.374556431117     1.098951823387    -0.437317048548     1.007825032230
         H            2.064451568883     1.121114823387    -0.886806048548     1.007825032230
         H            1.150417568883    -1.480882176613     0.462491951452     1.007825032230
         H            4.559655568883     1.409212823387     0.058930951452     1.007825032230
         H            5.502414568883    -0.037939176613     0.446996951452     1.007825032230
         H            4.137747568883     0.437959823387     1.475571951452     1.007825032230
         H           -3.588858431117     1.716462823387    -0.139812048548     1.007825032230

  Basis Set: AUG-CC-PVTZ
    Blend: AUG-CC-PVTZ
  Basis Set: (AUG-CC-PVTZ AUX)
    Blend: AUG-CC-PVTZ-JKFIT
	 Reference Energy          =    -386.0602040123839060 [Eh]
	 Singles Energy            =      -0.0000000000000000 [Eh]
	 Same-Spin Energy          =      -0.4003043817117725 [Eh]
	 Opposite-Spin Energy      =      -1.3788070070788234 [Eh]
	 Correlation Energy        =      -1.7791113887905960 [Eh]
	 Total Energy              =    -387.8393154011744741 [Eh]

	 ================> DF-SCS-MP2 Energies <==================
	-----------------------------------------------------------
	 SCS Same-Spin Scale       =       0.3333333333333333 [-]
	 SCS Opposite-Spin Scale   =       1.2000000000000000 [-]
	 SCS Same-Spin Energy      =      -0.1334347939039242 [Eh]
	 SCS Opposite-Spin Energy  =      -1.6545684084945880 [Eh]
	 SCS Correlation Energy    =      -1.7880032023985122 [Eh]
	 SCS Total Energy          =    -387.8482072147824056 [Eh]
	-----------------------------------------------------------

  Dipole Moment: [D]
     X:    -1.2158      Y:    -0.6500      Z:     0.3861     Total:     1.4317

*** Psi4 exiting successfully. Buy a developer a beer!
