                               Psi4 1.3.2 release

  ==> Input File <==

--------------------------------------------------------------------------
#psi4
#
memory 32 gb

molecule  {
0 1
  O        2.6932640    -1.3344870    -0.0264310
  C        2.7508540     0.0254460     0.4069810
  C        1.3606810     0.5764810     0.3953890
  C       -3.5492030     0.3621160    -0.4101590
  C        3.6709050     0.8409920    -0.4958550
  C        0.2704120    -0.1024690    -0.0006590
  C       -2.1631840    -0.2004740    -0.4090490
  C       -1.0635270     0.4697970    -0.0176060
  C       -4.4702810    -0.3835230     0.5583970
  H        3.1361180     0.0688010     1.4404840
  H        1.2655190     1.6118880     0.7253080
  H       -3.5044460     1.6187926    -0.0957640
  H       -3.9713450     0.3050270    -1.4220020
  H        3.3060070     0.7827570    -1.5237190
  H        3.6990520     1.8899320    -0.1870900
  H        4.6948240     0.4527130    -0.4608140
  H        0.3841050    -1.1350190    -0.3229170
  H       -2.0573220    -1.2386810    -0.7303930
  H       -1.1648060     1.5075440     0.3065060
  H       -4.5255200    -1.4457790     0.3033390
  H       -5.4853170     0.0231860     0.5310900
  H       -4.0942820    -0.3029910     1.5815520
  H        3.6028580    -1.6773980    -0.0043180
units angstrom
no_reorient  #important for SAPT in psi4, default
symmetry c1  #important for SAPT in psi4, default
}

set PROPERTIES_ORIGIN ["COM"]
properties('MP2/aug-cc-pvtz', properties = ['dipole'])
--------------------------------------------------------------------------

    Molecular point group: c1
  Charge       = 0
  Multiplicity = 1
  Basis Set: AUG-CC-PVTZ
    Blend: AUG-CC-PVTZ
  Basis Set: (AUG-CC-PVTZ AUX)
    Blend: AUG-CC-PVTZ-JKFIT

    Orbital Energies [Eh]
    ---------------------

    Doubly Occupied:

       1A    -20.559056     2A    -11.286890     3A    -11.246528
       4A    -11.227566     5A    -11.224337     6A    -11.223828
       7A    -11.222270     8A    -11.220864     9A    -11.215182
      10A     -1.360967    11A     -1.097300    12A     -1.059675
      13A     -1.015215    14A     -0.963112    15A     -0.876278
      16A     -0.824300    17A     -0.748560    18A     -0.745166
      19A     -0.695363    20A     -0.634117    21A     -0.628138
      22A     -0.615099    23A     -0.589099    24A     -0.579364
      25A     -0.546983    26A     -0.544497    27A     -0.527695
      28A     -0.520885    29A     -0.501498    30A     -0.492480
      31A     -0.469551    32A     -0.454116    33A     -0.453309
      34A     -0.418938    35A     -0.298337

  @DF-RHF Final Energy:  -386.04271278169779

   => Energetics <=

    Nuclear Repulsion Energy =            417.2347968414092065
    One-Electron Energy =               -1350.3818949652788888
    Two-Electron Energy =                 547.1043853421718950
    Total Energy =                       -386.0427127816977872
  Basis Set: (AUG-CC-PVTZ AUX)
    Blend: AUG-CC-PVTZ-RI
    Molecular point group: c1

    Geometry (in Angstrom), charge = 0, multiplicity = 1:

       Center              X                  Y                   Z               Mass
    ------------   -----------------  -----------------  -----------------  -----------------
         O            2.693208766562    -1.336036624741    -0.026818565907    15.994914619570
         C            2.750798766562     0.023896375259     0.406593434093    12.000000000000
         C            1.360625766562     0.574931375259     0.395001434093    12.000000000000
         C           -3.549258233438     0.360566375259    -0.410546565907    12.000000000000
         C            3.670849766562     0.839442375259    -0.496242565907    12.000000000000
         C            0.270356766562    -0.104018624741    -0.001046565907    12.000000000000
         C           -2.163239233438    -0.202023624741    -0.409436565907    12.000000000000
         C           -1.063582233438     0.468247375259    -0.017993565907    12.000000000000
         C           -4.470336233438    -0.385072624741     0.558009434093    12.000000000000
         H            3.136062766562     0.067251375259     1.440096434093     1.007825032230
         H            1.265463766562     1.610338375259     0.724920434093     1.007825032230
         H           -3.504501233438     1.617242975259    -0.096151565907     1.007825032230
         H           -3.971400233438     0.303477375259    -1.422389565907     1.007825032230
         H            3.305951766562     0.781207375259    -1.524106565907     1.007825032230
         H            3.698996766562     1.888382375259    -0.187477565907     1.007825032230
         H            4.694768766562     0.451163375259    -0.461201565907     1.007825032230
         H            0.384049766562    -1.136568624741    -0.323304565907     1.007825032230
         H           -2.057377233438    -1.240230624741    -0.730780565907     1.007825032230
         H           -1.164861233438     1.505994375259     0.306118434093     1.007825032230
         H           -4.525575233438    -1.447328624741     0.302951434093     1.007825032230
         H           -5.485372233438     0.021636375259     0.530702434093     1.007825032230
         H           -4.094337233438    -0.304540624741     1.581164434093     1.007825032230
         H            3.602802766562    -1.678947624741    -0.004705565907     1.007825032230

  Basis Set: AUG-CC-PVTZ
    Blend: AUG-CC-PVTZ
  Basis Set: (AUG-CC-PVTZ AUX)
    Blend: AUG-CC-PVTZ-JKFIT
	 Reference Energy          =    -386.0427127816977872 [Eh]
	 Singles Energy            =      -0.0000000000000000 [Eh]
	 Same-Spin Energy          =      -0.4004882498934874 [Eh]
	 Opposite-Spin Energy      =      -1.3801204011291470 [Eh]
	 Correlation Energy        =      -1.7806086510226344 [Eh]
	 Total Energy              =    -387.8233214327204337 [Eh]

	 ================> DF-SCS-MP2 Energies <==================
	-----------------------------------------------------------
	 SCS Same-Spin Scale       =       0.3333333333333333 [-]
	 SCS Opposite-Spin Scale   =       1.2000000000000000 [-]
	 SCS Same-Spin Energy      =      -0.1334960832978291 [Eh]
	 SCS Opposite-Spin Energy  =      -1.6561444813549764 [Eh]
	 SCS Correlation Energy    =      -1.7896405646528055 [Eh]
	 SCS Total Energy          =    -387.8323533463506010 [Eh]
	-----------------------------------------------------------

  Dipole Moment: [D]
     X:     1.2398      Y:     0.5579      Z:     0.3044     Total:     1.3932

*** Psi4 exiting successfully. Buy a developer a beer!
