                               Psi4 1.3.2 release

  ==> Input File <==

--------------------------------------------------------------------------
#psi4
#
memory 32 gb

molecule  {
0 1
  O        2.6932640    -1.3344870    -0.0264310
  C        2.7508540     0.0254460     0.4069810
  C        1.3193545     0.6321308     0.4075032
  C       -3.5492030     0.3621160    -0.4101590
  C        3.6709050     0.8409920    -0.4958550
  C        0.2704120    -0.1024690    -0.0006590
  C       -2.1631840    -0.2004740    -0.4090490
  C       -1.0338679     0.5346624     0.0086319
  C       -4.4702810    -0.3835230     0.5583970
  H        3.1361180     0.0688010     1.4404840
  H        1.2655190     1.6118880     0.7253080
  H       -3.5113520     1.4248880    -0.1442750
  H       -3.9713450     0.3050270    -1.4220020
  H        3.3060070     0.7827570    -1.5237190
  H        3.6990520     1.8899320    -0.1870900
  H        4.6948240     0.4527130    -0.4608140
  H        0.3841050    -1.1350190    -0.3229170
  H       -2.0573220    -1.2386810    -0.7303930
  H       -1.1648060     1.5075440     0.3065060
  H       -4.5255200    -1.4457790     0.3033390
  H       -5.4853170     0.0231860     0.5310900
  H       -4.0942820    -0.3029910     1.5815520
  H        3.6028580    -1.6773980    -0.0043180
units angstrom
no_reorient  #important for SAPT in psi4, default
symmetry c1  #important for SAPT in psi4, default
}

set PROPERTIES_ORIGIN ["COM"]
properties('MP2/aug-cc-pvtz', properties = ['dipole'])
--------------------------------------------------------------------------

    Molecular point group: c1
  Charge       = 0
  Multiplicity = 1
  Basis Set: AUG-CC-PVTZ
    Blend: AUG-CC-PVTZ
  Basis Set: (AUG-CC-PVTZ AUX)
    Blend: AUG-CC-PVTZ-JKFIT

    Orbital Energies [Eh]
    ---------------------

    Doubly Occupied:

       1A    -20.558932     2A    -11.286895     3A    -11.233510
       4A    -11.225691     5A    -11.224320     6A    -11.222344
       7A    -11.219005     8A    -11.218712     9A    -11.212236
      10A     -1.359038    11A     -1.093903    12A     -1.056489
      13A     -1.013076    14A     -0.955090    15A     -0.872291
      16A     -0.822639    17A     -0.763958    18A     -0.755359
      19A     -0.692603    20A     -0.636337    21A     -0.625325
      22A     -0.615054    23A     -0.594933    24A     -0.578501
      25A     -0.552990    26A     -0.543534    27A     -0.530680
      28A     -0.517706    29A     -0.510713    30A     -0.490790
      31A     -0.479879    32A     -0.455833    33A     -0.449857
      34A     -0.415402    35A     -0.287629

  @DF-RHF Final Energy:  -386.04631085645133

   => Energetics <=

    Nuclear Repulsion Energy =            416.8653792932611850
    One-Electron Energy =               -1349.6808720264591557
    Two-Electron Energy =                 546.7691818767466430
    Total Energy =                       -386.0463108564513277
  Basis Set: (AUG-CC-PVTZ AUX)
    Blend: AUG-CC-PVTZ-RI
    Molecular point group: c1

    Geometry (in Angstrom), charge = 0, multiplicity = 1:

       Center              X                  Y                   Z               Mass
    ------------   -----------------  -----------------  -----------------  -----------------
         O            2.694374219662    -1.345955072034    -0.030080421858    15.994914619570
         C            2.751964219662     0.013977927966     0.403331578142    12.000000000000
         C            1.320464719662     0.620662727966     0.403853778142    12.000000000000
         C           -3.548092780338     0.350647927966    -0.413808421858    12.000000000000
         C            3.672015219662     0.829523927966    -0.499504421858    12.000000000000
         C            0.271522219662    -0.113937072034    -0.004308421858    12.000000000000
         C           -2.162073780338    -0.211942072034    -0.412698421858    12.000000000000
         C           -1.032757680338     0.523194327966     0.004982478142    12.000000000000
         C           -4.469170780338    -0.394991072034     0.554747578142    12.000000000000
         H            3.137228219662     0.057332927966     1.436834578142     1.007825032230
         H            1.266629219662     1.600419927966     0.721658578142     1.007825032230
         H           -3.510241780338     1.413419927966    -0.147924421858     1.007825032230
         H           -3.970234780338     0.293558927966    -1.425651421858     1.007825032230
         H            3.307117219662     0.771288927966    -1.527368421858     1.007825032230
         H            3.700162219662     1.878463927966    -0.190739421858     1.007825032230
         H            4.695934219662     0.441244927966    -0.464463421858     1.007825032230
         H            0.385215219662    -1.146487072034    -0.326566421858     1.007825032230
         H           -2.056211780338    -1.250149072034    -0.734042421858     1.007825032230
         H           -1.163695780338     1.496075927966     0.302856578142     1.007825032230
         H           -4.524409780338    -1.457247072034     0.299689578142     1.007825032230
         H           -5.484206780338     0.011717927966     0.527440578142     1.007825032230
         H           -4.093171780338    -0.314459072034     1.577902578142     1.007825032230
         H            3.603968219662    -1.688866072034    -0.007967421858     1.007825032230

  Basis Set: AUG-CC-PVTZ
    Blend: AUG-CC-PVTZ
  Basis Set: (AUG-CC-PVTZ AUX)
    Blend: AUG-CC-PVTZ-JKFIT
	 Reference Energy          =    -386.0463108564513277 [Eh]
	 Singles Energy            =      -0.0000000000000000 [Eh]
	 Same-Spin Energy          =      -0.4007627724204017 [Eh]
	 Opposite-Spin Energy      =      -1.3800184532508766 [Eh]
	 Correlation Energy        =      -1.7807812256712783 [Eh]
	 Total Energy              =    -387.8270920821225900 [Eh]

	 ================> DF-SCS-MP2 Energies <==================
	-----------------------------------------------------------
	 SCS Same-Spin Scale       =       0.3333333333333333 [-]
	 SCS Opposite-Spin Scale   =       1.2000000000000000 [-]
	 SCS Same-Spin Energy      =      -0.1335875908068005 [Eh]
	 SCS Opposite-Spin Energy  =      -1.6560221439010518 [Eh]
	 SCS Correlation Energy    =      -1.7896097347078523 [Eh]
	 SCS Total Energy          =    -387.8359205911591516 [Eh]
	-----------------------------------------------------------

  Dipole Moment: [D]
     X:     1.1724      Y:     0.7606      Z:     0.3230     Total:     1.4343

*** Psi4 exiting successfully. Buy a developer a beer!
