                               Psi4 1.3.2 release

  ==> Input File <==

--------------------------------------------------------------------------
#psi4
#
memory 32 gb

molecule  {
0 1
  O        2.6932640    -1.3344870    -0.0264310
  C        2.7508540     0.0254460     0.4069810
  C        1.3606810     0.5764810     0.3953890
  C       -3.5492030     0.3621160    -0.4101590
  C        3.6709050     0.8409920    -0.4958550
  C        0.3515292    -0.0519544     0.0288074
  C       -2.1631840    -0.2004740    -0.4090490
  C       -1.0635270     0.4697970    -0.0176060
  C       -4.4702810    -0.3835230     0.5583970
  H        3.1361180     0.0688010     1.4404840
  H        1.2655190     1.6118880     0.7253080
  H       -3.5113520     1.4248880    -0.1442750
  H       -3.9713450     0.3050270    -1.4220020
  H        3.3060070     0.7827570    -1.5237190
  H        3.6990520     1.8899320    -0.1870900
  H        4.6948240     0.4527130    -0.4608140
  H        0.3841050    -1.1350190    -0.3229170
  H       -2.0573220    -1.2386810    -0.7303930
  H       -1.1648060     1.5075440     0.3065060
  H       -4.5255200    -1.4457790     0.3033390
  H       -5.4853170     0.0231860     0.5310900
  H       -4.0942820    -0.3029910     1.5815520
  H        3.6028580    -1.6773980    -0.0043180
units angstrom
no_reorient  #important for SAPT in psi4, default
symmetry c1  #important for SAPT in psi4, default
}

set PROPERTIES_ORIGIN ["COM"]
properties('MP2/aug-cc-pvtz', properties = ['dipole'])
--------------------------------------------------------------------------

    Molecular point group: c1
  Charge       = 0
  Multiplicity = 1
  Basis Set: AUG-CC-PVTZ
    Blend: AUG-CC-PVTZ
  Basis Set: (AUG-CC-PVTZ AUX)
    Blend: AUG-CC-PVTZ-JKFIT

    Orbital Energies [Eh]
    ---------------------

    Doubly Occupied:

       1A    -20.558323     2A    -11.286035     3A    -11.227252
       4A    -11.225649     5A    -11.223619     6A    -11.220682
       7A    -11.215644     8A    -11.212784     9A    -11.208061
      10A     -1.360548    11A     -1.102113    12A     -1.068581
      13A     -1.013454    14A     -0.970389    15A     -0.872295
      16A     -0.832439    17A     -0.752209    18A     -0.740569
      19A     -0.693254    20A     -0.638864    21A     -0.629681
      22A     -0.616767    23A     -0.592072    24A     -0.583984
      25A     -0.545974    26A     -0.544380    27A     -0.527554
      28A     -0.519584    29A     -0.495761    30A     -0.493345
      31A     -0.479014    32A     -0.455724    33A     -0.448930
      34A     -0.421271    35A     -0.315087

  @DF-RHF Final Energy:  -386.05020837044947

   => Energetics <=

    Nuclear Repulsion Energy =            418.7053901789014390
    One-Electron Energy =               -1353.3274030088132349
    Two-Electron Energy =                 548.5718044594623279
    Total Energy =                       -386.0502083704494680
  Basis Set: (AUG-CC-PVTZ AUX)
    Blend: AUG-CC-PVTZ-RI
    Molecular point group: c1

    Geometry (in Angstrom), charge = 0, multiplicity = 1:

       Center              X                  Y                   Z               Mass
    ------------   -----------------  -----------------  -----------------  -----------------
         O            2.685544911363    -1.339293870945    -0.029234865756    15.994914619570
         C            2.743134911363     0.020639129055     0.404177134244    12.000000000000
         C            1.352961911363     0.571674129055     0.392585134244    12.000000000000
         C           -3.556922088637     0.357309129055    -0.412962865756    12.000000000000
         C            3.663185911363     0.836185129055    -0.498658865756    12.000000000000
         C            0.343810111363    -0.056761270945     0.026003534244    12.000000000000
         C           -2.170903088637    -0.205280870945    -0.411852865756    12.000000000000
         C           -1.071246088637     0.464990129055    -0.020409865756    12.000000000000
         C           -4.478000088637    -0.388329870945     0.555593134244    12.000000000000
         H            3.128398911363     0.063994129055     1.437680134244     1.007825032230
         H            1.257799911363     1.607081129055     0.722504134244     1.007825032230
         H           -3.519071088637     1.420081129055    -0.147078865756     1.007825032230
         H           -3.979064088637     0.300220129055    -1.424805865756     1.007825032230
         H            3.298287911363     0.777950129055    -1.526522865756     1.007825032230
         H            3.691332911363     1.885125129055    -0.189893865756     1.007825032230
         H            4.687104911363     0.447906129055    -0.463617865756     1.007825032230
         H            0.376385911363    -1.139825870945    -0.325720865756     1.007825032230
         H           -2.065041088637    -1.243487870945    -0.733196865756     1.007825032230
         H           -1.172525088637     1.502737129055     0.303702134244     1.007825032230
         H           -4.533239088637    -1.450585870945     0.300535134244     1.007825032230
         H           -5.493036088637     0.018379129055     0.528286134244     1.007825032230
         H           -4.102001088637    -0.307797870945     1.578748134244     1.007825032230
         H            3.595138911363    -1.682204870945    -0.007121865756     1.007825032230

  Basis Set: AUG-CC-PVTZ
    Blend: AUG-CC-PVTZ
  Basis Set: (AUG-CC-PVTZ AUX)
    Blend: AUG-CC-PVTZ-JKFIT
	 Reference Energy          =    -386.0502083704494680 [Eh]
	 Singles Energy            =      -0.0000000000000000 [Eh]
	 Same-Spin Energy          =      -0.3991319578759586 [Eh]
	 Opposite-Spin Energy      =      -1.3761213061138380 [Eh]
	 Correlation Energy        =      -1.7752532639897964 [Eh]
	 Total Energy              =    -387.8254616344392502 [Eh]

	 ================> DF-SCS-MP2 Energies <==================
	-----------------------------------------------------------
	 SCS Same-Spin Scale       =       0.3333333333333333 [-]
	 SCS Opposite-Spin Scale   =       1.2000000000000000 [-]
	 SCS Same-Spin Energy      =      -0.1330439859586529 [Eh]
	 SCS Opposite-Spin Energy  =      -1.6513455673366055 [Eh]
	 SCS Correlation Energy    =      -1.7843895532952585 [Eh]
	 SCS Total Energy          =    -387.8345979237447523 [Eh]
	-----------------------------------------------------------

  Dipole Moment: [D]
     X:     1.2152      Y:     0.7356      Z:     0.3169     Total:     1.4554

*** Psi4 exiting successfully. Buy a developer a beer!
