                               Psi4 1.3.2 release

  ==> Input File <==

--------------------------------------------------------------------------
#psi4
#
memory 32 gb

molecule  {
0 1
  O        2.6932640    -1.3344870    -0.0264310
  C        2.7508540     0.0254460     0.4069810
  C        1.3594034     0.5720991     0.3696911
  C       -3.5492030     0.3621160    -0.4101590
  C        3.6709050     0.8409920    -0.4958550
  C        0.2704120    -0.1024690    -0.0006590
  C       -2.1631840    -0.2004740    -0.4090490
  C       -1.0635270     0.4697970    -0.0176060
  C       -4.4702810    -0.3835230     0.5583970
  H        3.1526939     0.0610562     1.4344503
  H        1.2655190     1.6118880     0.7253080
  H       -3.5113520     1.4248880    -0.1442750
  H       -3.9713450     0.3050270    -1.4220020
  H        3.3060070     0.7827570    -1.5237190
  H        3.6990520     1.8899320    -0.1870900
  H        4.6948240     0.4527130    -0.4608140
  H        0.3841050    -1.1350190    -0.3229170
  H       -2.0573220    -1.2386810    -0.7303930
  H       -1.1648060     1.5075440     0.3065060
  H       -4.5255200    -1.4457790     0.3033390
  H       -5.4853170     0.0231860     0.5310900
  H       -4.0942820    -0.3029910     1.5815520
  H        3.6028580    -1.6773980    -0.0043180
units angstrom
no_reorient  #important for SAPT in psi4, default
symmetry c1  #important for SAPT in psi4, default
}

set PROPERTIES_ORIGIN ["COM"]
properties('MP2/aug-cc-pvtz', properties = ['dipole'])
--------------------------------------------------------------------------

    Molecular point group: c1
  Charge       = 0
  Multiplicity = 1
  Basis Set: AUG-CC-PVTZ
    Blend: AUG-CC-PVTZ
  Basis Set: (AUG-CC-PVTZ AUX)
    Blend: AUG-CC-PVTZ-JKFIT

    Orbital Energies [Eh]
    ---------------------

    Doubly Occupied:

       1A    -20.558111     2A    -11.286505     3A    -11.226165
       4A    -11.223495     5A    -11.223268     6A    -11.222701
       7A    -11.220724     8A    -11.220061     9A    -11.212914
      10A     -1.360448    11A     -1.098627    12A     -1.061790
      13A     -1.016446    14A     -0.963300    15A     -0.876065
      16A     -0.829003    17A     -0.752862    18A     -0.746102
      19A     -0.695985    20A     -0.637253    21A     -0.629142
      22A     -0.616554    23A     -0.589802    24A     -0.582817
      25A     -0.545716    26A     -0.543330    27A     -0.526809
      28A     -0.518608    29A     -0.499256    30A     -0.493233
      31A     -0.479312    32A     -0.467826    33A     -0.452523
      34A     -0.419339    35A     -0.299147

  @DF-RHF Final Energy:  -386.06244404414167

   => Energetics <=

    Nuclear Repulsion Energy =            418.1769606012770737
    One-Electron Energy =               -1352.2883303975061153
    Two-Electron Energy =                 548.0489257520873707
    Total Energy =                       -386.0624440441416709
  Basis Set: (AUG-CC-PVTZ AUX)
    Blend: AUG-CC-PVTZ-RI
    Molecular point group: c1

    Geometry (in Angstrom), charge = 0, multiplicity = 1:

       Center              X                  Y                   Z               Mass
    ------------   -----------------  -----------------  -----------------  -----------------
         O            2.693253060257    -1.334008067600    -0.023937253863    15.994914619570
         C            2.750843060257     0.025924932400     0.409474746137    12.000000000000
         C            1.359392460257     0.572578032400     0.372184846137    12.000000000000
         C           -3.549213939743     0.362594932400    -0.407665253863    12.000000000000
         C            3.670894060257     0.841470932400    -0.493361253863    12.000000000000
         C            0.270401060257    -0.101990067600     0.001834746137    12.000000000000
         C           -2.163194939743    -0.199995067600    -0.406555253863    12.000000000000
         C           -1.063537939743     0.470275932400    -0.015112253863    12.000000000000
         C           -4.470291939743    -0.383044067600     0.560890746137    12.000000000000
         H            3.152682960257     0.061535132400     1.436944046137     1.007825032230
         H            1.265508060257     1.612366932400     0.727801746137     1.007825032230
         H           -3.511362939743     1.425366932400    -0.141781253863     1.007825032230
         H           -3.971355939743     0.305505932400    -1.419508253863     1.007825032230
         H            3.305996060257     0.783235932400    -1.521225253863     1.007825032230
         H            3.699041060257     1.890410932400    -0.184596253863     1.007825032230
         H            4.694813060257     0.453191932400    -0.458320253863     1.007825032230
         H            0.384094060257    -1.134540067600    -0.320423253863     1.007825032230
         H           -2.057332939743    -1.238202067600    -0.727899253863     1.007825032230
         H           -1.164816939743     1.508022932400     0.308999746137     1.007825032230
         H           -4.525530939743    -1.445300067600     0.305832746137     1.007825032230
         H           -5.485327939743     0.023664932400     0.533583746137     1.007825032230
         H           -4.094292939743    -0.302512067600     1.584045746137     1.007825032230
         H            3.602847060257    -1.676919067600    -0.001824253863     1.007825032230

  Basis Set: AUG-CC-PVTZ
    Blend: AUG-CC-PVTZ
  Basis Set: (AUG-CC-PVTZ AUX)
    Blend: AUG-CC-PVTZ-JKFIT
	 Reference Energy          =    -386.0624440441416709 [Eh]
	 Singles Energy            =      -0.0000000000000000 [Eh]
	 Same-Spin Energy          =      -0.4002694231145459 [Eh]
	 Opposite-Spin Energy      =      -1.3781684652088484 [Eh]
	 Correlation Energy        =      -1.7784378883233942 [Eh]
	 Total Energy              =    -387.8408819324650381 [Eh]

	 ================> DF-SCS-MP2 Energies <==================
	-----------------------------------------------------------
	 SCS Same-Spin Scale       =       0.3333333333333333 [-]
	 SCS Opposite-Spin Scale   =       1.2000000000000000 [-]
	 SCS Same-Spin Energy      =      -0.1334231410381820 [Eh]
	 SCS Opposite-Spin Energy  =      -1.6538021582506179 [Eh]
	 SCS Correlation Energy    =      -1.7872252992887998 [Eh]
	 SCS Total Energy          =    -387.8496693434304916 [Eh]
	-----------------------------------------------------------

  Dipole Moment: [D]
     X:     1.1876      Y:     0.7144      Z:     0.3286     Total:     1.4243

*** Psi4 exiting successfully. Buy a developer a beer!
