                               Psi4 1.3.2 release

  ==> Input File <==

--------------------------------------------------------------------------
#psi4
#
memory 32 gb

molecule  {
0 1
  O        2.6932640    -1.3344870    -0.0264310
  C        2.7508540     0.0254460     0.4069810
  C        1.3606810     0.5764810     0.3953890
  C       -3.5492030     0.3621160    -0.4101590
  C        3.6709050     0.8409920    -0.4958550
  C        0.2770945    -0.1118787    -0.0027503
  C       -2.1631840    -0.2004740    -0.4090490
  C       -1.0635270     0.4697970    -0.0176060
  C       -4.4702810    -0.3835230     0.5583970
  H        3.1361180     0.0688010     1.4404840
  H        1.2749029     1.6122067     0.7268771
  H       -3.5113520     1.4248880    -0.1442750
  H       -3.9713450     0.3050270    -1.4220020
  H        3.3060070     0.7827570    -1.5237190
  H        3.6990520     1.8899320    -0.1870900
  H        4.6948240     0.4527130    -0.4608140
  H        0.3841050    -1.1350190    -0.3229170
  H       -2.0573220    -1.2386810    -0.7303930
  H       -1.1648060     1.5075440     0.3065060
  H       -4.5255200    -1.4457790     0.3033390
  H       -5.4853170     0.0231860     0.5310900
  H       -4.0942820    -0.3029910     1.5815520
  H        3.6028580    -1.6773980    -0.0043180
units angstrom
no_reorient  #important for SAPT in psi4, default
symmetry c1  #important for SAPT in psi4, default
}

set PROPERTIES_ORIGIN ["COM"]
properties('MP2/aug-cc-pvtz', properties = ['dipole'])
--------------------------------------------------------------------------

    Molecular point group: c1
  Charge       = 0
  Multiplicity = 1
  Basis Set: AUG-CC-PVTZ
    Blend: AUG-CC-PVTZ
  Basis Set: (AUG-CC-PVTZ AUX)
    Blend: AUG-CC-PVTZ-JKFIT

    Orbital Energies [Eh]
    ---------------------

    Doubly Occupied:

       1A    -20.558576     2A    -11.285983     3A    -11.225616
       4A    -11.223833     5A    -11.223340     6A    -11.222985
       7A    -11.221887     8A    -11.220468     9A    -11.212657
      10A     -1.360506    11A     -1.096977    12A     -1.061323
      13A     -1.015471    14A     -0.962374    15A     -0.876000
      16A     -0.828359    17A     -0.751570    18A     -0.749499
      19A     -0.695107    20A     -0.637634    21A     -0.627342
      22A     -0.616567    23A     -0.589971    24A     -0.582165
      25A     -0.546921    26A     -0.543934    27A     -0.527299
      28A     -0.518983    29A     -0.502456    30A     -0.492458
      31A     -0.478942    32A     -0.466668    33A     -0.452737
      34A     -0.417172    35A     -0.298044

  @DF-RHF Final Energy:  -386.06262578506841

   => Energetics <=

    Nuclear Repulsion Energy =            417.9503294702487324
    One-Electron Energy =               -1351.8422619727125493
    Two-Electron Energy =                 547.8293067173954114
    Total Energy =                       -386.0626257850683487
  Basis Set: (AUG-CC-PVTZ AUX)
    Blend: AUG-CC-PVTZ-RI
    Molecular point group: c1

    Geometry (in Angstrom), charge = 0, multiplicity = 1:

       Center              X                  Y                   Z               Mass
    ------------   -----------------  -----------------  -----------------  -----------------
         O            2.692553061868    -1.333594069549    -0.026244400497    15.994914619570
         C            2.750143061868     0.026338930451     0.407167599503    12.000000000000
         C            1.359970061868     0.577373930451     0.395575599503    12.000000000000
         C           -3.549913938132     0.363008930451    -0.409972400497    12.000000000000
         C            3.670194061868     0.841884930451    -0.495668400497    12.000000000000
         C            0.276383561868    -0.110985769549    -0.002563700497    12.000000000000
         C           -2.163894938132    -0.199581069549    -0.408862400497    12.000000000000
         C           -1.064237938132     0.470689930451    -0.017419400497    12.000000000000
         C           -4.470991938132    -0.382630069549     0.558583599503    12.000000000000
         H            3.135407061868     0.069693930451     1.440670599503     1.007825032230
         H            1.274191961868     1.613099630451     0.727063699503     1.007825032230
         H           -3.512062938132     1.425780930451    -0.144088400497     1.007825032230
         H           -3.972055938132     0.305919930451    -1.421815400497     1.007825032230
         H            3.305296061868     0.783649930451    -1.523532400497     1.007825032230
         H            3.698341061868     1.890824930451    -0.186903400497     1.007825032230
         H            4.694113061868     0.453605930451    -0.460627400497     1.007825032230
         H            0.383394061868    -1.134126069549    -0.322730400497     1.007825032230
         H           -2.058032938132    -1.237788069549    -0.730206400497     1.007825032230
         H           -1.165516938132     1.508436930451     0.306692599503     1.007825032230
         H           -4.526230938132    -1.444886069549     0.303525599503     1.007825032230
         H           -5.486027938132     0.024078930451     0.531276599503     1.007825032230
         H           -4.094992938132    -0.302098069549     1.581738599503     1.007825032230
         H            3.602147061868    -1.676505069549    -0.004131400497     1.007825032230

  Basis Set: AUG-CC-PVTZ
    Blend: AUG-CC-PVTZ
  Basis Set: (AUG-CC-PVTZ AUX)
    Blend: AUG-CC-PVTZ-JKFIT
	 Reference Energy          =    -386.0626257850684055 [Eh]
	 Singles Energy            =      -0.0000000000000000 [Eh]
	 Same-Spin Energy          =      -0.4002086850709634 [Eh]
	 Opposite-Spin Energy      =      -1.3781982237008932 [Eh]
	 Correlation Energy        =      -1.7784069087718566 [Eh]
	 Total Energy              =    -387.8410326938402477 [Eh]

	 ================> DF-SCS-MP2 Energies <==================
	-----------------------------------------------------------
	 SCS Same-Spin Scale       =       0.3333333333333333 [-]
	 SCS Opposite-Spin Scale   =       1.2000000000000000 [-]
	 SCS Same-Spin Energy      =      -0.1334028950236544 [Eh]
	 SCS Opposite-Spin Energy  =      -1.6538378684410717 [Eh]
	 SCS Correlation Energy    =      -1.7872407634647263 [Eh]
	 SCS Total Energy          =    -387.8498665485331571 [Eh]
	-----------------------------------------------------------

  Dipole Moment: [D]
     X:     1.2123      Y:     0.7297      Z:     0.3112     Total:     1.4488

*** Psi4 exiting successfully. Buy a developer a beer!
