                               Psi4 1.3.2 release

  ==> Input File <==

--------------------------------------------------------------------------
#psi4
#
memory 32 gb

molecule  {
0 1
  O        2.6932640    -1.3344870    -0.0264310
  C        2.7508540     0.0254460     0.4069810
  C        1.3606810     0.5764810     0.3953890
  C       -3.5195207     0.4298427    -0.3843706
  C        3.6709050     0.8409920    -0.4958550
  C        0.2704120    -0.1024690    -0.0006590
  C       -2.1631840    -0.2004740    -0.4090490
  C       -1.0635270     0.4697970    -0.0176060
  C       -4.4702810    -0.3835230     0.5583970
  H        3.1361180     0.0688010     1.4404840
  H        1.2655190     1.6118880     0.7253080
  H       -3.5113520     1.4248880    -0.1442750
  H       -3.9713450     0.3050270    -1.4220020
  H        3.3060070     0.7827570    -1.5237190
  H        3.6990520     1.8899320    -0.1870900
  H        4.6948240     0.4527130    -0.4608140
  H        0.3841050    -1.1350190    -0.3229170
  H       -2.0010353    -1.2341214    -0.7214965
  H       -1.1648060     1.5075440     0.3065060
  H       -4.5255200    -1.4457790     0.3033390
  H       -5.4853170     0.0231860     0.5310900
  H       -4.0942820    -0.3029910     1.5815520
  H        3.6028580    -1.6773980    -0.0043180
units angstrom
no_reorient  #important for SAPT in psi4, default
symmetry c1  #important for SAPT in psi4, default
}

set PROPERTIES_ORIGIN ["COM"]
properties('MP2/aug-cc-pvtz', properties = ['dipole'])
--------------------------------------------------------------------------

    Molecular point group: c1
  Charge       = 0
  Multiplicity = 1
  Basis Set: AUG-CC-PVTZ
    Blend: AUG-CC-PVTZ
  Basis Set: (AUG-CC-PVTZ AUX)
    Blend: AUG-CC-PVTZ-JKFIT

    Orbital Energies [Eh]
    ---------------------

    Doubly Occupied:

       1A    -20.558505     2A    -11.286140     3A    -11.225902
       4A    -11.223986     5A    -11.222866     6A    -11.221335
       7A    -11.220591     8A    -11.220307     9A    -11.214394
      10A     -1.360386    11A     -1.097969    12A     -1.060080
      13A     -1.013869    14A     -0.960754    15A     -0.876220
      16A     -0.830365    17A     -0.756193    18A     -0.747646
      19A     -0.694816    20A     -0.638846    21A     -0.625047
      22A     -0.616372    23A     -0.593330    24A     -0.579073
      25A     -0.546350    26A     -0.542486    27A     -0.527367
      28A     -0.508907    29A     -0.505332    30A     -0.491685
      31A     -0.489684    32A     -0.466518    33A     -0.452457
      34A     -0.415762    35A     -0.295650

  @DF-RHF Final Energy:  -386.05504123030630

   => Energetics <=

    Nuclear Repulsion Energy =            418.0138112079624761
    One-Electron Energy =               -1351.9633285825250368
    Two-Electron Energy =                 547.8944761442562594
    Total Energy =                       -386.0550412303063013
  Basis Set: (AUG-CC-PVTZ AUX)
    Blend: AUG-CC-PVTZ-RI
    Molecular point group: c1

    Geometry (in Angstrom), charge = 0, multiplicity = 1:

       Center              X                  Y                   Z               Mass
    ------------   -----------------  -----------------  -----------------  -----------------
         O            2.689989572814    -1.340968200866    -0.028955970916    15.994914619570
         C            2.747579572814     0.018964799134     0.404456029084    12.000000000000
         C            1.357406572814     0.569999799134     0.392864029084    12.000000000000
         C           -3.522795127186     0.423361499134    -0.386895570916    12.000000000000
         C            3.667630572814     0.834510799134    -0.498379970916    12.000000000000
         C            0.267137572814    -0.108950200866    -0.003183970916    12.000000000000
         C           -2.166458427186    -0.206955200866    -0.411573970916    12.000000000000
         C           -1.066801427186     0.463315799134    -0.020130970916    12.000000000000
         C           -4.473555427186    -0.390004200866     0.555872029084    12.000000000000
         H            3.132843572814     0.062319799134     1.437959029084     1.007825032230
         H            1.262244572814     1.605406799134     0.722783029084     1.007825032230
         H           -3.514626427186     1.418406799134    -0.146799970916     1.007825032230
         H           -3.974619427186     0.298545799134    -1.424526970916     1.007825032230
         H            3.302732572814     0.776275799134    -1.526243970916     1.007825032230
         H            3.695777572814     1.883450799134    -0.189614970916     1.007825032230
         H            4.691549572814     0.446231799134    -0.463338970916     1.007825032230
         H            0.380830572814    -1.141500200866    -0.325441970916     1.007825032230
         H           -2.004309727186    -1.240602600866    -0.724021470916     1.007825032230
         H           -1.168080427186     1.501062799134     0.303981029084     1.007825032230
         H           -4.528794427186    -1.452260200866     0.300814029084     1.007825032230
         H           -5.488591427186     0.016704799134     0.528565029084     1.007825032230
         H           -4.097556427186    -0.309472200866     1.579027029084     1.007825032230
         H            3.599583572814    -1.683879200866    -0.006842970916     1.007825032230

  Basis Set: AUG-CC-PVTZ
    Blend: AUG-CC-PVTZ
  Basis Set: (AUG-CC-PVTZ AUX)
    Blend: AUG-CC-PVTZ-JKFIT
	 Reference Energy          =    -386.0550412303063013 [Eh]
	 Singles Energy            =      -0.0000000000000000 [Eh]
	 Same-Spin Energy          =      -0.4004153095127593 [Eh]
	 Opposite-Spin Energy      =      -1.3784792191164699 [Eh]
	 Correlation Energy        =      -1.7788945286292290 [Eh]
	 Total Energy              =    -387.8339357589355245 [Eh]

	 ================> DF-SCS-MP2 Energies <==================
	-----------------------------------------------------------
	 SCS Same-Spin Scale       =       0.3333333333333333 [-]
	 SCS Opposite-Spin Scale   =       1.2000000000000000 [-]
	 SCS Same-Spin Energy      =      -0.1334717698375864 [Eh]
	 SCS Opposite-Spin Energy  =      -1.6541750629397638 [Eh]
	 SCS Correlation Energy    =      -1.7876468327773503 [Eh]
	 SCS Total Energy          =    -387.8426880630836422 [Eh]
	-----------------------------------------------------------

  Dipole Moment: [D]
     X:     1.1836      Y:     0.7508      Z:     0.3221     Total:     1.4382

*** Psi4 exiting successfully. Buy a developer a beer!
