                               Psi4 1.3.2 release

  ==> Input File <==

--------------------------------------------------------------------------
#psi4
#
memory 32 gb

molecule  {
0 1
  O        2.6932640    -1.3344870    -0.0264310
  C        2.7508540     0.0254460     0.4069810
  C        1.3569679     0.5671337     0.4037046
  C       -3.5492030     0.3621160    -0.4101590
  C        3.6810391     0.8329671    -0.4926785
  C        0.2704120    -0.1024690    -0.0006590
  C       -2.1631840    -0.2004740    -0.4090490
  C       -1.0635270     0.4697970    -0.0176060
  C       -4.4702810    -0.3835230     0.5583970
  H        3.1361180     0.0688010     1.4404840
  H        1.2655190     1.6118880     0.7253080
  H       -3.5113520     1.4248880    -0.1442750
  H       -3.9713450     0.3050270    -1.4220020
  H        3.3060070     0.7827570    -1.5237190
  H        3.6990520     1.8899320    -0.1870900
  H        4.6948240     0.4527130    -0.4608140
  H        0.3841050    -1.1350190    -0.3229170
  H       -2.0573220    -1.2386810    -0.7303930
  H       -1.1648060     1.5075440     0.3065060
  H       -4.5255200    -1.4457790     0.3033390
  H       -5.4853170     0.0231860     0.5310900
  H       -4.0942820    -0.3029910     1.5815520
  H        3.6028580    -1.6773980    -0.0043180
units angstrom
no_reorient  #important for SAPT in psi4, default
symmetry c1  #important for SAPT in psi4, default
}

set PROPERTIES_ORIGIN ["COM"]
properties('MP2/aug-cc-pvtz', properties = ['dipole'])
--------------------------------------------------------------------------

    Molecular point group: c1
  Charge       = 0
  Multiplicity = 1
  Basis Set: AUG-CC-PVTZ
    Blend: AUG-CC-PVTZ
  Basis Set: (AUG-CC-PVTZ AUX)
    Blend: AUG-CC-PVTZ-JKFIT

    Orbital Energies [Eh]
    ---------------------

    Doubly Occupied:

       1A    -20.558236     2A    -11.286444     3A    -11.226057
       4A    -11.223506     5A    -11.223257     6A    -11.222965
       7A    -11.221332     8A    -11.220744     9A    -11.212851
      10A     -1.360432    11A     -1.098176    12A     -1.061317
      13A     -1.016121    14A     -0.963168    15A     -0.876940
      16A     -0.828997    17A     -0.752456    18A     -0.746909
      19A     -0.695027    20A     -0.637371    21A     -0.628723
      22A     -0.616219    23A     -0.590512    24A     -0.582744
      25A     -0.547226    26A     -0.542507    27A     -0.527076
      28A     -0.518578    29A     -0.499972    30A     -0.492659
      31A     -0.479242    32A     -0.468323    33A     -0.452393
      34A     -0.418725    35A     -0.298330

  @DF-RHF Final Energy:  -386.06250213396061

   => Energetics <=

    Nuclear Repulsion Energy =            418.0150572459014029
    One-Electron Energy =               -1351.9640568588310998
    Two-Electron Energy =                 547.8864974789690905
    Total Energy =                       -386.0625021339606064
  Basis Set: (AUG-CC-PVTZ AUX)
    Blend: AUG-CC-PVTZ-RI
    Molecular point group: c1

    Geometry (in Angstrom), charge = 0, multiplicity = 1:

       Center              X                  Y                   Z               Mass
    ------------   -----------------  -----------------  -----------------  -----------------
         O            2.692652941990    -1.332833817374    -0.027524445749    15.994914619570
         C            2.750242941990     0.027099182626     0.405887554251    12.000000000000
         C            1.356356841990     0.568786882626     0.402611154251    12.000000000000
         C           -3.549814058010     0.363769182626    -0.411252445749    12.000000000000
         C            3.680428041990     0.834620282626    -0.493771945749    12.000000000000
         C            0.269800941990    -0.100815817374    -0.001752445749    12.000000000000
         C           -2.163795058010    -0.198820817374    -0.410142445749    12.000000000000
         C           -1.064138058010     0.471450182626    -0.018699445749    12.000000000000
         C           -4.470892058010    -0.381869817374     0.557303554251    12.000000000000
         H            3.135506941990     0.070454182626     1.439390554251     1.007825032230
         H            1.264907941990     1.613541182626     0.724214554251     1.007825032230
         H           -3.511963058010     1.426541182626    -0.145368445749     1.007825032230
         H           -3.971956058010     0.306680182626    -1.423095445749     1.007825032230
         H            3.305395941990     0.784410182626    -1.524812445749     1.007825032230
         H            3.698440941990     1.891585182626    -0.188183445749     1.007825032230
         H            4.694212941990     0.454366182626    -0.461907445749     1.007825032230
         H            0.383493941990    -1.133365817374    -0.324010445749     1.007825032230
         H           -2.057933058010    -1.237027817374    -0.731486445749     1.007825032230
         H           -1.165417058010     1.509197182626     0.305412554251     1.007825032230
         H           -4.526131058010    -1.444125817374     0.302245554251     1.007825032230
         H           -5.485928058010     0.024839182626     0.529996554251     1.007825032230
         H           -4.094893058010    -0.301337817374     1.580458554251     1.007825032230
         H            3.602246941990    -1.675744817374    -0.005411445749     1.007825032230

  Basis Set: AUG-CC-PVTZ
    Blend: AUG-CC-PVTZ
  Basis Set: (AUG-CC-PVTZ AUX)
    Blend: AUG-CC-PVTZ-JKFIT
	 Reference Energy          =    -386.0625021339606064 [Eh]
	 Singles Energy            =      -0.0000000000000000 [Eh]
	 Same-Spin Energy          =      -0.4002810061493323 [Eh]
	 Opposite-Spin Energy      =      -1.3781834778301985 [Eh]
	 Correlation Energy        =      -1.7784644839795307 [Eh]
	 Total Energy              =    -387.8409666179401256 [Eh]

	 ================> DF-SCS-MP2 Energies <==================
	-----------------------------------------------------------
	 SCS Same-Spin Scale       =       0.3333333333333333 [-]
	 SCS Opposite-Spin Scale   =       1.2000000000000000 [-]
	 SCS Same-Spin Energy      =      -0.1334270020497774 [Eh]
	 SCS Opposite-Spin Energy  =      -1.6538201733962381 [Eh]
	 SCS Correlation Energy    =      -1.7872471754460155 [Eh]
	 SCS Total Energy          =    -387.8497493094066044 [Eh]
	-----------------------------------------------------------

  Dipole Moment: [D]
     X:     1.2060      Y:     0.7264      Z:     0.2957     Total:     1.4386

*** Psi4 exiting successfully. Buy a developer a beer!
