                               Psi4 1.4a3.dev225

  ==> Input File <==

--------------------------------------------------------------------------
#psi4
#
memory 32 gb

molecule  {
0 1
  O       -2.7161510     1.3794200    -0.1343610
  C       -2.7841776     0.0538465     0.4482353
  C       -1.3979030    -0.4954620     0.4743180
  C        3.5083460    -0.4405980    -0.4123350
  C       -3.7239960    -0.8239440    -0.3625680
  C       -0.3030690     0.1219220    -0.0067100
  C        2.1282810     0.1394430    -0.4544070
  C        1.0245920    -0.4684390     0.0236420
  C        4.4606410     0.4027870     0.4416180
  H       -3.1581590     0.1412460     1.4762970
  H       -1.3112260    -1.4900120     0.9147240
  H        3.4619600    -1.4629760    -0.0187660
  H        3.9104550    -0.5133060    -1.4317100
  H       -3.3684670    -0.8811940    -1.3941910
  H       -3.7626400    -1.8335820     0.0574350
  H       -4.7426360    -0.4191700    -0.3608330
  H       -0.4078810     1.1149080    -0.4388390
  H        2.0311270     1.1370710    -0.8883280
  H        1.1170930    -1.4649260     0.4609700
  H        4.5263310     1.4251690     0.0574090
  H        5.4690900    -0.0219830     0.4454750
  H        4.1044230     0.4539160     1.4740500
  H       -3.6221830     1.7324190    -0.1413340
units angstrom
no_reorient  #important for SAPT in psi4, default
symmetry c1  #important for SAPT in psi4, default
}

set PROPERTIES_ORIGIN ["COM"]
properties('MP2/aug-cc-pvtz', properties = ['dipole'])
--------------------------------------------------------------------------

    Molecular point group: c1
  Charge       = 0
  Multiplicity = 1
  Basis Set: AUG-CC-PVTZ
    Blend: AUG-CC-PVTZ
  Basis Set: (AUG-CC-PVTZ AUX)
    Blend: AUG-CC-PVTZ-JKFIT

    Orbital Energies [Eh]
    ---------------------

    Doubly Occupied:

       1A    -20.556219     2A    -11.286889     3A    -11.226901
       4A    -11.224792     5A    -11.224027     6A    -11.223835
       7A    -11.222810     8A    -11.221391     9A    -11.213309
      10A     -1.352067    11A     -1.097577    12A     -1.061828
      13A     -1.017047    14A     -0.962750    15A     -0.877093
      16A     -0.828724    17A     -0.752631    18A     -0.746937
      19A     -0.692800    20A     -0.635450    21A     -0.627917
      22A     -0.614631    23A     -0.589500    24A     -0.582362
      25A     -0.545910    26A     -0.544850    27A     -0.525723
      28A     -0.518480    29A     -0.500030    30A     -0.492535
      31A     -0.479665    32A     -0.469126    33A     -0.453557
      34A     -0.418753    35A     -0.297872

  @DF-RHF Final Energy:  -386.06159900029093

   => Energetics <=

    Nuclear Repulsion Energy =            417.3751949935648327
    One-Electron Energy =               -1350.7016148495824837
    Two-Electron Energy =                 547.2648208557267253
    Total Energy =                       -386.0615990002909257
  Basis Set: (AUG-CC-PVTZ AUX)
    Blend: AUG-CC-PVTZ-RI
    Molecular point group: c1

    Geometry (in Angstrom), charge = 0, multiplicity = 1:

       Center              X                  Y                   Z               Mass
    ------------   -----------------  -----------------  -----------------  -----------------
         O           -2.682754019339     1.364831649620    -0.133460536982    15.994914619570
         C           -2.750780619339     0.039258149620     0.449135763018    12.000000000000
         C           -1.364506019339    -0.510050350380     0.475218463018    12.000000000000
         C            3.541742980661    -0.455186350380    -0.411434536982    12.000000000000
         C           -3.690599019339    -0.838532350380    -0.361667536982    12.000000000000
         C           -0.269672019339     0.107333649620    -0.005809536982    12.000000000000
         C            2.161677980661     0.124854649620    -0.453506536982    12.000000000000
         C            1.057988980661    -0.483027350380     0.024542463018    12.000000000000
         C            4.494037980661     0.388198649620     0.442518463018    12.000000000000
         H           -3.124762019339     0.126657649620     1.477197463018     1.007825032230
         H           -1.277829019339    -1.504600350380     0.915624463018     1.007825032230
         H            3.495356980661    -1.477564350380    -0.017865536982     1.007825032230
         H            3.943851980661    -0.527894350380    -1.430809536982     1.007825032230
         H           -3.335070019339    -0.895782350380    -1.393290536982     1.007825032230
         H           -3.729243019339    -1.848170350380     0.058335463018     1.007825032230
         H           -4.709239019339    -0.433758350380    -0.359932536982     1.007825032230
         H           -0.374484019339     1.100319649620    -0.437938536982     1.007825032230
         H            2.064523980661     1.122482649620    -0.887427536982     1.007825032230
         H            1.150489980661    -1.479514350380     0.461870463018     1.007825032230
         H            4.559727980661     1.410580649620     0.058309463018     1.007825032230
         H            5.502486980661    -0.036571350380     0.446375463018     1.007825032230
         H            4.137819980661     0.439327649620     1.474950463018     1.007825032230
         H           -3.588786019339     1.717830649620    -0.140433536982     1.007825032230

  Basis Set: AUG-CC-PVTZ
    Blend: AUG-CC-PVTZ
  Basis Set: (AUG-CC-PVTZ AUX)
    Blend: AUG-CC-PVTZ-JKFIT
	 Reference Energy          =    -386.0615990002909257 [Eh]
	 Singles Energy            =      -0.0000000000000000 [Eh]
	 Same-Spin Energy          =      -0.4003483458571975 [Eh]
	 Opposite-Spin Energy      =      -1.3787917349874856 [Eh]
	 Correlation Energy        =      -1.7791400808446831 [Eh]
	 Total Energy              =    -387.8407390811356095 [Eh]

	 ================> DF-SCS-MP2 Energies <==================
	-----------------------------------------------------------
	 SCS Same-Spin Scale       =       0.3333333333333333 [-]
	 SCS Opposite-Spin Scale   =       1.2000000000000000 [-]
	 SCS Same-Spin Energy      =      -0.1334494486190658 [Eh]
	 SCS Opposite-Spin Energy  =      -1.6545500819849828 [Eh]
	 SCS Correlation Energy    =      -1.7879995306040486 [Eh]
	 SCS Total Energy          =    -387.8495985308949798 [Eh]
	-----------------------------------------------------------

  Dipole Moment: [D]
     X:    -1.1905      Y:    -0.7487      Z:     0.4075     Total:     1.4642

*** Psi4 exiting successfully. Buy a developer a beer!
