                               Psi4 1.4a3.dev225

  ==> Input File <==

--------------------------------------------------------------------------
#psi4
#
memory 32 gb

molecule  {
0 1
  O       -2.7161510     1.3794200    -0.1343610
  C       -2.7832390     0.0721360     0.4401970
  C       -1.3979030    -0.4954620     0.4743180
  C        3.5083460    -0.4405980    -0.4123350
  C       -3.7239960    -0.8239440    -0.3625680
  C       -0.3030690     0.1219220    -0.0067100
  C        2.1282810     0.1394430    -0.4544070
  C        1.0245920    -0.4684390     0.0236420
  C        4.4606410     0.4027870     0.4416180
  H       -3.1581590     0.1412460     1.4762970
  H       -1.3112260    -1.4900120     0.9147240
  H        3.4619600    -1.4629760    -0.0187660
  H        3.9104550    -0.5133060    -1.4317100
  H       -3.3684670    -0.8811940    -1.3941910
  H       -3.7626400    -1.8335820     0.0574350
  H       -4.7426360    -0.4191700    -0.3608330
  H       -0.4078810     1.1149080    -0.4388390
  H        2.0266795     1.1827399    -0.9081918
  H        1.1170930    -1.4649260     0.4609700
  H        4.5263310     1.4251690     0.0574090
  H        5.4690900    -0.0219830     0.4454750
  H        4.1044230     0.4539160     1.4740500
  H       -3.6221830     1.7324190    -0.1413340
units angstrom
no_reorient  #important for SAPT in psi4, default
symmetry c1  #important for SAPT in psi4, default
}

set PROPERTIES_ORIGIN ["COM"]
properties('MP2/aug-cc-pvtz', properties = ['dipole'])
--------------------------------------------------------------------------

    Molecular point group: c1
  Charge       = 0
  Multiplicity = 1
  Basis Set: AUG-CC-PVTZ
    Blend: AUG-CC-PVTZ
  Basis Set: (AUG-CC-PVTZ AUX)
    Blend: AUG-CC-PVTZ-JKFIT

    Orbital Energies [Eh]
    ---------------------

    Doubly Occupied:

       1A    -20.558812     2A    -11.287059     3A    -11.232208
       4A    -11.224726     5A    -11.224413     6A    -11.224026
       7A    -11.222526     8A    -11.220959     9A    -11.213219
      10A     -1.360137    11A     -1.096587    12A     -1.060393
      13A     -1.015749    14A     -0.961637    15A     -0.876111
      16A     -0.828602    17A     -0.748786    18A     -0.745826
      19A     -0.694064    20A     -0.636225    21A     -0.626892
      22A     -0.616421    23A     -0.589633    24A     -0.582501
      25A     -0.546094    26A     -0.542048    27A     -0.525864
      28A     -0.518600    29A     -0.500906    30A     -0.492402
      31A     -0.477754    32A     -0.467243    33A     -0.452862
      34A     -0.418094    35A     -0.297602

  @DF-RHF Final Energy:  -386.06001434115041

   => Energetics <=

    Nuclear Repulsion Energy =            417.2836511819253360
    One-Electron Energy =               -1350.5133652430145048
    Two-Electron Energy =                 547.1696997199387624
    Total Energy =                       -386.0600143411504632
  Basis Set: (AUG-CC-PVTZ AUX)
    Blend: AUG-CC-PVTZ-RI
    Molecular point group: c1

    Geometry (in Angstrom), charge = 0, multiplicity = 1:

       Center              X                  Y                   Z               Mass
    ------------   -----------------  -----------------  -----------------  -----------------
         O           -2.682807791410     1.362726250256    -0.132536867588    15.994914619570
         C           -2.749895791410     0.055442250256     0.442021132412    12.000000000000
         C           -1.364559791410    -0.512155749744     0.476142132412    12.000000000000
         C            3.541689208590    -0.457291749744    -0.410510867588    12.000000000000
         C           -3.690652791410    -0.840637749744    -0.360743867588    12.000000000000
         C           -0.269725791410     0.105228250256    -0.004885867588    12.000000000000
         C            2.161624208590     0.122749250256    -0.452582867588    12.000000000000
         C            1.057935208590    -0.485132749744     0.025466132412    12.000000000000
         C            4.493984208590     0.386093250256     0.443442132412    12.000000000000
         H           -3.124815791410     0.124552250256     1.478121132412     1.007825032230
         H           -1.277882791410    -1.506705749744     0.916548132412     1.007825032230
         H            3.495303208590    -1.479669749744    -0.016941867588     1.007825032230
         H            3.943798208590    -0.529999749744    -1.429885867588     1.007825032230
         H           -3.335123791410    -0.897887749744    -1.392366867588     1.007825032230
         H           -3.729296791410    -1.850275749744     0.059259132412     1.007825032230
         H           -4.709292791410    -0.435863749744    -0.359008867588     1.007825032230
         H           -0.374537791410     1.098214250256    -0.437014867588     1.007825032230
         H            2.060022708590     1.166046150256    -0.906367667588     1.007825032230
         H            1.150436208590    -1.481619749744     0.462794132412     1.007825032230
         H            4.559674208590     1.408475250256     0.059233132412     1.007825032230
         H            5.502433208590    -0.038676749744     0.447299132412     1.007825032230
         H            4.137766208590     0.437222250256     1.475874132412     1.007825032230
         H           -3.588839791410     1.715725250256    -0.139509867588     1.007825032230

  Basis Set: AUG-CC-PVTZ
    Blend: AUG-CC-PVTZ
  Basis Set: (AUG-CC-PVTZ AUX)
    Blend: AUG-CC-PVTZ-JKFIT
	 Reference Energy          =    -386.0600143411504064 [Eh]
	 Singles Energy            =      -0.0000000000000000 [Eh]
	 Same-Spin Energy          =      -0.4003745184090918 [Eh]
	 Opposite-Spin Energy      =      -1.3788136040116599 [Eh]
	 Correlation Energy        =      -1.7791881224207517 [Eh]
	 Total Energy              =    -387.8392024635711550 [Eh]

	 ================> DF-SCS-MP2 Energies <==================
	-----------------------------------------------------------
	 SCS Same-Spin Scale       =       0.3333333333333333 [-]
	 SCS Opposite-Spin Scale   =       1.2000000000000000 [-]
	 SCS Same-Spin Energy      =      -0.1334581728030306 [Eh]
	 SCS Opposite-Spin Energy  =      -1.6545763248139918 [Eh]
	 SCS Correlation Energy    =      -1.7880344976170224 [Eh]
	 SCS Total Energy          =    -387.8480488387674541 [Eh]
	-----------------------------------------------------------

  Dipole Moment: [D]
     X:    -1.2014      Y:    -0.7098      Z:     0.4014     Total:     1.4520

*** Psi4 exiting successfully. Buy a developer a beer!
