                               Psi4 1.3.2 release

  ==> Input File <==

--------------------------------------------------------------------------
#psi4
#
memory 32 gb

molecule  {
0 1
  O        2.6932640    -1.3344870    -0.0264310
  C        2.7463078     0.0140384     0.4025644
  C        1.3606810     0.5764810     0.3953890
  C       -3.5492030     0.3621160    -0.4101590
  C        3.6709050     0.8409920    -0.4958550
  C        0.2704120    -0.1024690    -0.0006590
  C       -2.1631840    -0.2004740    -0.4090490
  C       -1.0635270     0.4697970    -0.0176060
  C       -4.4702810    -0.3835230     0.5583970
  H        3.1361180     0.0688010     1.4404840
  H        1.2561225     1.6114457     0.7238484
  H       -3.5113520     1.4248880    -0.1442750
  H       -3.9713450     0.3050270    -1.4220020
  H        3.3060070     0.7827570    -1.5237190
  H        3.6990520     1.8899320    -0.1870900
  H        4.6948240     0.4527130    -0.4608140
  H        0.3841050    -1.1350190    -0.3229170
  H       -2.0573220    -1.2386810    -0.7303930
  H       -1.1648060     1.5075440     0.3065060
  H       -4.5255200    -1.4457790     0.3033390
  H       -5.4853170     0.0231860     0.5310900
  H       -4.0942820    -0.3029910     1.5815520
  H        3.6028580    -1.6773980    -0.0043180
units angstrom
no_reorient  #important for SAPT in psi4, default
symmetry c1  #important for SAPT in psi4, default
}

set PROPERTIES_ORIGIN ["COM"]
properties('MP2/aug-cc-pvtz', properties = ['dipole'])
--------------------------------------------------------------------------

    Molecular point group: c1
  Charge       = 0
  Multiplicity = 1
  Basis Set: AUG-CC-PVTZ
    Blend: AUG-CC-PVTZ
  Basis Set: (AUG-CC-PVTZ AUX)
    Blend: AUG-CC-PVTZ-JKFIT

    Orbital Energies [Eh]
    ---------------------

    Doubly Occupied:

       1A    -20.560235     2A    -11.286868     3A    -11.225744
       4A    -11.223372     5A    -11.223113     6A    -11.222814
       7A    -11.221382     8A    -11.220292     9A    -11.212728
      10A     -1.365724    11A     -1.097738    12A     -1.060855
      13A     -1.015070    14A     -0.962071    15A     -0.876410
      16A     -0.828451    17A     -0.752307    18A     -0.748895
      19A     -0.696327    20A     -0.638569    21A     -0.627543
      22A     -0.617767    23A     -0.590418    24A     -0.583042
      25A     -0.546671    26A     -0.542836    27A     -0.528663
      28A     -0.518681    29A     -0.501230    30A     -0.492102
      31A     -0.478987    32A     -0.467587    33A     -0.452123
      34A     -0.417506    35A     -0.297101

  @DF-RHF Final Energy:  -386.06265770995753

   => Energetics <=

    Nuclear Repulsion Energy =            418.1201301608952576
    One-Electron Energy =               -1352.1631226406291262
    Two-Electron Energy =                 547.9803347697762774
    Total Energy =                       -386.0626577099575343
  Basis Set: (AUG-CC-PVTZ AUX)
    Blend: AUG-CC-PVTZ-RI
    Molecular point group: c1

    Geometry (in Angstrom), charge = 0, multiplicity = 1:

       Center              X                  Y                   Z               Mass
    ------------   -----------------  -----------------  -----------------  -----------------
         O            2.693771668657    -1.333397869082    -0.025998921484    15.994914619570
         C            2.746815468657     0.015127530918     0.402996478516    12.000000000000
         C            1.361188668657     0.577570130918     0.395821078516    12.000000000000
         C           -3.548695331343     0.363205130918    -0.409726921484    12.000000000000
         C            3.671412668657     0.842081130918    -0.495422921484    12.000000000000
         C            0.270919668657    -0.101379869082    -0.000226921484    12.000000000000
         C           -2.162676331343    -0.199384869082    -0.408616921484    12.000000000000
         C           -1.063019331343     0.470886130918    -0.017173921484    12.000000000000
         C           -4.469773331343    -0.382433869082     0.558829078516    12.000000000000
         H            3.136625668657     0.069890130918     1.440916078516     1.007825032230
         H            1.256630168657     1.612534830918     0.724280478516     1.007825032230
         H           -3.510844331343     1.425977130918    -0.143842921484     1.007825032230
         H           -3.970837331343     0.306116130918    -1.421569921484     1.007825032230
         H            3.306514668657     0.783846130918    -1.523286921484     1.007825032230
         H            3.699559668657     1.891021130918    -0.186657921484     1.007825032230
         H            4.695331668657     0.453802130918    -0.460381921484     1.007825032230
         H            0.384612668657    -1.133929869082    -0.322484921484     1.007825032230
         H           -2.056814331343    -1.237591869082    -0.729960921484     1.007825032230
         H           -1.164298331343     1.508633130918     0.306938078516     1.007825032230
         H           -4.525012331343    -1.444689869082     0.303771078516     1.007825032230
         H           -5.484809331343     0.024275130918     0.531522078516     1.007825032230
         H           -4.093774331343    -0.301901869082     1.581984078516     1.007825032230
         H            3.603365668657    -1.676308869082    -0.003885921484     1.007825032230

  Basis Set: AUG-CC-PVTZ
    Blend: AUG-CC-PVTZ
  Basis Set: (AUG-CC-PVTZ AUX)
    Blend: AUG-CC-PVTZ-JKFIT
	 Reference Energy          =    -386.0626577099575343 [Eh]
	 Singles Energy            =      -0.0000000000000000 [Eh]
	 Same-Spin Energy          =      -0.4003333859533266 [Eh]
	 Opposite-Spin Energy      =      -1.3781052285057112 [Eh]
	 Correlation Energy        =      -1.7784386144590378 [Eh]
	 Total Energy              =    -387.8410963244165828 [Eh]

	 ================> DF-SCS-MP2 Energies <==================
	-----------------------------------------------------------
	 SCS Same-Spin Scale       =       0.3333333333333333 [-]
	 SCS Opposite-Spin Scale   =       1.2000000000000000 [-]
	 SCS Same-Spin Energy      =      -0.1334444619844422 [Eh]
	 SCS Opposite-Spin Energy  =      -1.6537262742068533 [Eh]
	 SCS Correlation Energy    =      -1.7871707361912954 [Eh]
	 SCS Total Energy          =    -387.8498284461488197 [Eh]
	-----------------------------------------------------------

  Dipole Moment: [D]
     X:     1.2092      Y:     0.6880      Z:     0.3020     Total:     1.4236

*** Psi4 exiting successfully. Buy a developer a beer!
