                               Psi4 1.3.2 release

  ==> Input File <==

--------------------------------------------------------------------------
#psi4
#
memory 32 gb

molecule  {
0 1
  O        2.6932640    -1.3344870    -0.0264310
  C        2.7508540     0.0254460     0.4069810
  C        1.3533609     0.5577452     0.4120204
  C       -3.5492030     0.3621160    -0.4101590
  C        3.6911024     0.8248807    -0.4894335
  C        0.2704120    -0.1024690    -0.0006590
  C       -2.1631840    -0.2004740    -0.4090490
  C       -1.0635270     0.4697970    -0.0176060
  C       -4.4702810    -0.3835230     0.5583970
  H        3.1361180     0.0688010     1.4404840
  H        1.2655190     1.6118880     0.7253080
  H       -3.5113520     1.4248880    -0.1442750
  H       -3.9713450     0.3050270    -1.4220020
  H        3.3060070     0.7827570    -1.5237190
  H        3.6990520     1.8899320    -0.1870900
  H        4.6948240     0.4527130    -0.4608140
  H        0.3841050    -1.1350190    -0.3229170
  H       -2.0573220    -1.2386810    -0.7303930
  H       -1.1648060     1.5075440     0.3065060
  H       -4.5255200    -1.4457790     0.3033390
  H       -5.4853170     0.0231860     0.5310900
  H       -4.0942820    -0.3029910     1.5815520
  H        3.6028580    -1.6773980    -0.0043180
units angstrom
no_reorient  #important for SAPT in psi4, default
symmetry c1  #important for SAPT in psi4, default
}

set PROPERTIES_ORIGIN ["COM"]
properties('MP2/aug-cc-pvtz', properties = ['dipole'])
--------------------------------------------------------------------------

    Molecular point group: c1
  Charge       = 0
  Multiplicity = 1
  Basis Set: AUG-CC-PVTZ
    Blend: AUG-CC-PVTZ
  Basis Set: (AUG-CC-PVTZ AUX)
    Blend: AUG-CC-PVTZ-JKFIT

    Orbital Energies [Eh]
    ---------------------

    Doubly Occupied:

       1A    -20.557790     2A    -11.286449     3A    -11.226238
       4A    -11.223547     5A    -11.223316     6A    -11.222915
       7A    -11.221008     8A    -11.220912     9A    -11.212924
      10A     -1.360291    11A     -1.098545    12A     -1.061359
      13A     -1.016129    14A     -0.963887    15A     -0.877322
      16A     -0.829479    17A     -0.752582    18A     -0.745719
      19A     -0.694809    20A     -0.637451    21A     -0.629496
      22A     -0.615882    23A     -0.591148    24A     -0.582670
      25A     -0.548333    26A     -0.541105    27A     -0.526633
      28A     -0.518413    29A     -0.499248    30A     -0.492707
      31A     -0.479364    32A     -0.468599    33A     -0.451841
      34A     -0.419130    35A     -0.299196

  @DF-RHF Final Energy:  -386.06174929855570

   => Energetics <=

    Nuclear Repulsion Energy =            418.0304174731953708
    One-Electron Energy =               -1351.9914582404551311
    Two-Electron Energy =                 547.8992914687040638
    Total Energy =                       -386.0617492985556964
  Basis Set: (AUG-CC-PVTZ AUX)
    Blend: AUG-CC-PVTZ-RI
    Molecular point group: c1

    Geometry (in Angstrom), charge = 0, multiplicity = 1:

       Center              X                  Y                   Z               Mass
    ------------   -----------------  -----------------  -----------------  -----------------
         O            2.692038565648    -1.331170919871    -0.028624562227    15.994914619570
         C            2.749628565648     0.028762080129     0.404787437773    12.000000000000
         C            1.352135465648     0.561061280129     0.409826837773    12.000000000000
         C           -3.550428434352     0.365432080129    -0.412352562227    12.000000000000
         C            3.689876965648     0.828196780129    -0.491627062227    12.000000000000
         C            0.269186565648    -0.099152919871    -0.002852562227    12.000000000000
         C           -2.164409434352    -0.197157919871    -0.411242562227    12.000000000000
         C           -1.064752434352     0.473113080129    -0.019799562227    12.000000000000
         C           -4.471506434352    -0.380206919871     0.556203437773    12.000000000000
         H            3.134892565648     0.072117080129     1.438290437773     1.007825032230
         H            1.264293565648     1.615204080129     0.723114437773     1.007825032230
         H           -3.512577434352     1.428204080129    -0.146468562227     1.007825032230
         H           -3.972570434352     0.308343080129    -1.424195562227     1.007825032230
         H            3.304781565648     0.786073080129    -1.525912562227     1.007825032230
         H            3.697826565648     1.893248080129    -0.189283562227     1.007825032230
         H            4.693598565648     0.456029080129    -0.463007562227     1.007825032230
         H            0.382879565648    -1.131702919871    -0.325110562227     1.007825032230
         H           -2.058547434352    -1.235364919871    -0.732586562227     1.007825032230
         H           -1.166031434352     1.510860080129     0.304312437773     1.007825032230
         H           -4.526745434352    -1.442462919871     0.301145437773     1.007825032230
         H           -5.486542434352     0.026502080129     0.528896437773     1.007825032230
         H           -4.095507434352    -0.299674919871     1.579358437773     1.007825032230
         H            3.601632565648    -1.674081919871    -0.006511562227     1.007825032230

  Basis Set: AUG-CC-PVTZ
    Blend: AUG-CC-PVTZ
  Basis Set: (AUG-CC-PVTZ AUX)
    Blend: AUG-CC-PVTZ-JKFIT
	 Reference Energy          =    -386.0617492985556964 [Eh]
	 Singles Energy            =      -0.0000000000000000 [Eh]
	 Same-Spin Energy          =      -0.4002322609256084 [Eh]
	 Opposite-Spin Energy      =      -1.3780900917741707 [Eh]
	 Correlation Energy        =      -1.7783223526997791 [Eh]
	 Total Energy              =    -387.8400716512554709 [Eh]

	 ================> DF-SCS-MP2 Energies <==================
	-----------------------------------------------------------
	 SCS Same-Spin Scale       =       0.3333333333333333 [-]
	 SCS Opposite-Spin Scale   =       1.2000000000000000 [-]
	 SCS Same-Spin Energy      =      -0.1334107536418694 [Eh]
	 SCS Opposite-Spin Energy  =      -1.6537081101290048 [Eh]
	 SCS Correlation Energy    =      -1.7871188637708741 [Eh]
	 SCS Total Energy          =    -387.8488681623265961 [Eh]
	-----------------------------------------------------------

  Dipole Moment: [D]
     X:     1.2042      Y:     0.7234      Z:     0.2819     Total:     1.4328

*** Psi4 exiting successfully. Buy a developer a beer!
