                               Psi4 1.3.2 release

  ==> Input File <==

--------------------------------------------------------------------------
#psi4
#
memory 32 gb

molecule  {
0 1
  O        2.7404139    -1.3168053    -0.0817242
  C        2.7508540     0.0254460     0.4069810
  C        1.3606810     0.5764810     0.3953890
  C       -3.5492030     0.3621160    -0.4101590
  C        3.6844135     0.7747629    -0.5383828
  C        0.2704120    -0.1024690    -0.0006590
  C       -2.1631840    -0.2004740    -0.4090490
  C       -1.0635270     0.4697970    -0.0176060
  C       -4.4702810    -0.3835230     0.5583970
  H        3.1361180     0.0688010     1.4404840
  H        1.2655190     1.6118880     0.7253080
  H       -3.5113520     1.4248880    -0.1442750
  H       -3.9713450     0.3050270    -1.4220020
  H        3.3060070     0.7827570    -1.5237190
  H        3.6990520     1.8899320    -0.1870900
  H        4.6948240     0.4527130    -0.4608140
  H        0.3841050    -1.1350190    -0.3229170
  H       -2.0573220    -1.2386810    -0.7303930
  H       -1.1648060     1.5075440     0.3065060
  H       -4.5255200    -1.4457790     0.3033390
  H       -5.4853170     0.0231860     0.5310900
  H       -4.0942820    -0.3029910     1.5815520
  H        3.6028580    -1.6773980    -0.0043180
units angstrom
no_reorient  #important for SAPT in psi4, default
symmetry c1  #important for SAPT in psi4, default
}

set PROPERTIES_ORIGIN ["COM"]
properties('MP2/aug-cc-pvtz', properties = ['dipole'])
--------------------------------------------------------------------------

    Molecular point group: c1
  Charge       = 0
  Multiplicity = 1
  Basis Set: AUG-CC-PVTZ
    Blend: AUG-CC-PVTZ
  Basis Set: (AUG-CC-PVTZ AUX)
    Blend: AUG-CC-PVTZ-JKFIT

    Orbital Energies [Eh]
    ---------------------

    Doubly Occupied:

       1A    -20.551462     2A    -11.287311     3A    -11.227085
       4A    -11.225341     5A    -11.224203     6A    -11.223914
       7A    -11.223480     8A    -11.218692     9A    -11.213424
      10A     -1.366327    11A     -1.099073    12A     -1.062115
      13A     -1.015823    14A     -0.962960    15A     -0.878305
      16A     -0.830240    17A     -0.753846    18A     -0.751294
      19A     -0.701379    20A     -0.638937    21A     -0.630886
      22A     -0.610684    23A     -0.591560    24A     -0.584153
      25A     -0.558462    26A     -0.541025    27A     -0.522159
      28A     -0.516513    29A     -0.502292    30A     -0.490064
      31A     -0.479873    32A     -0.469807    33A     -0.447743
      34A     -0.418983    35A     -0.298916

  @DF-RHF Final Energy:  -386.05610095816974

   => Energetics <=

    Nuclear Repulsion Energy =            418.1061414400957688
    One-Electron Energy =               -1352.0878226034844829
    Two-Electron Energy =                 547.9255802052189210
    Total Energy =                       -386.0561009581697363
  Basis Set: (AUG-CC-PVTZ AUX)
    Blend: AUG-CC-PVTZ-RI
    Molecular point group: c1

    Geometry (in Angstrom), charge = 0, multiplicity = 1:

       Center              X                  Y                   Z               Mass
    ------------   -----------------  -----------------  -----------------  -----------------
         O            2.733147973549    -1.312745656048    -0.070663842851    15.994914619570
         C            2.743588073549     0.029505643952     0.418041357149    12.000000000000
         C            1.353415073549     0.580540643952     0.406449357149    12.000000000000
         C           -3.556468926451     0.366175643952    -0.399098642851    12.000000000000
         C            3.677147573549     0.778822543952    -0.527322442851    12.000000000000
         C            0.263146073549    -0.098409356048     0.010401357149    12.000000000000
         C           -2.170449926451    -0.196414356048    -0.397988642851    12.000000000000
         C           -1.070792926451     0.473856643952    -0.006545642851    12.000000000000
         C           -4.477546926451    -0.379463356048     0.569457357149    12.000000000000
         H            3.128852073549     0.072860643952     1.451544357149     1.007825032230
         H            1.258253073549     1.615947643952     0.736368357149     1.007825032230
         H           -3.518617926451     1.428947643952    -0.133214642851     1.007825032230
         H           -3.978610926451     0.309086643952    -1.410941642851     1.007825032230
         H            3.298741073549     0.786816643952    -1.512658642851     1.007825032230
         H            3.691786073549     1.893991643952    -0.176029642851     1.007825032230
         H            4.687558073549     0.456772643952    -0.449753642851     1.007825032230
         H            0.376839073549    -1.130959356048    -0.311856642851     1.007825032230
         H           -2.064587926451    -1.234621356048    -0.719332642851     1.007825032230
         H           -1.172071926451     1.511603643952     0.317566357149     1.007825032230
         H           -4.532785926451    -1.441719356048     0.314399357149     1.007825032230
         H           -5.492582926451     0.027245643952     0.542150357149     1.007825032230
         H           -4.101547926451    -0.298931356048     1.592612357149     1.007825032230
         H            3.595592073549    -1.673338356048     0.006742357149     1.007825032230

  Basis Set: AUG-CC-PVTZ
    Blend: AUG-CC-PVTZ
  Basis Set: (AUG-CC-PVTZ AUX)
    Blend: AUG-CC-PVTZ-JKFIT
	 Reference Energy          =    -386.0561009581697363 [Eh]
	 Singles Energy            =      -0.0000000000000000 [Eh]
	 Same-Spin Energy          =      -0.3998655317784438 [Eh]
	 Opposite-Spin Energy      =      -1.3773046221885790 [Eh]
	 Correlation Energy        =      -1.7771701539670226 [Eh]
	 Total Energy              =    -387.8332711121367424 [Eh]

	 ================> DF-SCS-MP2 Energies <==================
	-----------------------------------------------------------
	 SCS Same-Spin Scale       =       0.3333333333333333 [-]
	 SCS Opposite-Spin Scale   =       1.2000000000000000 [-]
	 SCS Same-Spin Energy      =      -0.1332885105928146 [Eh]
	 SCS Opposite-Spin Energy  =      -1.6527655466262947 [Eh]
	 SCS Correlation Energy    =      -1.7860540572191093 [Eh]
	 SCS Total Energy          =    -387.8421550153888688 [Eh]
	-----------------------------------------------------------

  Dipole Moment: [D]
     X:     1.0451      Y:     0.6392      Z:     0.4360     Total:     1.3003

*** Psi4 exiting successfully. Buy a developer a beer!
