                               Psi4 1.3.2 release

  ==> Input File <==

--------------------------------------------------------------------------
#psi4
#
memory 32 gb

molecule  {
0 1
  O        2.6932640    -1.3344870    -0.0264310
  C        2.7463357     0.0141045     0.4023698
  C        1.3606810     0.5764810     0.3953890
  C       -3.5492030     0.3621160    -0.4101590
  C        3.6709050     0.8409920    -0.4958550
  C        0.2771220    -0.1118168    -0.0029322
  C       -2.1631840    -0.2004740    -0.4090490
  C       -1.0635270     0.4697970    -0.0176060
  C       -4.4702810    -0.3835230     0.5583970
  H        3.1361180     0.0688010     1.4404840
  H        1.2655190     1.6118880     0.7253080
  H       -3.5113520     1.4248880    -0.1442750
  H       -3.9713450     0.3050270    -1.4220020
  H        3.3060070     0.7827570    -1.5237190
  H        3.6990520     1.8899320    -0.1870900
  H        4.6948240     0.4527130    -0.4608140
  H        0.3841050    -1.1350190    -0.3229170
  H       -2.0573220    -1.2386810    -0.7303930
  H       -1.1648060     1.5075440     0.3065060
  H       -4.5255200    -1.4457790     0.3033390
  H       -5.4853170     0.0231860     0.5310900
  H       -4.0942820    -0.3029910     1.5815520
  H        3.6028580    -1.6773980    -0.0043180
units angstrom
no_reorient  #important for SAPT in psi4, default
symmetry c1  #important for SAPT in psi4, default
}

set PROPERTIES_ORIGIN ["COM"]
properties('MP2/aug-cc-pvtz', properties = ['dipole'])
--------------------------------------------------------------------------

    Molecular point group: c1
  Charge       = 0
  Multiplicity = 1
  Basis Set: AUG-CC-PVTZ
    Blend: AUG-CC-PVTZ
  Basis Set: (AUG-CC-PVTZ AUX)
    Blend: AUG-CC-PVTZ-JKFIT

    Orbital Energies [Eh]
    ---------------------

    Doubly Occupied:

       1A    -20.560128     2A    -11.286389     3A    -11.225460
       4A    -11.223614     5A    -11.223124     6A    -11.222890
       7A    -11.221526     8A    -11.220213     9A    -11.212594
      10A     -1.365647    11A     -1.096884    12A     -1.060873
      13A     -1.014430    14A     -0.961998    15A     -0.875802
      16A     -0.828245    17A     -0.751425    18A     -0.750389
      19A     -0.696173    20A     -0.638849    21A     -0.626921
      22A     -0.617635    23A     -0.590415    24A     -0.582409
      25A     -0.547021    26A     -0.543108    27A     -0.528524
      28A     -0.518958    29A     -0.503131    30A     -0.492173
      31A     -0.478823    32A     -0.466291    33A     -0.451884
      34A     -0.416417    35A     -0.297683

  @DF-RHF Final Energy:  -386.06271920068690

   => Energetics <=

    Nuclear Repulsion Energy =            418.0724173161530643
    One-Electron Energy =               -1352.0741781668491512
    Two-Electron Energy =                 547.9390416500091305
    Total Energy =                       -386.0627192006869564
  Basis Set: (AUG-CC-PVTZ AUX)
    Blend: AUG-CC-PVTZ-RI
    Molecular point group: c1

    Geometry (in Angstrom), charge = 0, multiplicity = 1:

       Center              X                  Y                   Z               Mass
    ------------   -----------------  -----------------  -----------------  -----------------
         O            2.693055398794    -1.332518164792    -0.025775752712    15.994914619570
         C            2.746127098794     0.016073335208     0.403025047288    12.000000000000
         C            1.360472398794     0.578449835208     0.396044247288    12.000000000000
         C           -3.549411601206     0.364084835208    -0.409503752712    12.000000000000
         C            3.670696398794     0.842960835208    -0.495199752712    12.000000000000
         C            0.276913398794    -0.109847964792    -0.002276952712    12.000000000000
         C           -2.163392601206    -0.198505164792    -0.408393752712    12.000000000000
         C           -1.063735601206     0.471765835208    -0.016950752712    12.000000000000
         C           -4.470489601206    -0.381554164792     0.559052247288    12.000000000000
         H            3.135909398794     0.070769835208     1.441139247288     1.007825032230
         H            1.265310398794     1.613856835208     0.725963247288     1.007825032230
         H           -3.511560601206     1.426856835208    -0.143619752712     1.007825032230
         H           -3.971553601206     0.306995835208    -1.421346752712     1.007825032230
         H            3.305798398794     0.784725835208    -1.523063752712     1.007825032230
         H            3.698843398794     1.891900835208    -0.186434752712     1.007825032230
         H            4.694615398794     0.454681835208    -0.460158752712     1.007825032230
         H            0.383896398794    -1.133050164792    -0.322261752712     1.007825032230
         H           -2.057530601206    -1.236712164792    -0.729737752712     1.007825032230
         H           -1.165014601206     1.509512835208     0.307161247288     1.007825032230
         H           -4.525728601206    -1.443810164792     0.303994247288     1.007825032230
         H           -5.485525601206     0.025154835208     0.531745247288     1.007825032230
         H           -4.094490601206    -0.301022164792     1.582207247288     1.007825032230
         H            3.602649398794    -1.675429164792    -0.003662752712     1.007825032230

  Basis Set: AUG-CC-PVTZ
    Blend: AUG-CC-PVTZ
  Basis Set: (AUG-CC-PVTZ AUX)
    Blend: AUG-CC-PVTZ-JKFIT
	 Reference Energy          =    -386.0627192006868995 [Eh]
	 Singles Energy            =      -0.0000000000000000 [Eh]
	 Same-Spin Energy          =      -0.4001931140644526 [Eh]
	 Opposite-Spin Energy      =      -1.3779816216972220 [Eh]
	 Correlation Energy        =      -1.7781747357616746 [Eh]
	 Total Energy              =    -387.8408939364485946 [Eh]

	 ================> DF-SCS-MP2 Energies <==================
	-----------------------------------------------------------
	 SCS Same-Spin Scale       =       0.3333333333333333 [-]
	 SCS Opposite-Spin Scale   =       1.2000000000000000 [-]
	 SCS Same-Spin Energy      =      -0.1333977046881509 [Eh]
	 SCS Opposite-Spin Energy  =      -1.6535779460366664 [Eh]
	 SCS Correlation Energy    =      -1.7869756507248173 [Eh]
	 SCS Total Energy          =    -387.8496948514116980 [Eh]
	-----------------------------------------------------------

  Dipole Moment: [D]
     X:     1.2161      Y:     0.6891      Z:     0.3035     Total:     1.4303

*** Psi4 exiting successfully. Buy a developer a beer!
