                               Psi4 1.3.2 release

  ==> Input File <==

--------------------------------------------------------------------------
#psi4
#
memory 32 gb

molecule  {
0 1
  O        2.6932640    -1.3344870    -0.0264310
  C        2.7508540     0.0254460     0.4069810
  C        1.3606810     0.5764810     0.3953890
  C       -3.5492030     0.3621160    -0.4101590
  C        3.6709050     0.8409920    -0.4958550
  C        0.2657157    -0.1134042    -0.0049990
  C       -2.1565866    -0.2099592    -0.4111648
  C       -1.0635270     0.4697970    -0.0176060
  C       -4.4702810    -0.3835230     0.5583970
  H        3.1361180     0.0688010     1.4404840
  H        1.2655190     1.6118880     0.7253080
  H       -3.5113520     1.4248880    -0.1442750
  H       -3.9713450     0.3050270    -1.4220020
  H        3.3060070     0.7827570    -1.5237190
  H        3.6990520     1.8899320    -0.1870900
  H        4.6948240     0.4527130    -0.4608140
  H        0.3841050    -1.1350190    -0.3229170
  H       -2.0573220    -1.2386810    -0.7303930
  H       -1.1648060     1.5075440     0.3065060
  H       -4.5255200    -1.4457790     0.3033390
  H       -5.4853170     0.0231860     0.5310900
  H       -4.0942820    -0.3029910     1.5815520
  H        3.6028580    -1.6773980    -0.0043180
units angstrom
no_reorient  #important for SAPT in psi4, default
symmetry c1  #important for SAPT in psi4, default
}

set PROPERTIES_ORIGIN ["COM"]
properties('MP2/aug-cc-pvtz', properties = ['dipole'])
--------------------------------------------------------------------------

    Molecular point group: c1
  Charge       = 0
  Multiplicity = 1
  Basis Set: AUG-CC-PVTZ
    Blend: AUG-CC-PVTZ
  Basis Set: (AUG-CC-PVTZ AUX)
    Blend: AUG-CC-PVTZ-JKFIT

    Orbital Energies [Eh]
    ---------------------

    Doubly Occupied:

       1A    -20.558653     2A    -11.286228     3A    -11.225327
       4A    -11.224340     5A    -11.223475     6A    -11.223188
       7A    -11.222443     8A    -11.220412     9A    -11.212487
      10A     -1.360524    11A     -1.096966    12A     -1.059726
      13A     -1.015850    14A     -0.961458    15A     -0.875997
      16A     -0.827405    17A     -0.753680    18A     -0.749493
      19A     -0.695361    20A     -0.637718    21A     -0.626631
      22A     -0.616536    23A     -0.589551    24A     -0.581969
      25A     -0.546955    26A     -0.544246    27A     -0.528117
      28A     -0.517820    29A     -0.502416    30A     -0.492065
      31A     -0.480142    32A     -0.466920    33A     -0.452638
      34A     -0.417704    35A     -0.295882

  @DF-RHF Final Energy:  -386.06194151660299

   => Energetics <=

    Nuclear Repulsion Energy =            417.8587660307461533
    One-Electron Energy =               -1351.6607679088403984
    Two-Electron Energy =                 547.7400603614912598
    Total Energy =                       -386.0619415166029285
  Basis Set: (AUG-CC-PVTZ AUX)
    Blend: AUG-CC-PVTZ-RI
    Molecular point group: c1

    Geometry (in Angstrom), charge = 0, multiplicity = 1:

       Center              X                  Y                   Z               Mass
    ------------   -----------------  -----------------  -----------------  -----------------
         O            2.693083052058    -1.332543753100    -0.025816537945    15.994914619570
         C            2.750673052058     0.027389246900     0.407595462055    12.000000000000
         C            1.360500052058     0.578424246900     0.396003462055    12.000000000000
         C           -3.549383947942     0.364059246900    -0.409544537945    12.000000000000
         C            3.670724052058     0.842935246900    -0.495240537945    12.000000000000
         C            0.265534752058    -0.111460953100    -0.004384537945    12.000000000000
         C           -2.156767547942    -0.208015953100    -0.410550337945    12.000000000000
         C           -1.063707947942     0.471740246900    -0.016991537945    12.000000000000
         C           -4.470461947942    -0.381579753100     0.559011462055    12.000000000000
         H            3.135937052058     0.070744246900     1.441098462055     1.007825032230
         H            1.265338052058     1.613831246900     0.725922462055     1.007825032230
         H           -3.511532947942     1.426831246900    -0.143660537945     1.007825032230
         H           -3.971525947942     0.306970246900    -1.421387537945     1.007825032230
         H            3.305826052058     0.784700246900    -1.523104537945     1.007825032230
         H            3.698871052058     1.891875246900    -0.186475537945     1.007825032230
         H            4.694643052058     0.454656246900    -0.460199537945     1.007825032230
         H            0.383924052058    -1.133075753100    -0.322302537945     1.007825032230
         H           -2.057502947942    -1.236737753100    -0.729778537945     1.007825032230
         H           -1.164986947942     1.509487246900     0.307120462055     1.007825032230
         H           -4.525700947942    -1.443835753100     0.303953462055     1.007825032230
         H           -5.485497947942     0.025129246900     0.531704462055     1.007825032230
         H           -4.094462947942    -0.301047753100     1.582166462055     1.007825032230
         H            3.602677052058    -1.675454753100    -0.003703537945     1.007825032230

  Basis Set: AUG-CC-PVTZ
    Blend: AUG-CC-PVTZ
  Basis Set: (AUG-CC-PVTZ AUX)
    Blend: AUG-CC-PVTZ-JKFIT
	 Reference Energy          =    -386.0619415166029853 [Eh]
	 Singles Energy            =      -0.0000000000000000 [Eh]
	 Same-Spin Energy          =      -0.4003518100960964 [Eh]
	 Opposite-Spin Energy      =      -1.3784893136019196 [Eh]
	 Correlation Energy        =      -1.7788411236980162 [Eh]
	 Total Energy              =    -387.8407826403010290 [Eh]

	 ================> DF-SCS-MP2 Energies <==================
	-----------------------------------------------------------
	 SCS Same-Spin Scale       =       0.3333333333333333 [-]
	 SCS Opposite-Spin Scale   =       1.2000000000000000 [-]
	 SCS Same-Spin Energy      =      -0.1334506033653655 [Eh]
	 SCS Opposite-Spin Energy  =      -1.6541871763223035 [Eh]
	 SCS Correlation Energy    =      -1.7876377796876690 [Eh]
	 SCS Total Energy          =    -387.8495792962906421 [Eh]
	-----------------------------------------------------------

  Dipole Moment: [D]
     X:     1.2124      Y:     0.7245      Z:     0.3079     Total:     1.4456

*** Psi4 exiting successfully. Buy a developer a beer!
