                               Psi4 1.4a3.dev225

  ==> Input File <==

--------------------------------------------------------------------------
#psi4
#
memory 32 gb

molecule  {
0 1
  O       -2.7161510     1.3794200    -0.1343610
  C       -2.7832390     0.0721360     0.4401970
  C       -1.3794009    -0.5030426     0.4747737
  C        3.5083460    -0.4405980    -0.4123350
  C       -3.7239960    -0.8239440    -0.3625680
  C       -0.3030690     0.1219220    -0.0067100
  C        2.1282810     0.1394430    -0.4544070
  C        1.0245920    -0.4684390     0.0236420
  C        4.4606410     0.4027870     0.4416180
  H       -3.1581590     0.1412460     1.4762970
  H       -1.3112260    -1.4900120     0.9147240
  H        3.4619600    -1.4629760    -0.0187660
  H        3.9104550    -0.5133060    -1.4317100
  H       -3.3684670    -0.8811940    -1.3941910
  H       -3.7626400    -1.8335820     0.0574350
  H       -4.7426360    -0.4191700    -0.3608330
  H       -0.4078810     1.1149080    -0.4388390
  H        2.0311270     1.1370710    -0.8883280
  H        1.1170930    -1.4649260     0.4609700
  H        4.5263310     1.4251690     0.0574090
  H        5.4690900    -0.0219830     0.4454750
  H        4.1044230     0.4539160     1.4740500
  H       -3.6221830     1.7324190    -0.1413340
units angstrom
no_reorient  #important for SAPT in psi4, default
symmetry c1  #important for SAPT in psi4, default
}

set PROPERTIES_ORIGIN ["COM"]
properties('MP2/aug-cc-pvtz', properties = ['dipole'])
--------------------------------------------------------------------------

    Molecular point group: c1
  Charge       = 0
  Multiplicity = 1
  Basis Set: AUG-CC-PVTZ
    Blend: AUG-CC-PVTZ
  Basis Set: (AUG-CC-PVTZ AUX)
    Blend: AUG-CC-PVTZ-JKFIT

    Orbital Energies [Eh]
    ---------------------

    Doubly Occupied:

       1A    -20.558708     2A    -11.287696     3A    -11.226083
       4A    -11.223592     5A    -11.223372     6A    -11.222764
       7A    -11.221080     8A    -11.220724     9A    -11.213004
      10A     -1.359632    11A     -1.097622    12A     -1.059797
      13A     -1.015028    14A     -0.962681    15A     -0.874685
      16A     -0.827978    17A     -0.752233    18A     -0.749113
      19A     -0.693916    20A     -0.636716    21A     -0.627637
      22A     -0.615992    23A     -0.589416    24A     -0.583450
      25A     -0.547192    26A     -0.543993    27A     -0.526666
      28A     -0.518389    29A     -0.501715    30A     -0.491703
      31A     -0.478892    32A     -0.465019    33A     -0.452310
      34A     -0.419263    35A     -0.298891

  @DF-RHF Final Energy:  -386.06267036771749

   => Energetics <=

    Nuclear Repulsion Energy =            417.4437602048044482
    One-Electron Energy =               -1350.8389606692539928
    Two-Electron Energy =                 547.3325300967320572
    Total Energy =                       -386.0626703677174874
  Basis Set: (AUG-CC-PVTZ AUX)
    Blend: AUG-CC-PVTZ-RI
    Molecular point group: c1

    Geometry (in Angstrom), charge = 0, multiplicity = 1:

       Center              X                  Y                   Z               Mass
    ------------   -----------------  -----------------  -----------------  -----------------
         O           -2.684603980797     1.363812599264    -0.132738982833    15.994914619570
         C           -2.751691980797     0.056528599264     0.441819017167    12.000000000000
         C           -1.347853880797    -0.518650000736     0.476395717167    12.000000000000
         C            3.539893019203    -0.456205400736    -0.410712982833    12.000000000000
         C           -3.692448980797    -0.839551400736    -0.360945982833    12.000000000000
         C           -0.271521980797     0.106314599264    -0.005087982833    12.000000000000
         C            2.159828019203     0.123835599264    -0.452784982833    12.000000000000
         C            1.056139019203    -0.484046400736     0.025264017167    12.000000000000
         C            4.492188019203     0.387179599264     0.443240017167    12.000000000000
         H           -3.126611980797     0.125638599264     1.477919017167     1.007825032230
         H           -1.279678980797    -1.505619400736     0.916346017167     1.007825032230
         H            3.493507019203    -1.478583400736    -0.017143982833     1.007825032230
         H            3.942002019203    -0.528913400736    -1.430087982833     1.007825032230
         H           -3.336919980797    -0.896801400736    -1.392568982833     1.007825032230
         H           -3.731092980797    -1.849189400736     0.059057017167     1.007825032230
         H           -4.711088980797    -0.434777400736    -0.359210982833     1.007825032230
         H           -0.376333980797     1.099300599264    -0.437216982833     1.007825032230
         H            2.062674019203     1.121463599264    -0.886705982833     1.007825032230
         H            1.148640019203    -1.480533400736     0.462592017167     1.007825032230
         H            4.557878019203     1.409561599264     0.059031017167     1.007825032230
         H            5.500637019203    -0.037590400736     0.447097017167     1.007825032230
         H            4.135970019203     0.438308599264     1.475672017167     1.007825032230
         H           -3.590635980797     1.716811599264    -0.139711982833     1.007825032230

  Basis Set: AUG-CC-PVTZ
    Blend: AUG-CC-PVTZ
  Basis Set: (AUG-CC-PVTZ AUX)
    Blend: AUG-CC-PVTZ-JKFIT
	 Reference Energy          =    -386.0626703677174874 [Eh]
	 Singles Energy            =      -0.0000000000000000 [Eh]
	 Same-Spin Energy          =      -0.3999675495051965 [Eh]
	 Opposite-Spin Energy      =      -1.3779766053529694 [Eh]
	 Correlation Energy        =      -1.7779441548581658 [Eh]
	 Total Energy              =    -387.8406145225756632 [Eh]

	 ================> DF-SCS-MP2 Energies <==================
	-----------------------------------------------------------
	 SCS Same-Spin Scale       =       0.3333333333333333 [-]
	 SCS Opposite-Spin Scale   =       1.2000000000000000 [-]
	 SCS Same-Spin Energy      =      -0.1333225165017322 [Eh]
	 SCS Opposite-Spin Energy  =      -1.6535719264235633 [Eh]
	 SCS Correlation Energy    =      -1.7868944429252955 [Eh]
	 SCS Total Energy          =    -387.8495648106427893 [Eh]
	-----------------------------------------------------------

  Dipole Moment: [D]
     X:    -1.2077      Y:    -0.6873      Z:     0.3918     Total:     1.4437

*** Psi4 exiting successfully. Buy a developer a beer!
