                               Psi4 1.3.2 release

  ==> Input File <==

--------------------------------------------------------------------------
#psi4
#
memory 32 gb

molecule  {
0 1
  O        2.6932640    -1.3344870    -0.0264310
  C        2.7508540     0.0254460     0.4069810
  C        1.3606810     0.5764810     0.3953890
  C       -3.5492030     0.3621160    -0.4101590
  C        3.6709050     0.8409920    -0.4958550
  C        0.2704120    -0.1024690    -0.0006590
  C       -2.1562078    -0.1827165    -0.4268699
  C       -1.0635270     0.4697970    -0.0176060
  C       -4.4903455    -0.3673311     0.5514130
  H        3.1361180     0.0688010     1.4404840
  H        1.2655190     1.6118880     0.7253080
  H       -3.5113520     1.4248880    -0.1442750
  H       -3.9713450     0.3050270    -1.4220020
  H        3.3060070     0.7827570    -1.5237190
  H        3.6990520     1.8899320    -0.1870900
  H        4.6948240     0.4527130    -0.4608140
  H        0.3841050    -1.1350190    -0.3229170
  H       -2.0573220    -1.2386810    -0.7303930
  H       -1.1648060     1.5075440     0.3065060
  H       -4.5255200    -1.4457790     0.3033390
  H       -5.4853170     0.0231860     0.5310900
  H       -4.0942820    -0.3029910     1.5815520
  H        3.6028580    -1.6773980    -0.0043180
units angstrom
no_reorient  #important for SAPT in psi4, default
symmetry c1  #important for SAPT in psi4, default
}

set PROPERTIES_ORIGIN ["COM"]
properties('MP2/aug-cc-pvtz', properties = ['dipole'])
--------------------------------------------------------------------------

    Molecular point group: c1
  Charge       = 0
  Multiplicity = 1
  Basis Set: AUG-CC-PVTZ
    Blend: AUG-CC-PVTZ
  Basis Set: (AUG-CC-PVTZ AUX)
    Blend: AUG-CC-PVTZ-JKFIT

    Orbital Energies [Eh]
    ---------------------

    Doubly Occupied:

       1A    -20.558851     2A    -11.286708     3A    -11.225770
       4A    -11.223871     5A    -11.223122     6A    -11.222552
       7A    -11.221922     8A    -11.220733     9A    -11.213360
      10A     -1.360760    11A     -1.098659    12A     -1.061276
      13A     -1.016482    14A     -0.963838    15A     -0.877190
      16A     -0.829371    17A     -0.750307    18A     -0.748274
      19A     -0.695463    20A     -0.637324    21A     -0.627614
      22A     -0.616552    23A     -0.592317    24A     -0.582154
      25A     -0.546574    26A     -0.544636    27A     -0.526953
      28A     -0.519932    29A     -0.501017    30A     -0.491538
      31A     -0.475060    32A     -0.468626    33A     -0.453123
      34A     -0.419320    35A     -0.299130

  @DF-RHF Final Energy:  -386.06173067687928

   => Energetics <=

    Nuclear Repulsion Energy =            417.9412935057126788
    One-Electron Energy =               -1351.8052896762749242
    Two-Electron Energy =                 547.8022654936829667
    Total Energy =                       -386.0617306768792787
  Basis Set: (AUG-CC-PVTZ AUX)
    Blend: AUG-CC-PVTZ-RI
    Molecular point group: c1

    Geometry (in Angstrom), charge = 0, multiplicity = 1:

       Center              X                  Y                   Z               Mass
    ------------   -----------------  -----------------  -----------------  -----------------
         O            2.694509431369    -1.337717539767    -0.024070452270    15.994914619570
         C            2.752099431369     0.022215460233     0.409341547730    12.000000000000
         C            1.361926431369     0.573250460233     0.397749547730    12.000000000000
         C           -3.547957568631     0.358885460233    -0.407798452270    12.000000000000
         C            3.672150431369     0.837761460233    -0.493494452270    12.000000000000
         C            0.271657431369    -0.105699539767     0.001701547730    12.000000000000
         C           -2.154962368631    -0.185947039767    -0.424509352270    12.000000000000
         C           -1.062281568631     0.466566460233    -0.015245452270    12.000000000000
         C           -4.489100068631    -0.370561639767     0.553773547730    12.000000000000
         H            3.137363431369     0.065570460233     1.442844547730     1.007825032230
         H            1.266764431369     1.608657460233     0.727668547730     1.007825032230
         H           -3.510106568631     1.421657460233    -0.141914452270     1.007825032230
         H           -3.970099568631     0.301796460233    -1.419641452270     1.007825032230
         H            3.307252431369     0.779526460233    -1.521358452270     1.007825032230
         H            3.700297431369     1.886701460233    -0.184729452270     1.007825032230
         H            4.696069431369     0.449482460233    -0.458453452270     1.007825032230
         H            0.385350431369    -1.138249539767    -0.320556452270     1.007825032230
         H           -2.056076568631    -1.241911539767    -0.728032452270     1.007825032230
         H           -1.163560568631     1.504313460233     0.308866547730     1.007825032230
         H           -4.524274568631    -1.449009539767     0.305699547730     1.007825032230
         H           -5.484071568631     0.019955460233     0.533450547730     1.007825032230
         H           -4.093036568631    -0.306221539767     1.583912547730     1.007825032230
         H            3.604103431369    -1.680628539767    -0.001957452270     1.007825032230

  Basis Set: AUG-CC-PVTZ
    Blend: AUG-CC-PVTZ
  Basis Set: (AUG-CC-PVTZ AUX)
    Blend: AUG-CC-PVTZ-JKFIT
	 Reference Energy          =    -386.0617306768792787 [Eh]
	 Singles Energy            =      -0.0000000000000000 [Eh]
	 Same-Spin Energy          =      -0.4002548710342057 [Eh]
	 Opposite-Spin Energy      =      -1.3781378956496129 [Eh]
	 Correlation Energy        =      -1.7783927666838184 [Eh]
	 Total Energy              =    -387.8401234435630727 [Eh]

	 ================> DF-SCS-MP2 Energies <==================
	-----------------------------------------------------------
	 SCS Same-Spin Scale       =       0.3333333333333333 [-]
	 SCS Opposite-Spin Scale   =       1.2000000000000000 [-]
	 SCS Same-Spin Energy      =      -0.1334182903447352 [Eh]
	 SCS Opposite-Spin Energy  =      -1.6537654747795354 [Eh]
	 SCS Correlation Energy    =      -1.7871837651242706 [Eh]
	 SCS Total Energy          =    -387.8489144420035473 [Eh]
	-----------------------------------------------------------

  Dipole Moment: [D]
     X:     1.2140      Y:     0.7351      Z:     0.3364     Total:     1.4586

*** Psi4 exiting successfully. Buy a developer a beer!
