                               Psi4 1.3.2 release

  ==> Input File <==

--------------------------------------------------------------------------
#psi4
#
memory 32 gb

molecule  {
0 1
  O        2.6932640    -1.3344870    -0.0264310
  C        2.7508540     0.0254460     0.4069810
  C        1.3606810     0.5764810     0.3953890
  C       -3.5492030     0.3621160    -0.4101590
  C        3.6709050     0.8409920    -0.4958550
  C        0.2704120    -0.1024690    -0.0006590
  C       -2.1728781    -0.2237642    -0.4157701
  C       -1.0635270     0.4697970    -0.0176060
  C       -4.4702810    -0.3835230     0.5583970
  H        3.1361180     0.0688010     1.4404840
  H        1.2655190     1.6118880     0.7253080
  H       -3.5303862     1.4258168    -0.1459663
  H       -3.9713450     0.3050270    -1.4220020
  H        3.3060070     0.7827570    -1.5237190
  H        3.6990520     1.8899320    -0.1870900
  H        4.6948240     0.4527130    -0.4608140
  H        0.3841050    -1.1350190    -0.3229170
  H       -2.0573220    -1.2386810    -0.7303930
  H       -1.1648060     1.5075440     0.3065060
  H       -4.5255200    -1.4457790     0.3033390
  H       -5.4853170     0.0231860     0.5310900
  H       -4.0942820    -0.3029910     1.5815520
  H        3.6028580    -1.6773980    -0.0043180
units angstrom
no_reorient  #important for SAPT in psi4, default
symmetry c1  #important for SAPT in psi4, default
}

set PROPERTIES_ORIGIN ["COM"]
properties('MP2/aug-cc-pvtz', properties = ['dipole'])
--------------------------------------------------------------------------

    Molecular point group: c1
  Charge       = 0
  Multiplicity = 1
  Basis Set: AUG-CC-PVTZ
    Blend: AUG-CC-PVTZ
  Basis Set: (AUG-CC-PVTZ AUX)
    Blend: AUG-CC-PVTZ-JKFIT

    Orbital Energies [Eh]
    ---------------------

    Doubly Occupied:

       1A    -20.558626     2A    -11.286355     3A    -11.227526
       4A    -11.225998     5A    -11.223211     6A    -11.223190
       7A    -11.221586     8A    -11.220448     9A    -11.212322
      10A     -1.360517    11A     -1.095984    12A     -1.061048
      13A     -1.015574    14A     -0.960449    15A     -0.876582
      16A     -0.827131    17A     -0.757028    18A     -0.747630
      19A     -0.694987    20A     -0.637466    21A     -0.627208
      22A     -0.616589    23A     -0.590388    24A     -0.581586
      25A     -0.547074    26A     -0.544635    27A     -0.528457
      28A     -0.517056    29A     -0.500158    30A     -0.492586
      31A     -0.482018    32A     -0.467794    33A     -0.452775
      34A     -0.416285    35A     -0.294432

  @DF-RHF Final Energy:  -386.06068777427640

   => Energetics <=

    Nuclear Repulsion Energy =            417.7374024033991873
    One-Electron Energy =               -1351.4107781954508027
    Two-Electron Energy =                 547.6126880177752128
    Total Energy =                       -386.0606877742764027
  Basis Set: (AUG-CC-PVTZ AUX)
    Blend: AUG-CC-PVTZ-RI
    Molecular point group: c1

    Geometry (in Angstrom), charge = 0, multiplicity = 1:

       Center              X                  Y                   Z               Mass
    ------------   -----------------  -----------------  -----------------  -----------------
         O            2.694338563059    -1.332278088185    -0.025777775365    15.994914619570
         C            2.751928563059     0.027654911815     0.407634224635    12.000000000000
         C            1.361755563059     0.578689911815     0.396042224635    12.000000000000
         C           -3.548128436941     0.364324911815    -0.409505775365    12.000000000000
         C            3.671979563059     0.843200911815    -0.495201775365    12.000000000000
         C            0.271486563059    -0.100260088185    -0.000005775365    12.000000000000
         C           -2.171803536941    -0.221555288185    -0.415116875365    12.000000000000
         C           -1.062452436941     0.472005911815    -0.016952775365    12.000000000000
         C           -4.469206436941    -0.381314088185     0.559050224635    12.000000000000
         H            3.137192563059     0.071009911815     1.441137224635     1.007825032230
         H            1.266593563059     1.614096911815     0.725961224635     1.007825032230
         H           -3.529311636941     1.428025711815    -0.145313075365     1.007825032230
         H           -3.970270436941     0.307235911815    -1.421348775365     1.007825032230
         H            3.307081563059     0.784965911815    -1.523065775365     1.007825032230
         H            3.700126563059     1.892140911815    -0.186436775365     1.007825032230
         H            4.695898563059     0.454921911815    -0.460160775365     1.007825032230
         H            0.385179563059    -1.132810088185    -0.322263775365     1.007825032230
         H           -2.056247436941    -1.236472088185    -0.729739775365     1.007825032230
         H           -1.163731436941     1.509752911815     0.307159224635     1.007825032230
         H           -4.524445436941    -1.443570088185     0.303992224635     1.007825032230
         H           -5.484242436941     0.025394911815     0.531743224635     1.007825032230
         H           -4.093207436941    -0.300782088185     1.582205224635     1.007825032230
         H            3.603932563059    -1.675189088185    -0.003664775365     1.007825032230

  Basis Set: AUG-CC-PVTZ
    Blend: AUG-CC-PVTZ
  Basis Set: (AUG-CC-PVTZ AUX)
    Blend: AUG-CC-PVTZ-JKFIT
	 Reference Energy          =    -386.0606877742764027 [Eh]
	 Singles Energy            =      -0.0000000000000000 [Eh]
	 Same-Spin Energy          =      -0.4005759206921243 [Eh]
	 Opposite-Spin Energy      =      -1.3788527026496187 [Eh]
	 Correlation Energy        =      -1.7794286233417429 [Eh]
	 Total Energy              =    -387.8401163976181465 [Eh]

	 ================> DF-SCS-MP2 Energies <==================
	-----------------------------------------------------------
	 SCS Same-Spin Scale       =       0.3333333333333333 [-]
	 SCS Opposite-Spin Scale   =       1.2000000000000000 [-]
	 SCS Same-Spin Energy      =      -0.1335253068973748 [Eh]
	 SCS Opposite-Spin Energy  =      -1.6546232431795425 [Eh]
	 SCS Correlation Energy    =      -1.7881485500769172 [Eh]
	 SCS Total Energy          =    -387.8488363243533286 [Eh]
	-----------------------------------------------------------

  Dipole Moment: [D]
     X:     1.2060      Y:     0.7265      Z:     0.3007     Total:     1.4397

*** Psi4 exiting successfully. Buy a developer a beer!
