                               Psi4 1.3.2 release

  ==> Input File <==

--------------------------------------------------------------------------
#psi4
#
memory 32 gb

molecule  {
0 1
  O        2.7246877    -1.3231106    -0.0634345
  C        2.7508540     0.0254460     0.4069810
  C        1.3606810     0.5764810     0.3953890
  C       -3.5492030     0.3621160    -0.4101590
  C        3.6801933     0.7970766    -0.5244892
  C        0.2704120    -0.1024690    -0.0006590
  C       -2.1631840    -0.2004740    -0.4090490
  C       -1.0635270     0.4697970    -0.0176060
  C       -4.4702810    -0.3835230     0.5583970
  H        3.1361180     0.0688010     1.4404840
  H        1.2655190     1.6118880     0.7253080
  H       -3.5113520     1.4248880    -0.1442750
  H       -3.9713450     0.3050270    -1.4220020
  H        3.3060070     0.7827570    -1.5237190
  H        3.6990520     1.8899320    -0.1870900
  H        4.6948240     0.4527130    -0.4608140
  H        0.3841050    -1.1350190    -0.3229170
  H       -2.0573220    -1.2386810    -0.7303930
  H       -1.1648060     1.5075440     0.3065060
  H       -4.5255200    -1.4457790     0.3033390
  H       -5.4853170     0.0231860     0.5310900
  H       -4.0942820    -0.3029910     1.5815520
  H        3.6028580    -1.6773980    -0.0043180
units angstrom
no_reorient  #important for SAPT in psi4, default
symmetry c1  #important for SAPT in psi4, default
}

set PROPERTIES_ORIGIN ["COM"]
properties('MP2/aug-cc-pvtz', properties = ['dipole'])
--------------------------------------------------------------------------

    Molecular point group: c1
  Charge       = 0
  Multiplicity = 1
  Basis Set: AUG-CC-PVTZ
    Blend: AUG-CC-PVTZ
  Basis Set: (AUG-CC-PVTZ AUX)
    Blend: AUG-CC-PVTZ-JKFIT

    Orbital Energies [Eh]
    ---------------------

    Doubly Occupied:

       1A    -20.553714     2A    -11.286912     3A    -11.226677
       4A    -11.224728     5A    -11.223834     6A    -11.223623
       7A    -11.222894     8A    -11.219013     9A    -11.213204
      10A     -1.364277    11A     -1.098638    12A     -1.061803
      13A     -1.015845    14A     -0.962739    15A     -0.877675
      16A     -0.829613    17A     -0.753206    18A     -0.750278
      19A     -0.699274    20A     -0.638167    21A     -0.629856
      22A     -0.612122    23A     -0.590899    24A     -0.583771
      25A     -0.554640    26A     -0.541785    27A     -0.522996
      28A     -0.518109    29A     -0.501680    30A     -0.490924
      31A     -0.479601    32A     -0.469142    33A     -0.450525
      34A     -0.418839    35A     -0.298419

  @DF-RHF Final Energy:  -386.06029969174421

   => Energetics <=

    Nuclear Repulsion Energy =            418.0618547919609682
    One-Electron Energy =               -1352.0254560817827496
    Two-Electron Energy =                 547.9033015980775190
    Total Energy =                       -386.0602996917442624
  Basis Set: (AUG-CC-PVTZ AUX)
    Blend: AUG-CC-PVTZ-RI
    Molecular point group: c1

    Geometry (in Angstrom), charge = 0, multiplicity = 1:

       Center              X                  Y                   Z               Mass
    ------------   -----------------  -----------------  -----------------  -----------------
         O            2.719818053698    -1.320374554421    -0.056016086771    15.994914619570
         C            2.745984353698     0.028182045579     0.414399413229    12.000000000000
         C            1.355811353698     0.579217045579     0.402807413229    12.000000000000
         C           -3.554072646302     0.364852045579    -0.402740586771    12.000000000000
         C            3.675323653698     0.799812645579    -0.517070786771    12.000000000000
         C            0.265542353698    -0.099732954421     0.006759413229    12.000000000000
         C           -2.168053646302    -0.197737954421    -0.401630586771    12.000000000000
         C           -1.068396646302     0.472533045579    -0.010187586771    12.000000000000
         C           -4.475150646302    -0.380786954421     0.565815413229    12.000000000000
         H            3.131248353698     0.071537045579     1.447902413229     1.007825032230
         H            1.260649353698     1.614624045579     0.732726413229     1.007825032230
         H           -3.516221646302     1.427624045579    -0.136856586771     1.007825032230
         H           -3.976214646302     0.307763045579    -1.414583586771     1.007825032230
         H            3.301137353698     0.785493045579    -1.516300586771     1.007825032230
         H            3.694182353698     1.892668045579    -0.179671586771     1.007825032230
         H            4.689954353698     0.455449045579    -0.453395586771     1.007825032230
         H            0.379235353698    -1.132282954421    -0.315498586771     1.007825032230
         H           -2.062191646302    -1.235944954421    -0.722974586771     1.007825032230
         H           -1.169675646302     1.510280045579     0.313924413229     1.007825032230
         H           -4.530389646302    -1.443042954421     0.310757413229     1.007825032230
         H           -5.490186646302     0.025922045579     0.538508413229     1.007825032230
         H           -4.099151646302    -0.300254954421     1.588970413229     1.007825032230
         H            3.597988353698    -1.674661954421     0.003100413229     1.007825032230

  Basis Set: AUG-CC-PVTZ
    Blend: AUG-CC-PVTZ
  Basis Set: (AUG-CC-PVTZ AUX)
    Blend: AUG-CC-PVTZ-JKFIT
	 Reference Energy          =    -386.0602996917442056 [Eh]
	 Singles Energy            =      -0.0000000000000000 [Eh]
	 Same-Spin Energy          =      -0.3999767532593845 [Eh]
	 Opposite-Spin Energy      =      -1.3775166806966845 [Eh]
	 Correlation Energy        =      -1.7774934339560691 [Eh]
	 Total Energy              =    -387.8377931257002729 [Eh]

	 ================> DF-SCS-MP2 Energies <==================
	-----------------------------------------------------------
	 SCS Same-Spin Scale       =       0.3333333333333333 [-]
	 SCS Opposite-Spin Scale   =       1.2000000000000000 [-]
	 SCS Same-Spin Energy      =      -0.1333255844197948 [Eh]
	 SCS Opposite-Spin Energy  =      -1.6530200168360214 [Eh]
	 SCS Correlation Energy    =      -1.7863456012558161 [Eh]
	 SCS Total Energy          =    -387.8466452929999946 [Eh]
	-----------------------------------------------------------

  Dipole Moment: [D]
     X:     1.1019      Y:     0.6758      Z:     0.3930     Total:     1.3511

*** Psi4 exiting successfully. Buy a developer a beer!
