                               Psi4 1.3.2 release

  ==> Input File <==

--------------------------------------------------------------------------
#psi4
#
memory 32 gb

molecule  {
0 1
  O        2.6932640    -1.3344870    -0.0264310
  C        2.7416562     0.0026737     0.3981472
  C        1.3606810     0.5764810     0.3953890
  C       -3.5492030     0.3621160    -0.4101590
  C        3.6709050     0.8409920    -0.4958550
  C        0.2704120    -0.1024690    -0.0006590
  C       -2.1631840    -0.2004740    -0.4090490
  C       -1.0635270     0.4697970    -0.0176060
  C       -4.4702810    -0.3835230     0.5583970
  H        3.1361180     0.0688010     1.4404840
  H        1.2467339     1.6109246     0.7223638
  H       -3.5113520     1.4248880    -0.1442750
  H       -3.9713450     0.3050270    -1.4220020
  H        3.3060070     0.7827570    -1.5237190
  H        3.6990520     1.8899320    -0.1870900
  H        4.6948240     0.4527130    -0.4608140
  H        0.3841050    -1.1350190    -0.3229170
  H       -2.0573220    -1.2386810    -0.7303930
  H       -1.1648060     1.5075440     0.3065060
  H       -4.5255200    -1.4457790     0.3033390
  H       -5.4853170     0.0231860     0.5310900
  H       -4.0942820    -0.3029910     1.5815520
  H        3.6028580    -1.6773980    -0.0043180
units angstrom
no_reorient  #important for SAPT in psi4, default
symmetry c1  #important for SAPT in psi4, default
}

set PROPERTIES_ORIGIN ["COM"]
properties('MP2/aug-cc-pvtz', properties = ['dipole'])
--------------------------------------------------------------------------

    Molecular point group: c1
  Charge       = 0
  Multiplicity = 1
  Basis Set: AUG-CC-PVTZ
    Blend: AUG-CC-PVTZ
  Basis Set: (AUG-CC-PVTZ AUX)
    Blend: AUG-CC-PVTZ-JKFIT

    Orbital Energies [Eh]
    ---------------------

    Doubly Occupied:

       1A    -20.561771     2A    -11.287339     3A    -11.225587
       4A    -11.223190     5A    -11.222981     6A    -11.222652
       7A    -11.221013     8A    -11.220043     9A    -11.212667
      10A     -1.370991    11A     -1.097660    12A     -1.060441
      13A     -1.014007    14A     -0.961673    15A     -0.876257
      16A     -0.828410    17A     -0.752309    18A     -0.749787
      19A     -0.697351    20A     -0.639954    21A     -0.627131
      22A     -0.618878    23A     -0.590960    24A     -0.583212
      25A     -0.546838    26A     -0.542091    27A     -0.529868
      28A     -0.518632    29A     -0.501718    30A     -0.491754
      31A     -0.478857    32A     -0.467178    33A     -0.451184
      34A     -0.416660    35A     -0.296731

  @DF-RHF Final Energy:  -386.06234338398997

   => Energetics <=

    Nuclear Repulsion Energy =            418.2431633121709638
    One-Electron Energy =               -1352.3954582223846046
    Two-Electron Energy =                 548.0899515262236719
    Total Energy =                       -386.0623433839899690
  Basis Set: (AUG-CC-PVTZ AUX)
    Blend: AUG-CC-PVTZ-RI
    Molecular point group: c1

    Geometry (in Angstrom), charge = 0, multiplicity = 1:

       Center              X                  Y                   Z               Mass
    ------------   -----------------  -----------------  -----------------  -----------------
         O            2.694289344745    -1.332312248700    -0.025566719365    15.994914619570
         C            2.742681544745     0.004848451300     0.399011480635    12.000000000000
         C            1.361706344745     0.578655751300     0.396253280635    12.000000000000
         C           -3.548177655255     0.364290751300    -0.409294719365    12.000000000000
         C            3.671930344745     0.843166751300    -0.494990719365    12.000000000000
         C            0.271437344745    -0.100294248700     0.000205280635    12.000000000000
         C           -2.162158655255    -0.198299248700    -0.408184719365    12.000000000000
         C           -1.062501655255     0.471971751300    -0.016741719365    12.000000000000
         C           -4.469255655255    -0.381348248700     0.559261280635    12.000000000000
         H            3.137143344745     0.070975751300     1.441348280635     1.007825032230
         H            1.247759244745     1.613099351300     0.723228080635     1.007825032230
         H           -3.510326655255     1.427062751300    -0.143410719365     1.007825032230
         H           -3.970319655255     0.307201751300    -1.421137719365     1.007825032230
         H            3.307032344745     0.784931751300    -1.522854719365     1.007825032230
         H            3.700077344745     1.892106751300    -0.186225719365     1.007825032230
         H            4.695849344745     0.454887751300    -0.459949719365     1.007825032230
         H            0.385130344745    -1.132844248700    -0.322052719365     1.007825032230
         H           -2.056296655255    -1.236506248700    -0.729528719365     1.007825032230
         H           -1.163780655255     1.509718751300     0.307370280635     1.007825032230
         H           -4.524494655255    -1.443604248700     0.304203280635     1.007825032230
         H           -5.484291655255     0.025360751300     0.531954280635     1.007825032230
         H           -4.093256655255    -0.300816248700     1.582416280635     1.007825032230
         H            3.603883344745    -1.675223248700    -0.003453719365     1.007825032230

  Basis Set: AUG-CC-PVTZ
    Blend: AUG-CC-PVTZ
  Basis Set: (AUG-CC-PVTZ AUX)
    Blend: AUG-CC-PVTZ-JKFIT
	 Reference Energy          =    -386.0623433839899690 [Eh]
	 Singles Energy            =      -0.0000000000000000 [Eh]
	 Same-Spin Energy          =      -0.4003328975310532 [Eh]
	 Opposite-Spin Energy      =      -1.3779159908472436 [Eh]
	 Correlation Energy        =      -1.7782488883782968 [Eh]
	 Total Energy              =    -387.8405922723682693 [Eh]

	 ================> DF-SCS-MP2 Energies <==================
	-----------------------------------------------------------
	 SCS Same-Spin Scale       =       0.3333333333333333 [-]
	 SCS Opposite-Spin Scale   =       1.2000000000000000 [-]
	 SCS Same-Spin Energy      =      -0.1334442991770177 [Eh]
	 SCS Opposite-Spin Energy  =      -1.6534991890166924 [Eh]
	 SCS Correlation Energy    =      -1.7869434881937101 [Eh]
	 SCS Total Energy          =    -387.8492868721836544 [Eh]
	-----------------------------------------------------------

  Dipole Moment: [D]
     X:     1.2127      Y:     0.6465      Z:     0.2941     Total:     1.4054

*** Psi4 exiting successfully. Buy a developer a beer!
