                               Psi4 1.3.2 release

  ==> Input File <==

--------------------------------------------------------------------------
#psi4
#
memory 32 gb

molecule  {
0 1
  O        2.6932640    -1.3344870    -0.0264310
  C        2.7508540     0.0254460     0.4069810
  C        1.3606810     0.5764810     0.3953890
  C       -3.5492030     0.3621160    -0.4101590
  C        3.6709050     0.8409920    -0.4958550
  C        0.2704120    -0.1024690    -0.0006590
  C       -2.1631840    -0.2004740    -0.4090490
  C       -1.2269224     0.3702031    -0.0757696
  C       -4.4702810    -0.3835230     0.5583970
  H        3.1361180     0.0688010     1.4404840
  H        1.2655190     1.6118880     0.7253080
  H       -3.5113520     1.4248880    -0.1442750
  H       -3.9713450     0.3050270    -1.4220020
  H        3.3060070     0.7827570    -1.5237190
  H        3.6990520     1.8899320    -0.1870900
  H        4.6948240     0.4527130    -0.4608140
  H        0.3841050    -1.1350190    -0.3229170
  H       -2.0573220    -1.2386810    -0.7303930
  H       -1.1648060     1.5075440     0.3065060
  H       -4.5255200    -1.4457790     0.3033390
  H       -5.4853170     0.0231860     0.5310900
  H       -4.0942820    -0.3029910     1.5815520
  H        3.6028580    -1.6773980    -0.0043180
units angstrom
no_reorient  #important for SAPT in psi4, default
symmetry c1  #important for SAPT in psi4, default
}

set PROPERTIES_ORIGIN ["COM"]
properties('MP2/aug-cc-pvtz', properties = ['dipole'])
--------------------------------------------------------------------------

    Molecular point group: c1
  Charge       = 0
  Multiplicity = 1
  Basis Set: AUG-CC-PVTZ
    Blend: AUG-CC-PVTZ
  Basis Set: (AUG-CC-PVTZ AUX)
    Blend: AUG-CC-PVTZ-JKFIT

    Orbital Energies [Eh]
    ---------------------

    Doubly Occupied:

       1A    -20.558670     2A    -11.288452     3A    -11.229478
       4A    -11.225942     5A    -11.221765     6A    -11.221348
       7A    -11.212370     8A    -11.212047     9A    -11.192280
      10A     -1.360712    11A     -1.123378    12A     -1.063930
      13A     -1.013782    14A     -0.979321    15A     -0.868569
      16A     -0.835894    17A     -0.749632    18A     -0.732700
      19A     -0.695677    20A     -0.635108    21A     -0.630949
      22A     -0.616612    23A     -0.601270    24A     -0.581777
      25A     -0.546782    26A     -0.542262    27A     -0.530064
      28A     -0.521187    29A     -0.502098    30A     -0.490514
      31A     -0.481739    32A     -0.453444    33A     -0.432442
      34A     -0.419741    35A     -0.331183

  @DF-RHF Final Energy:  -385.99348143196045

   => Energetics <=

    Nuclear Repulsion Energy =            419.1728665704638956
    One-Electron Energy =               -1354.1264606327911224
    Two-Electron Energy =                 548.9601126303667797
    Total Energy =                       -385.9934814319605039
  Basis Set: (AUG-CC-PVTZ AUX)
    Blend: AUG-CC-PVTZ-RI
    Molecular point group: c1

    Geometry (in Angstrom), charge = 0, multiplicity = 1:

       Center              X                  Y                   Z               Mass
    ------------   -----------------  -----------------  -----------------  -----------------
         O            2.708812534744    -1.325009666187    -0.020896065068    15.994914619570
         C            2.766402534744     0.034923333813     0.412515934932    12.000000000000
         C            1.376229534744     0.585958333813     0.400923934932    12.000000000000
         C           -3.533654465256     0.371593333813    -0.404624065068    12.000000000000
         C            3.686453534744     0.850469333813    -0.490320065068    12.000000000000
         C            0.285960534744    -0.092991666187     0.004875934932    12.000000000000
         C           -2.147635465256    -0.190996666187    -0.403514065068    12.000000000000
         C           -1.211373865256     0.379680433813    -0.070234665068    12.000000000000
         C           -4.454732465256    -0.374045666187     0.563931934932    12.000000000000
         H            3.151666534744     0.078278333813     1.446018934932     1.007825032230
         H            1.281067534744     1.621365333813     0.730842934932     1.007825032230
         H           -3.495803465256     1.434365333813    -0.138740065068     1.007825032230
         H           -3.955796465256     0.314504333813    -1.416467065068     1.007825032230
         H            3.321555534744     0.792234333813    -1.518184065068     1.007825032230
         H            3.714600534744     1.899409333813    -0.181555065068     1.007825032230
         H            4.710372534744     0.462190333813    -0.455279065068     1.007825032230
         H            0.399653534744    -1.125541666187    -0.317382065068     1.007825032230
         H           -2.041773465256    -1.229203666187    -0.724858065068     1.007825032230
         H           -1.149257465256     1.517021333813     0.312040934932     1.007825032230
         H           -4.509971465256    -1.436301666187     0.308873934932     1.007825032230
         H           -5.469768465256     0.032663333813     0.536624934932     1.007825032230
         H           -4.078733465256    -0.293513666187     1.587086934932     1.007825032230
         H            3.618406534744    -1.667920666187     0.001216934932     1.007825032230

  Basis Set: AUG-CC-PVTZ
    Blend: AUG-CC-PVTZ
  Basis Set: (AUG-CC-PVTZ AUX)
    Blend: AUG-CC-PVTZ-JKFIT
	 Reference Energy          =    -385.9934814319604470 [Eh]
	 Singles Energy            =      -0.0000000000000000 [Eh]
	 Same-Spin Energy          =      -0.3987873053665006 [Eh]
	 Opposite-Spin Energy      =      -1.3754124405227564 [Eh]
	 Correlation Energy        =      -1.7741997458892569 [Eh]
	 Total Energy              =    -387.7676811778496813 [Eh]

	 ================> DF-SCS-MP2 Energies <==================
	-----------------------------------------------------------
	 SCS Same-Spin Scale       =       0.3333333333333333 [-]
	 SCS Opposite-Spin Scale   =       1.2000000000000000 [-]
	 SCS Same-Spin Energy      =      -0.1329291017888335 [Eh]
	 SCS Opposite-Spin Energy  =      -1.6504949286273076 [Eh]
	 SCS Correlation Energy    =      -1.7834240304161411 [Eh]
	 SCS Total Energy          =    -387.7769054623765896 [Eh]
	-----------------------------------------------------------

  Dipole Moment: [D]
     X:     1.2379      Y:     0.6289      Z:     0.2716     Total:     1.4148

*** Psi4 exiting successfully. Buy a developer a beer!
