                               Psi4 1.3.2 release

  ==> Input File <==

--------------------------------------------------------------------------
#psi4
#
memory 32 gb

molecule  {
0 1
  O        2.6932640    -1.3344870    -0.0264310
  C        2.7508540     0.0254460     0.4069810
  C        1.3606810     0.5764810     0.3953890
  C       -3.5492030     0.3621160    -0.4101590
  C        3.6709050     0.8409920    -0.4958550
  C        0.2704120    -0.1024690    -0.0006590
  C       -2.1631840    -0.2004740    -0.4090490
  C       -0.9818293     0.5195940     0.0114758
  C       -4.4702810    -0.3835230     0.5583970
  H        3.1361180     0.0688010     1.4404840
  H        1.2655190     1.6118880     0.7253080
  H       -3.5113520     1.4248880    -0.1442750
  H       -3.9713450     0.3050270    -1.4220020
  H        3.3060070     0.7827570    -1.5237190
  H        3.6990520     1.8899320    -0.1870900
  H        4.6948240     0.4527130    -0.4608140
  H        0.3841050    -1.1350190    -0.3229170
  H       -2.0573220    -1.2386810    -0.7303930
  H       -1.1648060     1.5075440     0.3065060
  H       -4.5255200    -1.4457790     0.3033390
  H       -5.4853170     0.0231860     0.5310900
  H       -4.0942820    -0.3029910     1.5815520
  H        3.6028580    -1.6773980    -0.0043180
units angstrom
no_reorient  #important for SAPT in psi4, default
symmetry c1  #important for SAPT in psi4, default
}

set PROPERTIES_ORIGIN ["COM"]
properties('MP2/aug-cc-pvtz', properties = ['dipole'])
--------------------------------------------------------------------------

    Molecular point group: c1
  Charge       = 0
  Multiplicity = 1
  Basis Set: AUG-CC-PVTZ
    Blend: AUG-CC-PVTZ
  Basis Set: (AUG-CC-PVTZ AUX)
    Blend: AUG-CC-PVTZ-JKFIT

    Orbital Energies [Eh]
    ---------------------

    Doubly Occupied:

       1A    -20.558816     2A    -11.285492     3A    -11.238841
       4A    -11.228881     5A    -11.224420     6A    -11.221455
       7A    -11.220186     8A    -11.219284     9A    -11.213158
      10A     -1.360641    11A     -1.097927    12A     -1.058914
      13A     -1.019016    14A     -0.952548    15A     -0.879968
      16A     -0.825032    17A     -0.758823    18A     -0.749415
      19A     -0.696834    20A     -0.637464    21A     -0.628250
      22A     -0.616543    23A     -0.590909    24A     -0.581824
      25A     -0.546556    26A     -0.544127    27A     -0.528056
      28A     -0.514835    29A     -0.504891    30A     -0.495078
      31A     -0.480168    32A     -0.469264    33A     -0.453326
      34A     -0.418924    35A     -0.278697

  @DF-RHF Final Energy:  -386.04349976209983

   => Energetics <=

    Nuclear Repulsion Energy =            417.7329134810819369
    One-Electron Energy =               -1351.3557016784059215
    Two-Electron Energy =                 547.5792884352241572
    Total Energy =                       -386.0434997620998274
  Basis Set: (AUG-CC-PVTZ AUX)
    Blend: AUG-CC-PVTZ-RI
    Molecular point group: c1

    Geometry (in Angstrom), charge = 0, multiplicity = 1:

       Center              X                  Y                   Z               Mass
    ------------   -----------------  -----------------  -----------------  -----------------
         O            2.685489671447    -1.339225584704    -0.029198267527    15.994914619570
         C            2.743079671447     0.020707415296     0.404213732473    12.000000000000
         C            1.352906671447     0.571742415296     0.392621732473    12.000000000000
         C           -3.556977328553     0.357377415296    -0.412926267527    12.000000000000
         C            3.663130671447     0.836253415296    -0.498622267527    12.000000000000
         C            0.262637671447    -0.107207584704    -0.003426267527    12.000000000000
         C           -2.170958328553    -0.205212584704    -0.411816267527    12.000000000000
         C           -0.989603628553     0.514855415296     0.008708532473    12.000000000000
         C           -4.478055328553    -0.388261584704     0.555629732473    12.000000000000
         H            3.128343671447     0.064062415296     1.437716732473     1.007825032230
         H            1.257744671447     1.607149415296     0.722540732473     1.007825032230
         H           -3.519126328553     1.420149415296    -0.147042267527     1.007825032230
         H           -3.979119328553     0.300288415296    -1.424769267527     1.007825032230
         H            3.298232671447     0.778018415296    -1.526486267527     1.007825032230
         H            3.691277671447     1.885193415296    -0.189857267527     1.007825032230
         H            4.687049671447     0.447974415296    -0.463581267527     1.007825032230
         H            0.376330671447    -1.139757584704    -0.325684267527     1.007825032230
         H           -2.065096328553    -1.243419584704    -0.733160267527     1.007825032230
         H           -1.172580328553     1.502805415296     0.303738732473     1.007825032230
         H           -4.533294328553    -1.450517584704     0.300571732473     1.007825032230
         H           -5.493091328553     0.018447415296     0.528322732473     1.007825032230
         H           -4.102056328553    -0.307729584704     1.578784732473     1.007825032230
         H            3.595083671447    -1.682136584704    -0.007085267527     1.007825032230

  Basis Set: AUG-CC-PVTZ
    Blend: AUG-CC-PVTZ
  Basis Set: (AUG-CC-PVTZ AUX)
    Blend: AUG-CC-PVTZ-JKFIT
	 Reference Energy          =    -386.0434997620998274 [Eh]
	 Singles Energy            =      -0.0000000000000000 [Eh]
	 Same-Spin Energy          =      -0.4026296965140856 [Eh]
	 Opposite-Spin Energy      =      -1.3822942589702210 [Eh]
	 Correlation Energy        =      -1.7849239554843066 [Eh]
	 Total Energy              =    -387.8284237175841440 [Eh]

	 ================> DF-SCS-MP2 Energies <==================
	-----------------------------------------------------------
	 SCS Same-Spin Scale       =       0.3333333333333333 [-]
	 SCS Opposite-Spin Scale   =       1.2000000000000000 [-]
	 SCS Same-Spin Energy      =      -0.1342098988380285 [Eh]
	 SCS Opposite-Spin Energy  =      -1.6587531107642650 [Eh]
	 SCS Correlation Energy    =      -1.7929630096022935 [Eh]
	 SCS Total Energy          =    -387.8364627717021449 [Eh]
	-----------------------------------------------------------

  Dipole Moment: [D]
     X:     1.2226      Y:     0.7541      Z:     0.3239     Total:     1.4726

*** Psi4 exiting successfully. Buy a developer a beer!
