                               Psi4 1.4a3.dev225

  ==> Input File <==

--------------------------------------------------------------------------
#psi4
#
memory 32 gb

molecule  {
0 1
  O       -2.7161510     1.3794200    -0.1343610
  C       -2.7832390     0.0721360     0.4401970
  C       -1.3979030    -0.4954620     0.4743180
  C        3.5083460    -0.4405980    -0.4123350
  C       -3.7239960    -0.8239440    -0.3625680
  C       -0.2867988     0.1310969    -0.0138585
  C        2.1282810     0.1394430    -0.4544070
  C        1.0245920    -0.4684390     0.0236420
  C        4.4606410     0.4027870     0.4416180
  H       -3.1581590     0.1412460     1.4762970
  H       -1.3112260    -1.4900120     0.9147240
  H        3.4619600    -1.4629760    -0.0187660
  H        3.9104550    -0.5133060    -1.4317100
  H       -3.3684670    -0.8811940    -1.3941910
  H       -3.7626400    -1.8335820     0.0574350
  H       -4.7426360    -0.4191700    -0.3608330
  H       -0.4078810     1.1149080    -0.4388390
  H        2.0311270     1.1370710    -0.8883280
  H        1.1170930    -1.4649260     0.4609700
  H        4.5263310     1.4251690     0.0574090
  H        5.4690900    -0.0219830     0.4454750
  H        4.1044230     0.4539160     1.4740500
  H       -3.6221830     1.7324190    -0.1413340
units angstrom
no_reorient  #important for SAPT in psi4, default
symmetry c1  #important for SAPT in psi4, default
}

set PROPERTIES_ORIGIN ["COM"]
properties('MP2/aug-cc-pvtz', properties = ['dipole'])
--------------------------------------------------------------------------

    Molecular point group: c1
  Charge       = 0
  Multiplicity = 1
  Basis Set: AUG-CC-PVTZ
    Blend: AUG-CC-PVTZ
  Basis Set: (AUG-CC-PVTZ AUX)
    Blend: AUG-CC-PVTZ-JKFIT

    Orbital Energies [Eh]
    ---------------------

    Doubly Occupied:

       1A    -20.558869     2A    -11.287119     3A    -11.226377
       4A    -11.226223     5A    -11.224509     6A    -11.223651
       7A    -11.223140     8A    -11.220901     9A    -11.213164
      10A     -1.360133    11A     -1.097220    12A     -1.059174
      13A     -1.016331    14A     -0.960268    15A     -0.877200
      16A     -0.827668    17A     -0.752490    18A     -0.749321
      19A     -0.695127    20A     -0.637124    21A     -0.626811
      22A     -0.616481    23A     -0.589489    24A     -0.582681
      25A     -0.546441    26A     -0.543381    27A     -0.527365
      28A     -0.518036    29A     -0.502483    30A     -0.492307
      31A     -0.479306    32A     -0.469638    33A     -0.452551
      34A     -0.417832    35A     -0.293663

  @DF-RHF Final Energy:  -386.06068016072408

   => Energetics <=

    Nuclear Repulsion Energy =            417.3849694183305701
    One-Electron Energy =               -1350.7023475420871819
    Two-Electron Energy =                 547.2566979630325932
    Total Energy =                       -386.0606801607240186
  Basis Set: (AUG-CC-PVTZ AUX)
    Blend: AUG-CC-PVTZ-RI
    Molecular point group: c1

    Geometry (in Angstrom), charge = 0, multiplicity = 1:

       Center              X                  Y                   Z               Mass
    ------------   -----------------  -----------------  -----------------  -----------------
         O           -2.684391594979     1.362218159290    -0.132015373245    15.994914619570
         C           -2.751479594979     0.054934159290     0.442542626755    12.000000000000
         C           -1.366143594979    -0.512663840710     0.476663626755    12.000000000000
         C            3.540105405021    -0.457799840710    -0.409989373245    12.000000000000
         C           -3.692236594979    -0.841145840710    -0.360222373245    12.000000000000
         C           -0.255039394979     0.113895059290    -0.011512873245    12.000000000000
         C            2.160040405021     0.122241159290    -0.452061373245    12.000000000000
         C            1.056351405021    -0.485640840710     0.025987626755    12.000000000000
         C            4.492400405021     0.385585159290     0.443963626755    12.000000000000
         H           -3.126399594979     0.124044159290     1.478642626755     1.007825032230
         H           -1.279466594979    -1.507213840710     0.917069626755     1.007825032230
         H            3.493719405021    -1.480177840710    -0.016420373245     1.007825032230
         H            3.942214405021    -0.530507840710    -1.429364373245     1.007825032230
         H           -3.336707594979    -0.898395840710    -1.391845373245     1.007825032230
         H           -3.730880594979    -1.850783840710     0.059780626755     1.007825032230
         H           -4.710876594979    -0.436371840710    -0.358487373245     1.007825032230
         H           -0.376121594979     1.097706159290    -0.436493373245     1.007825032230
         H            2.062886405021     1.119869159290    -0.885982373245     1.007825032230
         H            1.148852405021    -1.482127840710     0.463315626755     1.007825032230
         H            4.558090405021     1.407967159290     0.059754626755     1.007825032230
         H            5.500849405021    -0.039184840710     0.447820626755     1.007825032230
         H            4.136182405021     0.436714159290     1.476395626755     1.007825032230
         H           -3.590423594979     1.715217159290    -0.138988373245     1.007825032230

  Basis Set: AUG-CC-PVTZ
    Blend: AUG-CC-PVTZ
  Basis Set: (AUG-CC-PVTZ AUX)
    Blend: AUG-CC-PVTZ-JKFIT
	 Reference Energy          =    -386.0606801607240754 [Eh]
	 Singles Energy            =      -0.0000000000000000 [Eh]
	 Same-Spin Energy          =      -0.4006384835304689 [Eh]
	 Opposite-Spin Energy      =      -1.3790653504222283 [Eh]
	 Correlation Energy        =      -1.7797038339526972 [Eh]
	 Total Energy              =    -387.8403839946767562 [Eh]

	 ================> DF-SCS-MP2 Energies <==================
	-----------------------------------------------------------
	 SCS Same-Spin Scale       =       0.3333333333333333 [-]
	 SCS Opposite-Spin Scale   =       1.2000000000000000 [-]
	 SCS Same-Spin Energy      =      -0.1335461611768229 [Eh]
	 SCS Opposite-Spin Energy  =      -1.6548784205066740 [Eh]
	 SCS Correlation Energy    =      -1.7884245816834969 [Eh]
	 SCS Total Energy          =    -387.8491047424075759 [Eh]
	-----------------------------------------------------------

  Dipole Moment: [D]
     X:    -1.2042      Y:    -0.6857      Z:     0.3896     Total:     1.4394

*** Psi4 exiting successfully. Buy a developer a beer!
