                               Psi4 1.3.2 release

  ==> Input File <==

--------------------------------------------------------------------------
#psi4
#
memory 32 gb

molecule  {
0 1
  O        2.6932640    -1.3344870    -0.0264310
  C        2.7508540     0.0254460     0.4069810
  C        1.3989763     0.5188798     0.3824623
  C       -3.5492030     0.3621160    -0.4101590
  C        3.6709050     0.8409920    -0.4958550
  C        0.2704120    -0.1024690    -0.0006590
  C       -2.1631840    -0.2004740    -0.4090490
  C       -1.0635270     0.4697970    -0.0176060
  C       -4.4702810    -0.3835230     0.5583970
  H        3.1361180     0.0688010     1.4404840
  H        1.2655190     1.6118880     0.7253080
  H       -3.5113520     1.4248880    -0.1442750
  H       -3.9713450     0.3050270    -1.4220020
  H        3.3060070     0.7827570    -1.5237190
  H        3.6990520     1.8899320    -0.1870900
  H        4.6948240     0.4527130    -0.4608140
  H        0.4399251    -1.1305191    -0.3126111
  H       -2.0573220    -1.2386810    -0.7303930
  H       -1.1648060     1.5075440     0.3065060
  H       -4.5255200    -1.4457790     0.3033390
  H       -5.4853170     0.0231860     0.5310900
  H       -4.0942820    -0.3029910     1.5815520
  H        3.6028580    -1.6773980    -0.0043180
units angstrom
no_reorient  #important for SAPT in psi4, default
symmetry c1  #important for SAPT in psi4, default
}

set PROPERTIES_ORIGIN ["COM"]
properties('MP2/aug-cc-pvtz', properties = ['dipole'])
--------------------------------------------------------------------------

    Molecular point group: c1
  Charge       = 0
  Multiplicity = 1
  Basis Set: AUG-CC-PVTZ
    Blend: AUG-CC-PVTZ
  Basis Set: (AUG-CC-PVTZ AUX)
    Blend: AUG-CC-PVTZ-JKFIT

    Orbital Energies [Eh]
    ---------------------

    Doubly Occupied:

       1A    -20.558730     2A    -11.284633     3A    -11.227483
       4A    -11.225339     5A    -11.224204     6A    -11.223883
       7A    -11.221889     8A    -11.221221     9A    -11.213272
      10A     -1.362905    11A     -1.098569    12A     -1.065856
      13A     -1.018090    14A     -0.963916    15A     -0.881784
      16A     -0.832234    17A     -0.754191    18A     -0.737379
      19A     -0.698939    20A     -0.637560    21A     -0.631393
      22A     -0.618712    23A     -0.590092    24A     -0.581441
      25A     -0.547508    26A     -0.540300    27A     -0.528669
      28A     -0.517809    29A     -0.499527    30A     -0.487125
      31A     -0.480396    32A     -0.471790    33A     -0.455138
      34A     -0.417507    35A     -0.297334

  @DF-RHF Final Energy:  -386.05491192254499

   => Energetics <=

    Nuclear Repulsion Energy =            418.6989643599422948
    One-Electron Energy =               -1353.2741156259039599
    Two-Electron Energy =                 548.5202393434167334
    Total Energy =                       -386.0549119225449886
  Basis Set: (AUG-CC-PVTZ AUX)
    Blend: AUG-CC-PVTZ-RI
    Molecular point group: c1

    Geometry (in Angstrom), charge = 0, multiplicity = 1:

       Center              X                  Y                   Z               Mass
    ------------   -----------------  -----------------  -----------------  -----------------
         O            2.689173695686    -1.329041621056    -0.025283136880    15.994914619570
         C            2.746763695686     0.030891378944     0.408128863120    12.000000000000
         C            1.394885995686     0.524325178944     0.383610163120    12.000000000000
         C           -3.553293304314     0.367561378944    -0.409011136880    12.000000000000
         C            3.666814695686     0.846437378944    -0.494707136880    12.000000000000
         C            0.266321695686    -0.097023621056     0.000488863120    12.000000000000
         C           -2.167274304314    -0.195028621056    -0.407901136880    12.000000000000
         C           -1.067617304314     0.475242378944    -0.016458136880    12.000000000000
         C           -4.474371304314    -0.378077621056     0.559544863120    12.000000000000
         H            3.132027695686     0.074246378944     1.441631863120     1.007825032230
         H            1.261428695686     1.617333378944     0.726455863120     1.007825032230
         H           -3.515442304314     1.430333378944    -0.143127136880     1.007825032230
         H           -3.975435304314     0.310472378944    -1.420854136880     1.007825032230
         H            3.301916695686     0.788202378944    -1.522571136880     1.007825032230
         H            3.694961695686     1.895377378944    -0.185942136880     1.007825032230
         H            4.690733695686     0.458158378944    -0.459666136880     1.007825032230
         H            0.435834795686    -1.125073721056    -0.311463236880     1.007825032230
         H           -2.061412304314    -1.233235621056    -0.729245136880     1.007825032230
         H           -1.168896304314     1.512989378944     0.307653863120     1.007825032230
         H           -4.529610304314    -1.440333621056     0.304486863120     1.007825032230
         H           -5.489407304314     0.028631378944     0.532237863120     1.007825032230
         H           -4.098372304314    -0.297545621056     1.582699863120     1.007825032230
         H            3.598767695686    -1.671952621056    -0.003170136880     1.007825032230

  Basis Set: AUG-CC-PVTZ
    Blend: AUG-CC-PVTZ
  Basis Set: (AUG-CC-PVTZ AUX)
    Blend: AUG-CC-PVTZ-JKFIT
	 Reference Energy          =    -386.0549119225449886 [Eh]
	 Singles Energy            =      -0.0000000000000000 [Eh]
	 Same-Spin Energy          =      -0.4012272763779677 [Eh]
	 Opposite-Spin Energy      =      -1.3794283840277579 [Eh]
	 Correlation Energy        =      -1.7806556604057255 [Eh]
	 Total Energy              =    -387.8355675829507163 [Eh]

	 ================> DF-SCS-MP2 Energies <==================
	-----------------------------------------------------------
	 SCS Same-Spin Scale       =       0.3333333333333333 [-]
	 SCS Opposite-Spin Scale   =       1.2000000000000000 [-]
	 SCS Same-Spin Energy      =      -0.1337424254593226 [Eh]
	 SCS Opposite-Spin Energy  =      -1.6553140608333095 [Eh]
	 SCS Correlation Energy    =      -1.7890564862926319 [Eh]
	 SCS Total Energy          =    -387.8439684088376112 [Eh]
	-----------------------------------------------------------

  Dipole Moment: [D]
     X:     1.2351      Y:     0.6946      Z:     0.2938     Total:     1.4472

*** Psi4 exiting successfully. Buy a developer a beer!
