                               Psi4 1.3.2 release

  ==> Input File <==

--------------------------------------------------------------------------
#psi4
#
memory 32 gb

molecule  {
0 1
  O        2.6932640    -1.3344870    -0.0264310
  C        2.7508540     0.0254460     0.4069810
  C        1.3472464     0.5952755     0.3994583
  C       -3.5492030     0.3621160    -0.4101590
  C        3.6709050     0.8409920    -0.4958550
  C        0.2704120    -0.1024690    -0.0006590
  C       -2.1631840    -0.2004740    -0.4090490
  C       -1.0635270     0.4697970    -0.0176060
  C       -4.4702810    -0.3835230     0.5583970
  H        3.1361180     0.0688010     1.4404840
  H        1.2655190     1.6118880     0.7253080
  H       -3.5113520     1.4248880    -0.1442750
  H       -3.9713450     0.3050270    -1.4220020
  H        3.3060070     0.7827570    -1.5237190
  H        3.6990520     1.8899320    -0.1870900
  H        4.6948240     0.4527130    -0.4608140
  H        0.3654215    -1.1358904    -0.3261573
  H       -2.0573220    -1.2386810    -0.7303930
  H       -1.1648060     1.5075440     0.3065060
  H       -4.5255200    -1.4457790     0.3033390
  H       -5.4853170     0.0231860     0.5310900
  H       -4.0942820    -0.3029910     1.5815520
  H        3.6028580    -1.6773980    -0.0043180
units angstrom
no_reorient  #important for SAPT in psi4, default
symmetry c1  #important for SAPT in psi4, default
}

set PROPERTIES_ORIGIN ["COM"]
properties('MP2/aug-cc-pvtz', properties = ['dipole'])
--------------------------------------------------------------------------

    Molecular point group: c1
  Charge       = 0
  Multiplicity = 1
  Basis Set: AUG-CC-PVTZ
    Blend: AUG-CC-PVTZ
  Basis Set: (AUG-CC-PVTZ AUX)
    Blend: AUG-CC-PVTZ-JKFIT

    Orbital Energies [Eh]
    ---------------------

    Doubly Occupied:

       1A    -20.558690     2A    -11.287046     3A    -11.225447
       4A    -11.223813     5A    -11.223026     6A    -11.222421
       7A    -11.221800     8A    -11.220112     9A    -11.212658
      10A     -1.359942    11A     -1.097772    12A     -1.060026
      13A     -1.015443    14A     -0.962092    15A     -0.875118
      16A     -0.827358    17A     -0.753155    18A     -0.750655
      19A     -0.694192    20A     -0.637190    21A     -0.627431
      22A     -0.616077    23A     -0.590110    24A     -0.583410
      25A     -0.548147    26A     -0.544031    27A     -0.526727
      28A     -0.519182    29A     -0.502905    30A     -0.491175
      31A     -0.478701    32A     -0.465132    33A     -0.452221
      34A     -0.418634    35A     -0.297583

  @DF-RHF Final Energy:  -386.06226373574788

   => Energetics <=

    Nuclear Repulsion Energy =            417.7789894533292454
    One-Electron Energy =               -1351.5036618386275222
    Two-Electron Energy =                 547.6624086495503434
    Total Energy =                       -386.0622637357479334
  Basis Set: (AUG-CC-PVTZ AUX)
    Blend: AUG-CC-PVTZ-RI
    Molecular point group: c1

    Geometry (in Angstrom), charge = 0, multiplicity = 1:

       Center              X                  Y                   Z               Mass
    ------------   -----------------  -----------------  -----------------  -----------------
         O            2.694691703257    -1.336268447393    -0.026792201610    15.994914619570
         C            2.752281703257     0.023664552607     0.406619798390    12.000000000000
         C            1.348674103257     0.593494052607     0.399097098390    12.000000000000
         C           -3.547775296743     0.360334552607    -0.410520201610    12.000000000000
         C            3.672332703257     0.839210552607    -0.496216201610    12.000000000000
         C            0.271839703257    -0.104250447393    -0.001020201610    12.000000000000
         C           -2.161756296743    -0.202255447393    -0.409410201610    12.000000000000
         C           -1.062099296743     0.468015552607    -0.017967201610    12.000000000000
         C           -4.468853296743    -0.385304447393     0.558035798390    12.000000000000
         H            3.137545703257     0.067019552607     1.440122798390     1.007825032230
         H            1.266946703257     1.610106552607     0.724946798390     1.007825032230
         H           -3.509924296743     1.423106552607    -0.144636201610     1.007825032230
         H           -3.969917296743     0.303245552607    -1.422363201610     1.007825032230
         H            3.307434703257     0.780975552607    -1.524080201610     1.007825032230
         H            3.700479703257     1.888150552607    -0.187451201610     1.007825032230
         H            4.696251703257     0.450931552607    -0.461175201610     1.007825032230
         H            0.366849203257    -1.137671847393    -0.326518501610     1.007825032230
         H           -2.055894296743    -1.240462447393    -0.730754201610     1.007825032230
         H           -1.163378296743     1.505762552607     0.306144798390     1.007825032230
         H           -4.524092296743    -1.447560447393     0.302977798390     1.007825032230
         H           -5.483889296743     0.021404552607     0.530728798390     1.007825032230
         H           -4.092854296743    -0.304772447393     1.581190798390     1.007825032230
         H            3.604285703257    -1.679179447393    -0.004679201610     1.007825032230

  Basis Set: AUG-CC-PVTZ
    Blend: AUG-CC-PVTZ
  Basis Set: (AUG-CC-PVTZ AUX)
    Blend: AUG-CC-PVTZ-JKFIT
	 Reference Energy          =    -386.0622637357478766 [Eh]
	 Singles Energy            =      -0.0000000000000000 [Eh]
	 Same-Spin Energy          =      -0.4001470565341447 [Eh]
	 Opposite-Spin Energy      =      -1.3781378793551726 [Eh]
	 Correlation Energy        =      -1.7782849358893174 [Eh]
	 Total Energy              =    -387.8405486716371797 [Eh]

	 ================> DF-SCS-MP2 Energies <==================
	-----------------------------------------------------------
	 SCS Same-Spin Scale       =       0.3333333333333333 [-]
	 SCS Opposite-Spin Scale   =       1.2000000000000000 [-]
	 SCS Same-Spin Energy      =      -0.1333823521780482 [Eh]
	 SCS Opposite-Spin Energy  =      -1.6537654552262071 [Eh]
	 SCS Correlation Energy    =      -1.7871478074042553 [Eh]
	 SCS Total Energy          =    -387.8494115431521436 [Eh]
	-----------------------------------------------------------

  Dipole Moment: [D]
     X:     1.1932      Y:     0.7363      Z:     0.3128     Total:     1.4365

*** Psi4 exiting successfully. Buy a developer a beer!
