                               Psi4 1.3.2 release

  ==> Input File <==

--------------------------------------------------------------------------
#psi4
#
memory 32 gb

molecule  {
0 1
  O        2.6932640    -1.3344870    -0.0264310
  C        2.7508540     0.0254460     0.4069810
  C        1.3606810     0.5764810     0.3953890
  C       -3.5492030     0.3621160    -0.4101590
  C        3.6709050     0.8409920    -0.4958550
  C        0.2704120    -0.1024690    -0.0006590
  C       -2.1631840    -0.2004740    -0.4090490
  C       -1.0813032     0.4256063    -0.0348817
  C       -4.4702810    -0.3835230     0.5583970
  H        3.1361180     0.0688010     1.4404840
  H        1.2655190     1.6118880     0.7253080
  H       -3.5113520     1.4248880    -0.1442750
  H       -3.9713450     0.3050270    -1.4220020
  H        3.3060070     0.7827570    -1.5237190
  H        3.6990520     1.8899320    -0.1870900
  H        4.6948240     0.4527130    -0.4608140
  H        0.3466873    -1.1364929    -0.3291592
  H       -2.0573220    -1.2386810    -0.7303930
  H       -1.1648060     1.5075440     0.3065060
  H       -4.5255200    -1.4457790     0.3033390
  H       -5.4853170     0.0231860     0.5310900
  H       -4.0942820    -0.3029910     1.5815520
  H        3.6028580    -1.6773980    -0.0043180
units angstrom
no_reorient  #important for SAPT in psi4, default
symmetry c1  #important for SAPT in psi4, default
}

set PROPERTIES_ORIGIN ["COM"]
properties('MP2/aug-cc-pvtz', properties = ['dipole'])
--------------------------------------------------------------------------

    Molecular point group: c1
  Charge       = 0
  Multiplicity = 1
  Basis Set: AUG-CC-PVTZ
    Blend: AUG-CC-PVTZ
  Basis Set: (AUG-CC-PVTZ AUX)
    Blend: AUG-CC-PVTZ-JKFIT

    Orbital Energies [Eh]
    ---------------------

    Doubly Occupied:

       1A    -20.558624     2A    -11.287293     3A    -11.225359
       4A    -11.223649     5A    -11.223246     6A    -11.221520
       7A    -11.220991     8A    -11.219021     9A    -11.212956
      10A     -1.360523    11A     -1.101682    12A     -1.062580
      13A     -1.016935    14A     -0.966760    15A     -0.877147
      16A     -0.830579    17A     -0.753334    18A     -0.743237
      19A     -0.695176    20A     -0.637517    21A     -0.629600
      22A     -0.616596    23A     -0.592607    24A     -0.582272
      25A     -0.546693    26A     -0.543845    27A     -0.524979
      28A     -0.520876    29A     -0.500324    30A     -0.490205
      31A     -0.479356    32A     -0.461214    33A     -0.453289
      34A     -0.421990    35A     -0.304125

  @DF-RHF Final Energy:  -386.06005470633130

   => Energetics <=

    Nuclear Repulsion Energy =            418.3567178233982986
    One-Electron Energy =               -1352.6213403412659773
    Two-Electron Energy =                 548.2045678115364353
    Total Energy =                       -386.0600547063312433
  Basis Set: (AUG-CC-PVTZ AUX)
    Blend: AUG-CC-PVTZ-RI
    Molecular point group: c1

    Geometry (in Angstrom), charge = 0, multiplicity = 1:

       Center              X                  Y                   Z               Mass
    ------------   -----------------  -----------------  -----------------  -----------------
         O            2.695254569891    -1.330270010984    -0.024737037347    15.994914619570
         C            2.752844569891     0.029662989016     0.408674962653    12.000000000000
         C            1.362671569891     0.580697989016     0.397082962653    12.000000000000
         C           -3.547212430109     0.366332989016    -0.408465037347    12.000000000000
         C            3.672895569891     0.845208989016    -0.494161037347    12.000000000000
         C            0.272402569891    -0.098252010984     0.001034962653    12.000000000000
         C           -2.161193430109    -0.196257010984    -0.407355037347    12.000000000000
         C           -1.079312630109     0.429823289016    -0.033187737347    12.000000000000
         C           -4.468290430109    -0.379306010984     0.560090962653    12.000000000000
         H            3.138108569891     0.073017989016     1.442177962653     1.007825032230
         H            1.267509569891     1.616104989016     0.727001962653     1.007825032230
         H           -3.509361430109     1.429104989016    -0.142581037347     1.007825032230
         H           -3.969354430109     0.309243989016    -1.420308037347     1.007825032230
         H            3.307997569891     0.786973989016    -1.522025037347     1.007825032230
         H            3.701042569891     1.894148989016    -0.185396037347     1.007825032230
         H            4.696814569891     0.456929989016    -0.459120037347     1.007825032230
         H            0.348677869891    -1.132275910984    -0.327465237347     1.007825032230
         H           -2.055331430109    -1.234464010984    -0.728699037347     1.007825032230
         H           -1.162815430109     1.511760989016     0.308199962653     1.007825032230
         H           -4.523529430109    -1.441562010984     0.305032962653     1.007825032230
         H           -5.483326430109     0.027402989016     0.532783962653     1.007825032230
         H           -4.092291430109    -0.298774010984     1.583245962653     1.007825032230
         H            3.604848569891    -1.673181010984    -0.002624037347     1.007825032230

  Basis Set: AUG-CC-PVTZ
    Blend: AUG-CC-PVTZ
  Basis Set: (AUG-CC-PVTZ AUX)
    Blend: AUG-CC-PVTZ-JKFIT
	 Reference Energy          =    -386.0600547063313002 [Eh]
	 Singles Energy            =      -0.0000000000000000 [Eh]
	 Same-Spin Energy          =      -0.4000213845127444 [Eh]
	 Opposite-Spin Energy      =      -1.3775978003737706 [Eh]
	 Correlation Energy        =      -1.7776191848865150 [Eh]
	 Total Energy              =    -387.8376738912178325 [Eh]

	 ================> DF-SCS-MP2 Energies <==================
	-----------------------------------------------------------
	 SCS Same-Spin Scale       =       0.3333333333333333 [-]
	 SCS Opposite-Spin Scale   =       1.2000000000000000 [-]
	 SCS Same-Spin Energy      =      -0.1333404615042481 [Eh]
	 SCS Opposite-Spin Energy  =      -1.6531173604485245 [Eh]
	 SCS Correlation Energy    =      -1.7864578219527727 [Eh]
	 SCS Total Energy          =    -387.8465125282840518 [Eh]
	-----------------------------------------------------------

  Dipole Moment: [D]
     X:     1.2142      Y:     0.7070      Z:     0.3032     Total:     1.4374

*** Psi4 exiting successfully. Buy a developer a beer!
