                               Psi4 1.3.2 release

  ==> Input File <==

--------------------------------------------------------------------------
#psi4
#
memory 32 gb

molecule  {
0 1
  O        2.6932640    -1.3344870    -0.0264310
  C        2.7508540     0.0254460     0.4069810
  C        1.3606810     0.5764810     0.3953890
  C       -3.5492030     0.3621160    -0.4101590
  C        3.6709050     0.8409920    -0.4958550
  C        0.2704120    -0.1024690    -0.0006590
  C       -2.1705824    -0.2180601    -0.3912284
  C       -1.0635270     0.4697970    -0.0176060
  C       -4.4499360    -0.3994878     0.5650859
  H        3.1361180     0.0688010     1.4404840
  H        1.2655190     1.6118880     0.7253080
  H       -3.5113520     1.4248880    -0.1442750
  H       -3.9713450     0.3050270    -1.4220020
  H        3.3060070     0.7827570    -1.5237190
  H        3.6990520     1.8899320    -0.1870900
  H        4.6948240     0.4527130    -0.4608140
  H        0.3841050    -1.1350190    -0.3229170
  H       -2.0573220    -1.2386810    -0.7303930
  H       -1.1648060     1.5075440     0.3065060
  H       -4.5255200    -1.4457790     0.3033390
  H       -5.4853170     0.0231860     0.5310900
  H       -4.0942820    -0.3029910     1.5815520
  H        3.6028580    -1.6773980    -0.0043180
units angstrom
no_reorient  #important for SAPT in psi4, default
symmetry c1  #important for SAPT in psi4, default
}

set PROPERTIES_ORIGIN ["COM"]
properties('MP2/aug-cc-pvtz', properties = ['dipole'])
--------------------------------------------------------------------------

    Molecular point group: c1
  Charge       = 0
  Multiplicity = 1
  Basis Set: AUG-CC-PVTZ
    Blend: AUG-CC-PVTZ
  Basis Set: (AUG-CC-PVTZ AUX)
    Blend: AUG-CC-PVTZ-JKFIT

    Orbital Energies [Eh]
    ---------------------

    Doubly Occupied:

       1A    -20.558567     2A    -11.286292     3A    -11.226259
       4A    -11.224217     5A    -11.223399     6A    -11.223064
       7A    -11.221481     8A    -11.220407     9A    -11.212493
      10A     -1.360457    11A     -1.097076    12A     -1.061464
      13A     -1.015844    14A     -0.961104    15A     -0.876148
      16A     -0.827885    17A     -0.754704    18A     -0.747736
      19A     -0.695071    20A     -0.637410    21A     -0.628462
      22A     -0.616933    23A     -0.588956    24A     -0.582762
      25A     -0.546577    26A     -0.543094    27A     -0.528074
      28A     -0.518905    29A     -0.498902    30A     -0.492832
      31A     -0.482905    32A     -0.466191    33A     -0.452820
      34A     -0.417096    35A     -0.295779

  @DF-RHF Final Energy:  -386.06090054293026

   => Energetics <=

    Nuclear Repulsion Energy =            418.0524212523732785
    One-Electron Energy =               -1352.0439106234096016
    Two-Electron Energy =                 547.9305888281060106
    Total Energy =                       -386.0609005429303124
  Basis Set: (AUG-CC-PVTZ AUX)
    Blend: AUG-CC-PVTZ-RI
    Molecular point group: c1

    Geometry (in Angstrom), charge = 0, multiplicity = 1:

       Center              X                  Y                   Z               Mass
    ------------   -----------------  -----------------  -----------------  -----------------
         O            2.692031971115    -1.331294265226    -0.028763171118    15.994914619570
         C            2.749621971115     0.028638734774     0.404648828882    12.000000000000
         C            1.359448971115     0.579673734774     0.393056828882    12.000000000000
         C           -3.550435028885     0.365308734774    -0.412491171118    12.000000000000
         C            3.669672971115     0.844184734774    -0.498187171118    12.000000000000
         C            0.269179971115    -0.099276265226    -0.002991171118    12.000000000000
         C           -2.171814428885    -0.214867365226    -0.393560571118    12.000000000000
         C           -1.064759028885     0.472989734774    -0.019938171118    12.000000000000
         C           -4.451168028885    -0.396295065226     0.562753728882    12.000000000000
         H            3.134885971115     0.071993734774     1.438151828882     1.007825032230
         H            1.264286971115     1.615080734774     0.722975828882     1.007825032230
         H           -3.512584028885     1.428080734774    -0.146607171118     1.007825032230
         H           -3.972577028885     0.308219734774    -1.424334171118     1.007825032230
         H            3.304774971115     0.785949734774    -1.526051171118     1.007825032230
         H            3.697819971115     1.893124734774    -0.189422171118     1.007825032230
         H            4.693591971115     0.455905734774    -0.463146171118     1.007825032230
         H            0.382872971115    -1.131826265226    -0.325249171118     1.007825032230
         H           -2.058554028885    -1.235488265226    -0.732725171118     1.007825032230
         H           -1.166038028885     1.510736734774     0.304173828882     1.007825032230
         H           -4.526752028885    -1.442586265226     0.301006828882     1.007825032230
         H           -5.486549028885     0.026378734774     0.528757828882     1.007825032230
         H           -4.095514028885    -0.299798265226     1.579219828882     1.007825032230
         H            3.601625971115    -1.674205265226    -0.006650171118     1.007825032230

  Basis Set: AUG-CC-PVTZ
    Blend: AUG-CC-PVTZ
  Basis Set: (AUG-CC-PVTZ AUX)
    Blend: AUG-CC-PVTZ-JKFIT
	 Reference Energy          =    -386.0609005429302556 [Eh]
	 Singles Energy            =      -0.0000000000000000 [Eh]
	 Same-Spin Energy          =      -0.4005165724455907 [Eh]
	 Opposite-Spin Energy      =      -1.3786788280694600 [Eh]
	 Correlation Energy        =      -1.7791954005150508 [Eh]
	 Total Energy              =    -387.8400959434453057 [Eh]

	 ================> DF-SCS-MP2 Energies <==================
	-----------------------------------------------------------
	 SCS Same-Spin Scale       =       0.3333333333333333 [-]
	 SCS Opposite-Spin Scale   =       1.2000000000000000 [-]
	 SCS Same-Spin Energy      =      -0.1335055241485302 [Eh]
	 SCS Opposite-Spin Energy  =      -1.6544145936833519 [Eh]
	 SCS Correlation Energy    =      -1.7879201178318822 [Eh]
	 SCS Total Energy          =    -387.8488206607621578 [Eh]
	-----------------------------------------------------------

  Dipole Moment: [D]
     X:     1.2067      Y:     0.7251      Z:     0.2823     Total:     1.4358

*** Psi4 exiting successfully. Buy a developer a beer!
