                               Psi4 1.3.2 release

  ==> Input File <==

--------------------------------------------------------------------------
#psi4
#
memory 32 gb

molecule  {
0 1
  O        2.6932640    -1.3344870    -0.0264310
  C        2.7508540     0.0254460     0.4069810
  C        1.3606810     0.5764810     0.3953890
  C       -3.5298321     0.4074500    -0.3929627
  C        3.6709050     0.8409920    -0.4958550
  C        0.2704120    -0.1024690    -0.0006590
  C       -2.1631840    -0.2004740    -0.4090490
  C       -1.0635270     0.4697970    -0.0176060
  C       -4.4702810    -0.3835230     0.5583970
  H        3.1361180     0.0688010     1.4404840
  H        1.2655190     1.6118880     0.7253080
  H       -3.5113520     1.4248880    -0.1442750
  H       -3.9713450     0.3050270    -1.4220020
  H        3.3060070     0.7827570    -1.5237190
  H        3.6990520     1.8899320    -0.1870900
  H        4.6948240     0.4527130    -0.4608140
  H        0.3841050    -1.1350190    -0.3229170
  H       -2.0197558    -1.2359568    -0.7245584
  H       -1.1648060     1.5075440     0.3065060
  H       -4.5255200    -1.4457790     0.3033390
  H       -5.4853170     0.0231860     0.5310900
  H       -4.0942820    -0.3029910     1.5815520
  H        3.6028580    -1.6773980    -0.0043180
units angstrom
no_reorient  #important for SAPT in psi4, default
symmetry c1  #important for SAPT in psi4, default
}

set PROPERTIES_ORIGIN ["COM"]
properties('MP2/aug-cc-pvtz', properties = ['dipole'])
--------------------------------------------------------------------------

    Molecular point group: c1
  Charge       = 0
  Multiplicity = 1
  Basis Set: AUG-CC-PVTZ
    Blend: AUG-CC-PVTZ
  Basis Set: (AUG-CC-PVTZ AUX)
    Blend: AUG-CC-PVTZ-JKFIT

    Orbital Energies [Eh]
    ---------------------

    Doubly Occupied:

       1A    -20.558554     2A    -11.286237     3A    -11.225783
       4A    -11.223520     5A    -11.223067     6A    -11.221726
       7A    -11.221128     8A    -11.220377     9A    -11.213767
      10A     -1.360441    11A     -1.097850    12A     -1.060404
      13A     -1.014578    14A     -0.961307    15A     -0.876257
      16A     -0.829504    17A     -0.754771    18A     -0.747758
      19A     -0.694965    20A     -0.638141    21A     -0.625954
      22A     -0.616547    23A     -0.591735    24A     -0.580586
      25A     -0.546400    26A     -0.542794    27A     -0.527303
      28A     -0.511452    29A     -0.502177    30A     -0.491500
      31A     -0.489408    32A     -0.467250    33A     -0.452626
      34A     -0.416665    35A     -0.296265

  @DF-RHF Final Energy:  -386.05943043396411

   => Energetics <=

    Nuclear Repulsion Energy =            418.0062609076817353
    One-Electron Energy =               -1351.9537915526052529
    Two-Electron Energy =                 547.8881002109593510
    Total Energy =                       -386.0594304339641667
  Basis Set: (AUG-CC-PVTZ AUX)
    Blend: AUG-CC-PVTZ-RI
    Molecular point group: c1

    Geometry (in Angstrom), charge = 0, multiplicity = 1:

       Center              X                  Y                   Z               Mass
    ------------   -----------------  -----------------  -----------------  -----------------
         O            2.691120411349    -1.338822660961    -0.028113882894    15.994914619570
         C            2.748710411349     0.021110339039     0.405298117106    12.000000000000
         C            1.358537411349     0.572145339039     0.393706117106    12.000000000000
         C           -3.531975688651     0.403114339039    -0.394645582894    12.000000000000
         C            3.668761411349     0.836656339039    -0.497537882894    12.000000000000
         C            0.268268411349    -0.106804660961    -0.002341882894    12.000000000000
         C           -2.165327588651    -0.204809660961    -0.410731882894    12.000000000000
         C           -1.065670588651     0.465461339039    -0.019288882894    12.000000000000
         C           -4.472424588651    -0.387858660961     0.556714117106    12.000000000000
         H            3.133974411349     0.064465339039     1.438801117106     1.007825032230
         H            1.263375411349     1.607552339039     0.723625117106     1.007825032230
         H           -3.513495588651     1.420552339039    -0.145957882894     1.007825032230
         H           -3.973488588651     0.300691339039    -1.423684882894     1.007825032230
         H            3.303863411349     0.778421339039    -1.525401882894     1.007825032230
         H            3.696908411349     1.885596339039    -0.188772882894     1.007825032230
         H            4.692680411349     0.448377339039    -0.462496882894     1.007825032230
         H            0.381961411349    -1.139354660961    -0.324599882894     1.007825032230
         H           -2.021899388651    -1.240292460961    -0.726241282894     1.007825032230
         H           -1.166949588651     1.503208339039     0.304823117106     1.007825032230
         H           -4.527663588651    -1.450114660961     0.301656117106     1.007825032230
         H           -5.487460588651     0.018850339039     0.529407117106     1.007825032230
         H           -4.096425588651    -0.307326660961     1.579869117106     1.007825032230
         H            3.600714411349    -1.681733660961    -0.006000882894     1.007825032230

  Basis Set: AUG-CC-PVTZ
    Blend: AUG-CC-PVTZ
  Basis Set: (AUG-CC-PVTZ AUX)
    Blend: AUG-CC-PVTZ-JKFIT
	 Reference Energy          =    -386.0594304339641099 [Eh]
	 Singles Energy            =      -0.0000000000000000 [Eh]
	 Same-Spin Energy          =      -0.4003538018938604 [Eh]
	 Opposite-Spin Energy      =      -1.3783245565847246 [Eh]
	 Correlation Energy        =      -1.7786783584785850 [Eh]
	 Total Energy              =    -387.8381087924427106 [Eh]

	 ================> DF-SCS-MP2 Energies <==================
	-----------------------------------------------------------
	 SCS Same-Spin Scale       =       0.3333333333333333 [-]
	 SCS Opposite-Spin Scale   =       1.2000000000000000 [-]
	 SCS Same-Spin Energy      =      -0.1334512672979535 [Eh]
	 SCS Opposite-Spin Energy  =      -1.6539894679016696 [Eh]
	 SCS Correlation Energy    =      -1.7874407351996231 [Eh]
	 SCS Total Energy          =    -387.8468711691637054 [Eh]
	-----------------------------------------------------------

  Dipole Moment: [D]
     X:     1.1895      Y:     0.7458      Z:     0.3170     Total:     1.4393

*** Psi4 exiting successfully. Buy a developer a beer!
