                               Psi4 1.3.2 release

  ==> Input File <==

--------------------------------------------------------------------------
#psi4
#
memory 32 gb

molecule  {
0 1
  O        2.6932640    -1.3344870    -0.0264310
  C        2.7508540     0.0254460     0.4069810
  C        1.3606810     0.5764810     0.3953890
  C       -3.5492030     0.3621160    -0.4101590
  C        3.6237924     0.8220118    -0.5574792
  C        0.2704120    -0.1024690    -0.0006590
  C       -2.1631840    -0.2004740    -0.4090490
  C       -1.0635270     0.4697970    -0.0176060
  C       -4.4702810    -0.3835230     0.5583970
  H        3.0919027     0.0353357     1.4567545
  H        1.2655190     1.6118880     0.7253080
  H       -3.5113520     1.4248880    -0.1442750
  H       -3.9713450     0.3050270    -1.4220020
  H        3.3060070     0.7827570    -1.5237190
  H        3.6990520     1.8899320    -0.1870900
  H        4.6948240     0.4527130    -0.4608140
  H        0.3841050    -1.1350190    -0.3229170
  H       -2.0573220    -1.2386810    -0.7303930
  H       -1.1648060     1.5075440     0.3065060
  H       -4.5255200    -1.4457790     0.3033390
  H       -5.4853170     0.0231860     0.5310900
  H       -4.0942820    -0.3029910     1.5815520
  H        3.6028580    -1.6773980    -0.0043180
units angstrom
no_reorient  #important for SAPT in psi4, default
symmetry c1  #important for SAPT in psi4, default
}

set PROPERTIES_ORIGIN ["COM"]
properties('MP2/aug-cc-pvtz', properties = ['dipole'])
--------------------------------------------------------------------------

    Molecular point group: c1
  Charge       = 0
  Multiplicity = 1
  Basis Set: AUG-CC-PVTZ
    Blend: AUG-CC-PVTZ
  Basis Set: (AUG-CC-PVTZ AUX)
    Blend: AUG-CC-PVTZ-JKFIT

    Orbital Energies [Eh]
    ---------------------

    Doubly Occupied:

       1A    -20.556632     2A    -11.286797     3A    -11.225522
       4A    -11.223171     5A    -11.222948     6A    -11.222900
       7A    -11.222502     8A    -11.221041     9A    -11.212640
      10A     -1.360123    11A     -1.097662    12A     -1.061479
      13A     -1.015757    14A     -0.961950    15A     -0.877659
      16A     -0.829680    17A     -0.752455    18A     -0.747752
      19A     -0.695934    20A     -0.635862    21A     -0.627200
      22A     -0.614927    23A     -0.587677    24A     -0.582334
      25A     -0.570421    26A     -0.539218    27A     -0.518895
      28A     -0.517563    29A     -0.499557    30A     -0.489085
      31A     -0.478483    32A     -0.464778    33A     -0.454256
      34A     -0.418753    35A     -0.297177

  @DF-RHF Final Energy:  -386.05421116667833

   => Energetics <=

    Nuclear Repulsion Energy =            418.3684839973138310
    One-Electron Energy =               -1352.6638125974191098
    Two-Electron Energy =                 548.2411174334268935
    Total Energy =                       -386.0542111666783285
  Basis Set: (AUG-CC-PVTZ AUX)
    Blend: AUG-CC-PVTZ-RI
    Molecular point group: c1

    Geometry (in Angstrom), charge = 0, multiplicity = 1:

       Center              X                  Y                   Z               Mass
    ------------   -----------------  -----------------  -----------------  -----------------
         O            2.698100524562    -1.332413347194    -0.020696790738    15.994914619570
         C            2.755690524562     0.027519652806     0.412715209262    12.000000000000
         C            1.365517524562     0.578554652806     0.401123209262    12.000000000000
         C           -3.544366475438     0.364189652806    -0.404424790738    12.000000000000
         C            3.628628924562     0.824085452806    -0.551744990738    12.000000000000
         C            0.275248524562    -0.100395347194     0.005075209262    12.000000000000
         C           -2.158347475438    -0.198400347194    -0.403314790738    12.000000000000
         C           -1.058690475438     0.471870652806    -0.011871790738    12.000000000000
         C           -4.465444475438    -0.381449347194     0.564131209262    12.000000000000
         H            3.096739224562     0.037409352806     1.462488709262     1.007825032230
         H            1.270355524562     1.613961652806     0.731042209262     1.007825032230
         H           -3.506515475438     1.426961652806    -0.138540790738     1.007825032230
         H           -3.966508475438     0.307100652806    -1.416267790738     1.007825032230
         H            3.310843524562     0.784830652806    -1.517984790738     1.007825032230
         H            3.703888524562     1.892005652806    -0.181355790738     1.007825032230
         H            4.699660524562     0.454786652806    -0.455079790738     1.007825032230
         H            0.388941524562    -1.132945347194    -0.317182790738     1.007825032230
         H           -2.052485475438    -1.236607347194    -0.724658790738     1.007825032230
         H           -1.159969475438     1.509617652806     0.312240209262     1.007825032230
         H           -4.520683475438    -1.443705347194     0.309073209262     1.007825032230
         H           -5.480480475438     0.025259652806     0.536824209262     1.007825032230
         H           -4.089445475438    -0.300917347194     1.587286209262     1.007825032230
         H            3.607694524562    -1.675324347194     0.001416209262     1.007825032230

  Basis Set: AUG-CC-PVTZ
    Blend: AUG-CC-PVTZ
  Basis Set: (AUG-CC-PVTZ AUX)
    Blend: AUG-CC-PVTZ-JKFIT
	 Reference Energy          =    -386.0542111666783285 [Eh]
	 Singles Energy            =      -0.0000000000000000 [Eh]
	 Same-Spin Energy          =      -0.4004596587992815 [Eh]
	 Opposite-Spin Energy      =      -1.3786916440006896 [Eh]
	 Correlation Energy        =      -1.7791513027999710 [Eh]
	 Total Energy              =    -387.8333624694782884 [Eh]

	 ================> DF-SCS-MP2 Energies <==================
	-----------------------------------------------------------
	 SCS Same-Spin Scale       =       0.3333333333333333 [-]
	 SCS Opposite-Spin Scale   =       1.2000000000000000 [-]
	 SCS Same-Spin Energy      =      -0.1334865529330938 [Eh]
	 SCS Opposite-Spin Energy  =      -1.6544299728008274 [Eh]
	 SCS Correlation Energy    =      -1.7879165257339211 [Eh]
	 SCS Total Energy          =    -387.8421276924122481 [Eh]
	-----------------------------------------------------------

  Dipole Moment: [D]
     X:     1.1992      Y:     0.7358      Z:     0.3046     Total:     1.4396

*** Psi4 exiting successfully. Buy a developer a beer!
