                               Psi4 1.3.2 release

  ==> Input File <==

--------------------------------------------------------------------------
#psi4
#
memory 32 gb

molecule  {
0 1
  O        2.7199688    -1.3548573     0.0403896
  C        2.7508540     0.0254460     0.4069810
  C        1.3606810     0.5764810     0.3953890
  C       -3.5492030     0.3621160    -0.4101590
  C        3.6709050     0.8409920    -0.4958550
  C        0.2704120    -0.1024690    -0.0006590
  C       -2.1631840    -0.2004740    -0.4090490
  C       -1.0635270     0.4697970    -0.0176060
  C       -4.4702810    -0.3835230     0.5583970
  H        3.1402996     0.0111677     1.4397272
  H        1.2655190     1.6118880     0.7253080
  H       -3.5113520     1.4248880    -0.1442750
  H       -3.9713450     0.3050270    -1.4220020
  H        3.3060070     0.7827570    -1.5237190
  H        3.6990520     1.8899320    -0.1870900
  H        4.6948240     0.4527130    -0.4608140
  H        0.3841050    -1.1350190    -0.3229170
  H       -2.0573220    -1.2386810    -0.7303930
  H       -1.1648060     1.5075440     0.3065060
  H       -4.5255200    -1.4457790     0.3033390
  H       -5.4853170     0.0231860     0.5310900
  H       -4.0942820    -0.3029910     1.5815520
  H        3.6028580    -1.6773980    -0.0043180
units angstrom
no_reorient  #important for SAPT in psi4, default
symmetry c1  #important for SAPT in psi4, default
}

set PROPERTIES_ORIGIN ["COM"]
properties('MP2/aug-cc-pvtz', properties = ['dipole'])
--------------------------------------------------------------------------

    Molecular point group: c1
  Charge       = 0
  Multiplicity = 1
  Basis Set: AUG-CC-PVTZ
    Blend: AUG-CC-PVTZ
  Basis Set: (AUG-CC-PVTZ AUX)
    Blend: AUG-CC-PVTZ-JKFIT

    Orbital Energies [Eh]
    ---------------------

    Doubly Occupied:

       1A    -20.552477     2A    -11.286362     3A    -11.226531
       4A    -11.224622     5A    -11.223761     6A    -11.223539
       7A    -11.222788     8A    -11.222171     9A    -11.213076
      10A     -1.364860    11A     -1.098686    12A     -1.062418
      13A     -1.016788    14A     -0.962945    15A     -0.877803
      16A     -0.830251    17A     -0.754626    18A     -0.750366
      19A     -0.693297    20A     -0.638597    21A     -0.628456
      22A     -0.620604    23A     -0.591196    24A     -0.583932
      25A     -0.546763    26A     -0.544389    27A     -0.527558
      28A     -0.519281    29A     -0.501650    30A     -0.491371
      31A     -0.479525    32A     -0.468817    33A     -0.451081
      34A     -0.418430    35A     -0.298157

  @DF-RHF Final Energy:  -386.06285559322123

   => Energetics <=

    Nuclear Repulsion Energy =            417.6824812329040810
    One-Electron Energy =               -1351.2563265088028857
    Two-Electron Energy =                 547.5109896826775184
    Total Energy =                       -386.0628555932212294
  Basis Set: (AUG-CC-PVTZ AUX)
    Blend: AUG-CC-PVTZ-RI
    Molecular point group: c1

    Geometry (in Angstrom), charge = 0, multiplicity = 1:

       Center              X                  Y                   Z               Mass
    ------------   -----------------  -----------------  -----------------  -----------------
         O            2.716548140309    -1.351812897074     0.031920349839    15.994914619570
         C            2.747433340309     0.028490402926     0.398511749839    12.000000000000
         C            1.357260340309     0.579525402926     0.386919749839    12.000000000000
         C           -3.552623659691     0.365160402926    -0.418628250161    12.000000000000
         C            3.667484340309     0.844036402926    -0.504324250161    12.000000000000
         C            0.266991340309    -0.099424597074    -0.009128250161    12.000000000000
         C           -2.166604659691    -0.197429597074    -0.417518250161    12.000000000000
         C           -1.066947659691     0.472841402926    -0.026075250161    12.000000000000
         C           -4.473701659691    -0.380478597074     0.549927749839    12.000000000000
         H            3.136878940309     0.014212102926     1.431257949839     1.007825032230
         H            1.262098340309     1.614932402926     0.716838749839     1.007825032230
         H           -3.514772659691     1.427932402926    -0.152744250161     1.007825032230
         H           -3.974765659691     0.308071402926    -1.430471250161     1.007825032230
         H            3.302586340309     0.785801402926    -1.532188250161     1.007825032230
         H            3.695631340309     1.892976402926    -0.195559250161     1.007825032230
         H            4.691403340309     0.455757402926    -0.469283250161     1.007825032230
         H            0.380684340309    -1.131974597074    -0.331386250161     1.007825032230
         H           -2.060742659691    -1.235636597074    -0.738862250161     1.007825032230
         H           -1.168226659691     1.510588402926     0.298036749839     1.007825032230
         H           -4.528940659691    -1.442734597074     0.294869749839     1.007825032230
         H           -5.488737659691     0.026230402926     0.522620749839     1.007825032230
         H           -4.097702659691    -0.299946597074     1.573082749839     1.007825032230
         H            3.599437340309    -1.674353597074    -0.012787250161     1.007825032230

  Basis Set: AUG-CC-PVTZ
    Blend: AUG-CC-PVTZ
  Basis Set: (AUG-CC-PVTZ AUX)
    Blend: AUG-CC-PVTZ-JKFIT
	 Reference Energy          =    -386.0628555932212294 [Eh]
	 Singles Energy            =      -0.0000000000000000 [Eh]
	 Same-Spin Energy          =      -0.3997610164667489 [Eh]
	 Opposite-Spin Energy      =      -1.3770547543321214 [Eh]
	 Correlation Energy        =      -1.7768157707988703 [Eh]
	 Total Energy              =    -387.8396713640200915 [Eh]

	 ================> DF-SCS-MP2 Energies <==================
	-----------------------------------------------------------
	 SCS Same-Spin Scale       =       0.3333333333333333 [-]
	 SCS Opposite-Spin Scale   =       1.2000000000000000 [-]
	 SCS Same-Spin Energy      =      -0.1332536721555830 [Eh]
	 SCS Opposite-Spin Energy  =      -1.6524657051985456 [Eh]
	 SCS Correlation Energy    =      -1.7857193773541287 [Eh]
	 SCS Total Energy          =    -387.8485749705753847 [Eh]
	-----------------------------------------------------------

  Dipole Moment: [D]
     X:     1.1484      Y:     0.8113      Z:     0.1606     Total:     1.4152

*** Psi4 exiting successfully. Buy a developer a beer!
