                               Psi4 1.3.2 release

  ==> Input File <==

--------------------------------------------------------------------------
#psi4
#
memory 32 gb

molecule  {
0 1
  O        2.6932640    -1.3344870    -0.0264310
  C        2.7508540     0.0254460     0.4069810
  C        1.3606810     0.5764810     0.3953890
  C       -3.5492030     0.3621160    -0.4101590
  C        3.6709050     0.8409920    -0.4958550
  C        0.2638125    -0.0930076     0.0014624
  C       -2.1631840    -0.2004740    -0.4090490
  C       -1.0635270     0.4697970    -0.0176060
  C       -4.4702810    -0.3835230     0.5583970
  H        3.1361180     0.0688010     1.4404840
  H        1.2561424     1.6114904     0.7237137
  H       -3.5113520     1.4248880    -0.1442750
  H       -3.9713450     0.3050270    -1.4220020
  H        3.3060070     0.7827570    -1.5237190
  H        3.6990520     1.8899320    -0.1870900
  H        4.6948240     0.4527130    -0.4608140
  H        0.3841050    -1.1350190    -0.3229170
  H       -2.0573220    -1.2386810    -0.7303930
  H       -1.1648060     1.5075440     0.3065060
  H       -4.5255200    -1.4457790     0.3033390
  H       -5.4853170     0.0231860     0.5310900
  H       -4.0942820    -0.3029910     1.5815520
  H        3.6028580    -1.6773980    -0.0043180
units angstrom
no_reorient  #important for SAPT in psi4, default
symmetry c1  #important for SAPT in psi4, default
}

set PROPERTIES_ORIGIN ["COM"]
properties('MP2/aug-cc-pvtz', properties = ['dipole'])
--------------------------------------------------------------------------

    Molecular point group: c1
  Charge       = 0
  Multiplicity = 1
  Basis Set: AUG-CC-PVTZ
    Blend: AUG-CC-PVTZ
  Basis Set: (AUG-CC-PVTZ AUX)
    Blend: AUG-CC-PVTZ-JKFIT

    Orbital Energies [Eh]
    ---------------------

    Doubly Occupied:

       1A    -20.558797     2A    -11.286960     3A    -11.226263
       4A    -11.223476     5A    -11.223374     6A    -11.222618
       7A    -11.221598     8A    -11.220625     9A    -11.212927
      10A     -1.360665    11A     -1.098713    12A     -1.061308
      13A     -1.016796    14A     -0.962550    15A     -0.877219
      16A     -0.828752    17A     -0.753325    18A     -0.746582
      19A     -0.695413    20A     -0.637064    21A     -0.628645
      22A     -0.616854    23A     -0.590064    24A     -0.583335
      25A     -0.546322    26A     -0.543397    27A     -0.527521
      28A     -0.518573    29A     -0.498850    30A     -0.492006
      31A     -0.479294    32A     -0.469058    33A     -0.453185
      34A     -0.419393    35A     -0.296885

  @DF-RHF Final Energy:  -386.06217166070320

   => Energetics <=

    Nuclear Repulsion Energy =            418.0494262871895899
    One-Electron Energy =               -1352.0263823393281655
    Two-Electron Energy =                 547.9147843914354326
    Total Energy =                       -386.0621716607031431
  Basis Set: (AUG-CC-PVTZ AUX)
    Blend: AUG-CC-PVTZ-RI
    Molecular point group: c1

    Geometry (in Angstrom), charge = 0, multiplicity = 1:

       Center              X                  Y                   Z               Mass
    ------------   -----------------  -----------------  -----------------  -----------------
         O            2.693966900002    -1.335384103667    -0.026619995812    15.994914619570
         C            2.751556900002     0.024548896333     0.406792004188    12.000000000000
         C            1.361383900002     0.575583896333     0.395200004188    12.000000000000
         C           -3.548500099998     0.361218896333    -0.410347995812    12.000000000000
         C            3.671607900002     0.840094896333    -0.496043995812    12.000000000000
         C            0.264515400002    -0.093904703667     0.001273404188    12.000000000000
         C           -2.162481099998    -0.201371103667    -0.409237995812    12.000000000000
         C           -1.062824099998     0.468899896333    -0.017794995812    12.000000000000
         C           -4.469578099998    -0.384420103667     0.558208004188    12.000000000000
         H            3.136820900002     0.067903896333     1.440295004188     1.007825032230
         H            1.256845300002     1.610593296333     0.723524704188     1.007825032230
         H           -3.510649099998     1.423990896333    -0.144463995812     1.007825032230
         H           -3.970642099998     0.304129896333    -1.422190995812     1.007825032230
         H            3.306709900002     0.781859896333    -1.523907995812     1.007825032230
         H            3.699754900002     1.889034896333    -0.187278995812     1.007825032230
         H            4.695526900002     0.451815896333    -0.461002995812     1.007825032230
         H            0.384807900002    -1.135916103667    -0.323105995812     1.007825032230
         H           -2.056619099998    -1.239578103667    -0.730581995812     1.007825032230
         H           -1.164103099998     1.506646896333     0.306317004188     1.007825032230
         H           -4.524817099998    -1.446676103667     0.303150004188     1.007825032230
         H           -5.484614099998     0.022288896333     0.530901004188     1.007825032230
         H           -4.093579099998    -0.303888103667     1.581363004188     1.007825032230
         H            3.603560900002    -1.678295103667    -0.004506995812     1.007825032230

  Basis Set: AUG-CC-PVTZ
    Blend: AUG-CC-PVTZ
  Basis Set: (AUG-CC-PVTZ AUX)
    Blend: AUG-CC-PVTZ-JKFIT
	 Reference Energy          =    -386.0621716607031999 [Eh]
	 Singles Energy            =      -0.0000000000000000 [Eh]
	 Same-Spin Energy          =      -0.4005012215948802 [Eh]
	 Opposite-Spin Energy      =      -1.3784696446081612 [Eh]
	 Correlation Energy        =      -1.7789708662030415 [Eh]
	 Total Energy              =    -387.8411425269062534 [Eh]

	 ================> DF-SCS-MP2 Energies <==================
	-----------------------------------------------------------
	 SCS Same-Spin Scale       =       0.3333333333333333 [-]
	 SCS Opposite-Spin Scale   =       1.2000000000000000 [-]
	 SCS Same-Spin Energy      =      -0.1335004071982934 [Eh]
	 SCS Opposite-Spin Energy  =      -1.6541635735297935 [Eh]
	 SCS Correlation Energy    =      -1.7876639807280870 [Eh]
	 SCS Total Energy          =    -387.8498356414312980 [Eh]
	-----------------------------------------------------------

  Dipole Moment: [D]
     X:     1.1988      Y:     0.7282      Z:     0.3076     Total:     1.4360

*** Psi4 exiting successfully. Buy a developer a beer!
