                               Psi4 1.3.2 release

  ==> Input File <==

--------------------------------------------------------------------------
#psi4
#
memory 32 gb

molecule  {
0 1
  O        2.6932640    -1.3344870    -0.0264310
  C        2.7508540     0.0254460     0.4069810
  C        1.3606810     0.5764810     0.3953890
  C       -3.5492030     0.3621160    -0.4101590
  C        3.6709050     0.8409920    -0.4958550
  C        0.2704120    -0.1024690    -0.0006590
  C       -2.1223942    -0.2566638    -0.4210800
  C       -1.0635270     0.4697970    -0.0176060
  C       -4.4702810    -0.3835230     0.5583970
  H        3.1361180     0.0688010     1.4404840
  H        1.2655190     1.6118880     0.7253080
  H       -3.5113520     1.4248880    -0.1442750
  H       -3.9713450     0.3050270    -1.4220020
  H        3.3060070     0.7827570    -1.5237190
  H        3.6990520     1.8899320    -0.1870900
  H        4.6948240     0.4527130    -0.4608140
  H        0.3841050    -1.1350190    -0.3229170
  H       -2.0573220    -1.2386810    -0.7303930
  H       -1.1083913     1.5086121     0.3156736
  H       -4.5255200    -1.4457790     0.3033390
  H       -5.4853170     0.0231860     0.5310900
  H       -4.0942820    -0.3029910     1.5815520
  H        3.6028580    -1.6773980    -0.0043180
units angstrom
no_reorient  #important for SAPT in psi4, default
symmetry c1  #important for SAPT in psi4, default
}

set PROPERTIES_ORIGIN ["COM"]
properties('MP2/aug-cc-pvtz', properties = ['dipole'])
--------------------------------------------------------------------------

    Molecular point group: c1
  Charge       = 0
  Multiplicity = 1
  Basis Set: AUG-CC-PVTZ
    Blend: AUG-CC-PVTZ
  Basis Set: (AUG-CC-PVTZ AUX)
    Blend: AUG-CC-PVTZ-JKFIT

    Orbital Energies [Eh]
    ---------------------

    Doubly Occupied:

       1A    -20.558304     2A    -11.285894     3A    -11.225685
       4A    -11.224997     5A    -11.223853     6A    -11.221755
       7A    -11.220154     8A    -11.219893     9A    -11.211419
      10A     -1.360169    11A     -1.096297    12A     -1.056556
      13A     -1.014740    14A     -0.962171    15A     -0.873503
      16A     -0.824574    17A     -0.764055    18A     -0.747012
      19A     -0.694659    20A     -0.639819    21A     -0.624198
      22A     -0.616548    23A     -0.588141    24A     -0.580679
      25A     -0.551970    26A     -0.545335    27A     -0.531579
      28A     -0.513618    29A     -0.498924    30A     -0.490552
      31A     -0.483408    32A     -0.457214    33A     -0.452437
      34A     -0.419327    35A     -0.297859

  @DF-RHF Final Energy:  -386.05712566625567

   => Energetics <=

    Nuclear Repulsion Energy =            417.7363876038305648
    One-Electron Energy =               -1351.4324325664990738
    Two-Electron Energy =                 547.6389192964128370
    Total Energy =                       -386.0571256662557289
  Basis Set: (AUG-CC-PVTZ AUX)
    Blend: AUG-CC-PVTZ-RI
    Molecular point group: c1

    Geometry (in Angstrom), charge = 0, multiplicity = 1:

       Center              X                  Y                   Z               Mass
    ------------   -----------------  -----------------  -----------------  -----------------
         O            2.688931569027    -1.329148501855    -0.025359273698    15.994914619570
         C            2.746521569027     0.030784498145     0.408052726302    12.000000000000
         C            1.356348569027     0.581819498145     0.396460726302    12.000000000000
         C           -3.553535430973     0.367454498145    -0.409087273698    12.000000000000
         C            3.666572569027     0.846330498145    -0.494783273698    12.000000000000
         C            0.266079569027    -0.097130501855     0.000412726302    12.000000000000
         C           -2.126726630973    -0.251325301855    -0.420008273698    12.000000000000
         C           -1.067859430973     0.475135498145    -0.016534273698    12.000000000000
         C           -4.474613430973    -0.378184501855     0.559468726302    12.000000000000
         H            3.131785569027     0.074139498145     1.441555726302     1.007825032230
         H            1.261186569027     1.617226498145     0.726379726302     1.007825032230
         H           -3.515684430973     1.430226498145    -0.143203273698     1.007825032230
         H           -3.975677430973     0.310365498145    -1.420930273698     1.007825032230
         H            3.301674569027     0.788095498145    -1.522647273698     1.007825032230
         H            3.694719569027     1.895270498145    -0.186018273698     1.007825032230
         H            4.690491569027     0.458051498145    -0.459742273698     1.007825032230
         H            0.379772569027    -1.129680501855    -0.321845273698     1.007825032230
         H           -2.061654430973    -1.233342501855    -0.729321273698     1.007825032230
         H           -1.112723730973     1.513950598145     0.316745326302     1.007825032230
         H           -4.529852430973    -1.440440501855     0.304410726302     1.007825032230
         H           -5.489649430973     0.028524498145     0.532161726302     1.007825032230
         H           -4.098614430973    -0.297652501855     1.582623726302     1.007825032230
         H            3.598525569027    -1.672059501855    -0.003246273698     1.007825032230

  Basis Set: AUG-CC-PVTZ
    Blend: AUG-CC-PVTZ
  Basis Set: (AUG-CC-PVTZ AUX)
    Blend: AUG-CC-PVTZ-JKFIT
	 Reference Energy          =    -386.0571256662556721 [Eh]
	 Singles Energy            =      -0.0000000000000000 [Eh]
	 Same-Spin Energy          =      -0.3998818192197016 [Eh]
	 Opposite-Spin Energy      =      -1.3781219538213931 [Eh]
	 Correlation Energy        =      -1.7780037730410947 [Eh]
	 Total Energy              =    -387.8351294392967930 [Eh]

	 ================> DF-SCS-MP2 Energies <==================
	-----------------------------------------------------------
	 SCS Same-Spin Scale       =       0.3333333333333333 [-]
	 SCS Opposite-Spin Scale   =       1.2000000000000000 [-]
	 SCS Same-Spin Energy      =      -0.1332939397399005 [Eh]
	 SCS Opposite-Spin Energy  =      -1.6537463445856717 [Eh]
	 SCS Correlation Energy    =      -1.7870402843255722 [Eh]
	 SCS Total Energy          =    -387.8441659505812709 [Eh]
	-----------------------------------------------------------

  Dipole Moment: [D]
     X:     1.2472      Y:     0.7105      Z:     0.3039     Total:     1.4672

*** Psi4 exiting successfully. Buy a developer a beer!
