                               Psi4 1.4a3.dev225

  ==> Input File <==

--------------------------------------------------------------------------
#psi4
#
memory 32 gb

molecule  {
0 1
  O       -2.7161510     1.3794200    -0.1343610
  C       -2.7832390     0.0721360     0.4401970
  C       -1.3979030    -0.4954620     0.4743180
  C        3.5083460    -0.4405980    -0.4123350
  C       -3.7239960    -0.8239440    -0.3625680
  C       -0.3030690     0.1219220    -0.0067100
  C        2.1282810     0.1394430    -0.4544070
  C        1.0245920    -0.4684390     0.0236420
  C        4.4606410     0.4027870     0.4416180
  H       -3.1581590     0.1412460     1.4762970
  H       -1.3112260    -1.4900120     0.9147240
  H        3.4619600    -1.4629760    -0.0187660
  H        3.9104550    -0.5133060    -1.4317100
  H       -3.3684670    -0.8811940    -1.3941910
  H       -3.7626400    -1.8335820     0.0574350
  H       -4.7426360    -0.4191700    -0.3608330
  H       -0.4078810     1.1149080    -0.4388390
  H        2.0311270     1.1370710    -0.8883280
  H        1.1128582    -1.4193057     0.4409486
  H        4.5263310     1.4251690     0.0574090
  H        5.4690900    -0.0219830     0.4454750
  H        4.1044230     0.4539160     1.4740500
  H       -3.6221830     1.7324190    -0.1413340
units angstrom
no_reorient  #important for SAPT in psi4, default
symmetry c1  #important for SAPT in psi4, default
}

set PROPERTIES_ORIGIN ["COM"]
properties('MP2/aug-cc-pvtz', properties = ['dipole'])
--------------------------------------------------------------------------

    Molecular point group: c1
  Charge       = 0
  Multiplicity = 1
  Basis Set: AUG-CC-PVTZ
    Blend: AUG-CC-PVTZ
  Basis Set: (AUG-CC-PVTZ AUX)
    Blend: AUG-CC-PVTZ-JKFIT

    Orbital Energies [Eh]
    ---------------------

    Doubly Occupied:

       1A    -20.558675     2A    -11.286909     3A    -11.225984
       4A    -11.223795     5A    -11.223739     6A    -11.222173
       7A    -11.220841     8A    -11.217854     9A    -11.213188
      10A     -1.359992    11A     -1.097990    12A     -1.060548
      13A     -1.016042    14A     -0.962410    15A     -0.876548
      16A     -0.828792    17A     -0.757194    18A     -0.748702
      19A     -0.695700    20A     -0.637523    21A     -0.627320
      22A     -0.616740    23A     -0.591596    24A     -0.583218
      25A     -0.546398    26A     -0.543924    27A     -0.529274
      28A     -0.518228    29A     -0.501296    30A     -0.493264
      31A     -0.479442    32A     -0.468223    33A     -0.452697
      34A     -0.417591    35A     -0.297113

  @DF-RHF Final Energy:  -386.06164389440687

   => Energetics <=

    Nuclear Repulsion Energy =            417.7395668292826372
    One-Electron Energy =               -1351.4005725081424316
    Two-Electron Energy =                 547.5993617844528671
    Total Energy =                       -386.0616438944068705
  Basis Set: (AUG-CC-PVTZ AUX)
    Blend: AUG-CC-PVTZ-RI
    Molecular point group: c1

    Geometry (in Angstrom), charge = 0, multiplicity = 1:

       Center              X                  Y                   Z               Mass
    ------------   -----------------  -----------------  -----------------  -----------------
         O           -2.682809491305     1.362726638666    -0.132535608051    15.994914619570
         C           -2.749897491305     0.055442638666     0.442022391949    12.000000000000
         C           -1.364561491305    -0.512155361334     0.476143391949    12.000000000000
         C            3.541687508695    -0.457291361334    -0.410509608051    12.000000000000
         C           -3.690654491305    -0.840637361334    -0.360742608051    12.000000000000
         C           -0.269727491305     0.105228638666    -0.004884608051    12.000000000000
         C            2.161622508695     0.122749638666    -0.452581608051    12.000000000000
         C            1.057933508695    -0.485132361334     0.025467391949    12.000000000000
         C            4.493982508695     0.386093638666     0.443443391949    12.000000000000
         H           -3.124817491305     0.124552638666     1.478122391949     1.007825032230
         H           -1.277884491305    -1.506705361334     0.916549391949     1.007825032230
         H            3.495301508695    -1.479669361334    -0.016940608051     1.007825032230
         H            3.943796508695    -0.529999361334    -1.429884608051     1.007825032230
         H           -3.335125491305    -0.897887361334    -1.392365608051     1.007825032230
         H           -3.729298491305    -1.850275361334     0.059260391949     1.007825032230
         H           -4.709294491305    -0.435863361334    -0.359007608051     1.007825032230
         H           -0.374539491305     1.098214638666    -0.437013608051     1.007825032230
         H            2.064468508695     1.120377638666    -0.886502608051     1.007825032230
         H            1.146199708695    -1.435999061334     0.442773991949     1.007825032230
         H            4.559672508695     1.408475638666     0.059234391949     1.007825032230
         H            5.502431508695    -0.038676361334     0.447300391949     1.007825032230
         H            4.137764508695     0.437222638666     1.475875391949     1.007825032230
         H           -3.588841491305     1.715725638666    -0.139508608051     1.007825032230

  Basis Set: AUG-CC-PVTZ
    Blend: AUG-CC-PVTZ
  Basis Set: (AUG-CC-PVTZ AUX)
    Blend: AUG-CC-PVTZ-JKFIT
	 Reference Energy          =    -386.0616438944068705 [Eh]
	 Singles Energy            =      -0.0000000000000000 [Eh]
	 Same-Spin Energy          =      -0.4001518732054502 [Eh]
	 Opposite-Spin Energy      =      -1.3780776492538040 [Eh]
	 Correlation Energy        =      -1.7782295224592541 [Eh]
	 Total Energy              =    -387.8398734168661122 [Eh]

	 ================> DF-SCS-MP2 Energies <==================
	-----------------------------------------------------------
	 SCS Same-Spin Scale       =       0.3333333333333333 [-]
	 SCS Opposite-Spin Scale   =       1.2000000000000000 [-]
	 SCS Same-Spin Energy      =      -0.1333839577351500 [Eh]
	 SCS Opposite-Spin Energy  =      -1.6536931791045648 [Eh]
	 SCS Correlation Energy    =      -1.7870771368397149 [Eh]
	 SCS Total Energy          =    -387.8487210312466118 [Eh]
	-----------------------------------------------------------

  Dipole Moment: [D]
     X:    -1.1947      Y:    -0.7060      Z:     0.3984     Total:     1.4438

*** Psi4 exiting successfully. Buy a developer a beer!
