                               Psi4 1.4a3.dev225

  ==> Input File <==

--------------------------------------------------------------------------
#psi4
#
memory 32 gb

molecule  {
0 1
  O       -2.7161510     1.3794200    -0.1343610
  C       -2.7832390     0.0721360     0.4401970
  C       -1.3979030    -0.4954620     0.4743180
  C        3.5083460    -0.4405980    -0.4123350
  C       -3.7239960    -0.8239440    -0.3625680
  C       -0.3030690     0.1219220    -0.0067100
  C        2.1282810     0.1394430    -0.4544070
  C        1.0245920    -0.4684390     0.0236420
  C        4.4606410     0.4027870     0.4416180
  H       -3.1581590     0.1412460     1.4762970
  H       -1.3112260    -1.4900120     0.9147240
  H        3.4619600    -1.4629760    -0.0187660
  H        3.9104550    -0.5133060    -1.4317100
  H       -3.3684670    -0.8811940    -1.3941910
  H       -3.7626400    -1.8335820     0.0574350
  H       -4.7426360    -0.4191700    -0.3608330
  H       -0.4126977     1.1605416    -0.4586979
  H        2.0311270     1.1370710    -0.8883280
  H        1.1170930    -1.4649260     0.4609700
  H        4.5263310     1.4251690     0.0574090
  H        5.4690900    -0.0219830     0.4454750
  H        4.1044230     0.4539160     1.4740500
  H       -3.6221830     1.7324190    -0.1413340
units angstrom
no_reorient  #important for SAPT in psi4, default
symmetry c1  #important for SAPT in psi4, default
}

set PROPERTIES_ORIGIN ["COM"]
properties('MP2/aug-cc-pvtz', properties = ['dipole'])
--------------------------------------------------------------------------

    Molecular point group: c1
  Charge       = 0
  Multiplicity = 1
  Basis Set: AUG-CC-PVTZ
    Blend: AUG-CC-PVTZ
  Basis Set: (AUG-CC-PVTZ AUX)
    Blend: AUG-CC-PVTZ-JKFIT

    Orbital Energies [Eh]
    ---------------------

    Doubly Occupied:

       1A    -20.558683     2A    -11.287059     3A    -11.228879
       4A    -11.226627     5A    -11.224100     6A    -11.223698
       7A    -11.223412     8A    -11.220920     9A    -11.213180
      10A     -1.360040    11A     -1.096448    12A     -1.060429
      13A     -1.015219    14A     -0.961875    15A     -0.876027
      16A     -0.828151    17A     -0.752524    18A     -0.742750
      19A     -0.694547    20A     -0.634528    21A     -0.627305
      22A     -0.616188    23A     -0.589223    24A     -0.582643
      25A     -0.546083    26A     -0.542962    27A     -0.527490
      28A     -0.517933    29A     -0.497532    30A     -0.491005
      31A     -0.479335    32A     -0.467311    33A     -0.452806
      34A     -0.418010    35A     -0.297434

  @DF-RHF Final Energy:  -386.05982369736159

   => Energetics <=

    Nuclear Repulsion Energy =            417.2863073585542679
    One-Electron Energy =               -1350.5275530973260629
    Two-Electron Energy =                 547.1814220414102010
    Total Energy =                       -386.0598236973615940
  Basis Set: (AUG-CC-PVTZ AUX)
    Blend: AUG-CC-PVTZ-RI
    Molecular point group: c1

    Geometry (in Angstrom), charge = 0, multiplicity = 1:

       Center              X                  Y                   Z               Mass
    ------------   -----------------  -----------------  -----------------  -----------------
         O           -2.682804840769     1.362726532373    -0.132536906749    15.994914619570
         C           -2.749892840769     0.055442532373     0.442021093251    12.000000000000
         C           -1.364556840769    -0.512155467627     0.476142093251    12.000000000000
         C            3.541692159231    -0.457291467627    -0.410510906749    12.000000000000
         C           -3.690649840769    -0.840637467627    -0.360743906749    12.000000000000
         C           -0.269722840769     0.105228532373    -0.004885906749    12.000000000000
         C            2.161627159231     0.122749532373    -0.452582906749    12.000000000000
         C            1.057938159231    -0.485132467627     0.025466093251    12.000000000000
         C            4.493987159231     0.386093532373     0.443442093251    12.000000000000
         H           -3.124812840769     0.124552532373     1.478121093251     1.007825032230
         H           -1.277879840769    -1.506705467627     0.916548093251     1.007825032230
         H            3.495306159231    -1.479669467627    -0.016941906749     1.007825032230
         H            3.943801159231    -0.529999467627    -1.429885906749     1.007825032230
         H           -3.335120840769    -0.897887467627    -1.392366906749     1.007825032230
         H           -3.729293840769    -1.850275467627     0.059259093251     1.007825032230
         H           -4.709289840769    -0.435863467627    -0.359008906749     1.007825032230
         H           -0.379351540769     1.143848132373    -0.456873806749     1.007825032230
         H            2.064473159231     1.120377532373    -0.886503906749     1.007825032230
         H            1.150439159231    -1.481619467627     0.462794093251     1.007825032230
         H            4.559677159231     1.408475532373     0.059233093251     1.007825032230
         H            5.502436159231    -0.038676467627     0.447299093251     1.007825032230
         H            4.137769159231     0.437222532373     1.475874093251     1.007825032230
         H           -3.588836840769     1.715725532373    -0.139509906749     1.007825032230

  Basis Set: AUG-CC-PVTZ
    Blend: AUG-CC-PVTZ
  Basis Set: (AUG-CC-PVTZ AUX)
    Blend: AUG-CC-PVTZ-JKFIT
	 Reference Energy          =    -386.0598236973615940 [Eh]
	 Singles Energy            =      -0.0000000000000000 [Eh]
	 Same-Spin Energy          =      -0.4004578175210154 [Eh]
	 Opposite-Spin Energy      =      -1.3788747366955940 [Eh]
	 Correlation Energy        =      -1.7793325542166094 [Eh]
	 Total Energy              =    -387.8391562515782311 [Eh]

	 ================> DF-SCS-MP2 Energies <==================
	-----------------------------------------------------------
	 SCS Same-Spin Scale       =       0.3333333333333333 [-]
	 SCS Opposite-Spin Scale   =       1.2000000000000000 [-]
	 SCS Same-Spin Energy      =      -0.1334859391736718 [Eh]
	 SCS Opposite-Spin Energy  =      -1.6546496840347127 [Eh]
	 SCS Correlation Energy    =      -1.7881356232083845 [Eh]
	 SCS Total Energy          =    -387.8479593205699985 [Eh]
	-----------------------------------------------------------

  Dipole Moment: [D]
     X:    -1.2068      Y:    -0.6907      Z:     0.3931     Total:     1.4450

*** Psi4 exiting successfully. Buy a developer a beer!
