                               Psi4 1.3.2 release

  ==> Input File <==

--------------------------------------------------------------------------
#psi4
#
memory 32 gb

molecule  {
0 1
  O        2.6932640    -1.3344870    -0.0264310
  C        2.7508540     0.0254460     0.4069810
  C        1.3334552     0.6137972     0.4035878
  C       -3.5492030     0.3621160    -0.4101590
  C        3.6709050     0.8409920    -0.4958550
  C        0.2704120    -0.1024690    -0.0006590
  C       -2.1631840    -0.2004740    -0.4090490
  C       -1.0441557     0.5132259    -0.0001148
  C       -4.4702810    -0.3835230     0.5583970
  H        3.1361180     0.0688010     1.4404840
  H        1.2655190     1.6118880     0.7253080
  H       -3.5113520     1.4248880    -0.1442750
  H       -3.9713450     0.3050270    -1.4220020
  H        3.3060070     0.7827570    -1.5237190
  H        3.6990520     1.8899320    -0.1870900
  H        4.6948240     0.4527130    -0.4608140
  H        0.3841050    -1.1350190    -0.3229170
  H       -2.0573220    -1.2386810    -0.7303930
  H       -1.1648060     1.5075440     0.3065060
  H       -4.5255200    -1.4457790     0.3033390
  H       -5.4853170     0.0231860     0.5310900
  H       -4.0942820    -0.3029910     1.5815520
  H        3.6028580    -1.6773980    -0.0043180
units angstrom
no_reorient  #important for SAPT in psi4, default
symmetry c1  #important for SAPT in psi4, default
}

set PROPERTIES_ORIGIN ["COM"]
properties('MP2/aug-cc-pvtz', properties = ['dipole'])
--------------------------------------------------------------------------

    Molecular point group: c1
  Charge       = 0
  Multiplicity = 1
  Basis Set: AUG-CC-PVTZ
    Blend: AUG-CC-PVTZ
  Basis Set: (AUG-CC-PVTZ AUX)
    Blend: AUG-CC-PVTZ-JKFIT

    Orbital Energies [Eh]
    ---------------------

    Doubly Occupied:

       1A    -20.558838     2A    -11.286797     3A    -11.230936
       4A    -11.224801     5A    -11.223547     6A    -11.222609
       7A    -11.219921     8A    -11.219303     9A    -11.212409
      10A     -1.359496    11A     -1.094896    12A     -1.057867
      13A     -1.014096    14A     -0.957492    15A     -0.873521
      16A     -0.824490    17A     -0.758823    18A     -0.753693
      19A     -0.693405    20A     -0.636712    21A     -0.625745
      22A     -0.615586    23A     -0.592515    24A     -0.580560
      25A     -0.550452    26A     -0.543816    27A     -0.529071
      28A     -0.517652    29A     -0.508118    30A     -0.491587
      31A     -0.479595    32A     -0.461055    33A     -0.451156
      34A     -0.416090    35A     -0.290922

  @DF-RHF Final Energy:  -386.05509417552435

   => Energetics <=

    Nuclear Repulsion Energy =            417.2303202618124374
    One-Electron Energy =               -1350.4156866545927187
    Two-Electron Energy =                 547.1302722172558788
    Total Energy =                       -386.0550941755243457
  Basis Set: (AUG-CC-PVTZ AUX)
    Blend: AUG-CC-PVTZ-RI
    Molecular point group: c1

    Geometry (in Angstrom), charge = 0, multiplicity = 1:

       Center              X                  Y                   Z               Mass
    ------------   -----------------  -----------------  -----------------  -----------------
         O            2.694011387148    -1.342170581138    -0.028875506553    15.994914619570
         C            2.751601387148     0.017762418862     0.404536493447    12.000000000000
         C            1.334202587148     0.606113618862     0.401143293447    12.000000000000
         C           -3.548455612852     0.354432418862    -0.412603506553    12.000000000000
         C            3.671652387148     0.833308418862    -0.498299506553    12.000000000000
         C            0.271159387148    -0.110152581138    -0.003103506553    12.000000000000
         C           -2.162436612852    -0.208157581138    -0.411493506553    12.000000000000
         C           -1.043408312852     0.505542318862    -0.002559306553    12.000000000000
         C           -4.469533612852    -0.391206581138     0.555952493447    12.000000000000
         H            3.136865387148     0.061117418862     1.438039493447     1.007825032230
         H            1.266266387148     1.604204418862     0.722863493447     1.007825032230
         H           -3.510604612852     1.417204418862    -0.146719506553     1.007825032230
         H           -3.970597612852     0.297343418862    -1.424446506553     1.007825032230
         H            3.306754387148     0.775073418862    -1.526163506553     1.007825032230
         H            3.699799387148     1.882248418862    -0.189534506553     1.007825032230
         H            4.695571387148     0.445029418862    -0.463258506553     1.007825032230
         H            0.384852387148    -1.142702581138    -0.325361506553     1.007825032230
         H           -2.056574612852    -1.246364581138    -0.732837506553     1.007825032230
         H           -1.164058612852     1.499860418862     0.304061493447     1.007825032230
         H           -4.524772612852    -1.453462581138     0.300894493447     1.007825032230
         H           -5.484569612852     0.015502418862     0.528645493447     1.007825032230
         H           -4.093534612852    -0.310674581138     1.579107493447     1.007825032230
         H            3.603605387148    -1.685081581138    -0.006762506553     1.007825032230

  Basis Set: AUG-CC-PVTZ
    Blend: AUG-CC-PVTZ
  Basis Set: (AUG-CC-PVTZ AUX)
    Blend: AUG-CC-PVTZ-JKFIT
	 Reference Energy          =    -386.0550941755243457 [Eh]
	 Singles Energy            =      -0.0000000000000000 [Eh]
	 Same-Spin Energy          =      -0.4005288965774585 [Eh]
	 Opposite-Spin Energy      =      -1.3792374879142451 [Eh]
	 Correlation Energy        =      -1.7797663844917035 [Eh]
	 Total Energy              =    -387.8348605600160681 [Eh]

	 ================> DF-SCS-MP2 Energies <==================
	-----------------------------------------------------------
	 SCS Same-Spin Scale       =       0.3333333333333333 [-]
	 SCS Opposite-Spin Scale   =       1.2000000000000000 [-]
	 SCS Same-Spin Energy      =      -0.1335096321924862 [Eh]
	 SCS Opposite-Spin Energy  =      -1.6550849854970939 [Eh]
	 SCS Correlation Energy    =      -1.7885946176895802 [Eh]
	 SCS Total Energy          =    -387.8436887932139143 [Eh]
	-----------------------------------------------------------

  Dipole Moment: [D]
     X:     1.1817      Y:     0.7536      Z:     0.3195     Total:     1.4375

*** Psi4 exiting successfully. Buy a developer a beer!
