                               Psi4 1.4a3.dev225

  ==> Input File <==

--------------------------------------------------------------------------
#psi4
#
memory 32 gb

molecule  {
0 1
  O       -2.7161510     1.3794200    -0.1343610
  C       -2.7832390     0.0721360     0.4401970
  C       -1.3979030    -0.4954620     0.4743180
  C        3.5083460    -0.4405980    -0.4123350
  C       -3.7239960    -0.8239440    -0.3625680
  C       -0.3030690     0.1219220    -0.0067100
  C        2.1282810     0.1394430    -0.4544070
  C        1.0245920    -0.4684390     0.0236420
  C        4.4606410     0.4027870     0.4416180
  H       -3.1411791     0.1381161     1.4293727
  H       -1.3112260    -1.4900120     0.9147240
  H        3.4619600    -1.4629760    -0.0187660
  H        3.9104550    -0.5133060    -1.4317100
  H       -3.3684670    -0.8811940    -1.3941910
  H       -3.7626400    -1.8335820     0.0574350
  H       -4.7426360    -0.4191700    -0.3608330
  H       -0.4078810     1.1149080    -0.4388390
  H        2.0311270     1.1370710    -0.8883280
  H        1.1170930    -1.4649260     0.4609700
  H        4.5263310     1.4251690     0.0574090
  H        5.4690900    -0.0219830     0.4454750
  H        4.1044230     0.4539160     1.4740500
  H       -3.6221830     1.7324190    -0.1413340
units angstrom
no_reorient  #important for SAPT in psi4, default
symmetry c1  #important for SAPT in psi4, default
}

set PROPERTIES_ORIGIN ["COM"]
properties('MP2/aug-cc-pvtz', properties = ['dipole'])
--------------------------------------------------------------------------

    Molecular point group: c1
  Charge       = 0
  Multiplicity = 1
  Basis Set: AUG-CC-PVTZ
    Blend: AUG-CC-PVTZ
  Basis Set: (AUG-CC-PVTZ AUX)
    Blend: AUG-CC-PVTZ-JKFIT

    Orbital Energies [Eh]
    ---------------------

    Doubly Occupied:

       1A    -20.557915     2A    -11.280659     3A    -11.226325
       4A    -11.224043     5A    -11.223604     6A    -11.223389
       7A    -11.222118     8A    -11.220421     9A    -11.213052
      10A     -1.359691    11A     -1.097003    12A     -1.061154
      13A     -1.016388    14A     -0.961907    15A     -0.877358
      16A     -0.830636    17A     -0.753759    18A     -0.747723
      19A     -0.699287    20A     -0.636581    21A     -0.627985
      22A     -0.616729    23A     -0.589521    24A     -0.582596
      25A     -0.546306    26A     -0.543466    27A     -0.527448
      28A     -0.518246    29A     -0.500569    30A     -0.493477
      31A     -0.479252    32A     -0.467840    33A     -0.454122
      34A     -0.418298    35A     -0.297333

  @DF-RHF Final Energy:  -386.06174667471873

   => Energetics <=

    Nuclear Repulsion Energy =            417.7657989580017670
    One-Electron Energy =               -1351.4626866863802661
    Two-Electron Energy =                 547.6351410536597086
    Total Energy =                       -386.0617466747187336
  Basis Set: (AUG-CC-PVTZ AUX)
    Blend: AUG-CC-PVTZ-RI
    Molecular point group: c1

    Geometry (in Angstrom), charge = 0, multiplicity = 1:

       Center              X                  Y                   Z               Mass
    ------------   -----------------  -----------------  -----------------  -----------------
         O           -2.682979038876     1.363116249548    -0.132320600469    15.994914619570
         C           -2.750067038876     0.055832249548     0.442237399531    12.000000000000
         C           -1.364731038876    -0.511765750452     0.476358399531    12.000000000000
         C            3.541517961124    -0.456901750452    -0.410294600469    12.000000000000
         C           -3.690824038876    -0.840247750452    -0.360527600469    12.000000000000
         C           -0.269897038876     0.105618249548    -0.004669600469    12.000000000000
         C            2.161452961124     0.123139249548    -0.452366600469    12.000000000000
         C            1.057763961124    -0.484742750452     0.025682399531    12.000000000000
         C            4.493812961124     0.386483249548     0.443658399531    12.000000000000
         H           -3.108007138876     0.121812349548     1.431413099531     1.007825032230
         H           -1.278054038876    -1.506315750452     0.916764399531     1.007825032230
         H            3.495131961124    -1.479279750452    -0.016725600469     1.007825032230
         H            3.943626961124    -0.529609750452    -1.429669600469     1.007825032230
         H           -3.335295038876    -0.897497750452    -1.392150600469     1.007825032230
         H           -3.729468038876    -1.849885750452     0.059475399531     1.007825032230
         H           -4.709464038876    -0.435473750452    -0.358792600469     1.007825032230
         H           -0.374709038876     1.098604249548    -0.436798600469     1.007825032230
         H            2.064298961124     1.120767249548    -0.886287600469     1.007825032230
         H            1.150264961124    -1.481229750452     0.463010399531     1.007825032230
         H            4.559502961124     1.408865249548     0.059449399531     1.007825032230
         H            5.502261961124    -0.038286750452     0.447515399531     1.007825032230
         H            4.137594961124     0.437612249548     1.476090399531     1.007825032230
         H           -3.589011038876     1.716115249548    -0.139293600469     1.007825032230

  Basis Set: AUG-CC-PVTZ
    Blend: AUG-CC-PVTZ
  Basis Set: (AUG-CC-PVTZ AUX)
    Blend: AUG-CC-PVTZ-JKFIT
	 Reference Energy          =    -386.0617466747187336 [Eh]
	 Singles Energy            =      -0.0000000000000000 [Eh]
	 Same-Spin Energy          =      -0.4002085064066212 [Eh]
	 Opposite-Spin Energy      =      -1.3780737494039748 [Eh]
	 Correlation Energy        =      -1.7782822558105960 [Eh]
	 Total Energy              =    -387.8400289305293427 [Eh]

	 ================> DF-SCS-MP2 Energies <==================
	-----------------------------------------------------------
	 SCS Same-Spin Scale       =       0.3333333333333333 [-]
	 SCS Opposite-Spin Scale   =       1.2000000000000000 [-]
	 SCS Same-Spin Energy      =      -0.1334028354688737 [Eh]
	 SCS Opposite-Spin Energy  =      -1.6536884992847696 [Eh]
	 SCS Correlation Energy    =      -1.7870913347536432 [Eh]
	 SCS Total Energy          =    -387.8488380094723880 [Eh]
	-----------------------------------------------------------

  Dipole Moment: [D]
     X:    -1.2286      Y:    -0.6930      Z:     0.4278     Total:     1.4740

*** Psi4 exiting successfully. Buy a developer a beer!
