                               Psi4 1.3.2 release

  ==> Input File <==

--------------------------------------------------------------------------
#psi4
#
memory 32 gb

molecule  {
0 1
  O        2.7427183    -1.3374582    -0.0208114
  C        2.7508540     0.0254460     0.4069810
  C        1.3796154     0.6221307     0.4121893
  C       -3.5492030     0.3621160    -0.4101590
  C        3.6709050     0.8409920    -0.4958550
  C        0.2704120    -0.1024690    -0.0006590
  C       -2.1631840    -0.2004740    -0.4090490
  C       -1.0635270     0.4697970    -0.0176060
  C       -4.4702810    -0.3835230     0.5583970
  H        3.1361180     0.0688010     1.4404840
  H        1.2655190     1.6118880     0.7253080
  H       -3.5113520     1.4248880    -0.1442750
  H       -3.9713450     0.3050270    -1.4220020
  H        3.3060070     0.7827570    -1.5237190
  H        3.6990520     1.8899320    -0.1870900
  H        4.6948240     0.4527130    -0.4608140
  H        0.3841050    -1.1350190    -0.3229170
  H       -2.0573220    -1.2386810    -0.7303930
  H       -1.1648060     1.5075440     0.3065060
  H       -4.5255200    -1.4457790     0.3033390
  H       -5.4853170     0.0231860     0.5310900
  H       -4.0942820    -0.3029910     1.5815520
  H        3.6028580    -1.6773980    -0.0043180
units angstrom
no_reorient  #important for SAPT in psi4, default
symmetry c1  #important for SAPT in psi4, default
}

set PROPERTIES_ORIGIN ["COM"]
properties('MP2/aug-cc-pvtz', properties = ['dipole'])
--------------------------------------------------------------------------

    Molecular point group: c1
  Charge       = 0
  Multiplicity = 1
  Basis Set: AUG-CC-PVTZ
    Blend: AUG-CC-PVTZ
  Basis Set: (AUG-CC-PVTZ AUX)
    Blend: AUG-CC-PVTZ-JKFIT

    Orbital Energies [Eh]
    ---------------------

    Doubly Occupied:

       1A    -20.553405     2A    -11.287284     3A    -11.230703
       4A    -11.226510     5A    -11.226362     6A    -11.223802
       7A    -11.223567     8A    -11.218985     9A    -11.213145
      10A     -1.369122    11A     -1.096797    12A     -1.062050
      13A     -1.016210    14A     -0.959176    15A     -0.877856
      16A     -0.827939    17A     -0.763967    18A     -0.750987
      19A     -0.697960    20A     -0.639934    21A     -0.625367
      22A     -0.617278    23A     -0.594940    24A     -0.583589
      25A     -0.550073    26A     -0.542855    27A     -0.528479
      28A     -0.519786    29A     -0.506670    30A     -0.489613
      31A     -0.479168    32A     -0.467680    33A     -0.452916
      34A     -0.414999    35A     -0.292291

  @DF-RHF Final Energy:  -386.05758447145479

   => Energetics <=

    Nuclear Repulsion Energy =            417.2141003444986609
    One-Electron Energy =               -1350.2804387004830460
    Two-Electron Energy =                 547.0087538845295967
    Total Energy =                       -386.0575844714547884
  Basis Set: (AUG-CC-PVTZ AUX)
    Blend: AUG-CC-PVTZ-RI
    Molecular point group: c1

    Geometry (in Angstrom), charge = 0, multiplicity = 1:

       Center              X                  Y                   Z               Mass
    ------------   -----------------  -----------------  -----------------  -----------------
         O            2.734643762362    -1.341425268086    -0.023122752047    15.994914619570
         C            2.742779462362     0.021478931914     0.404669647953    12.000000000000
         C            1.371540862362     0.618163631914     0.409877947953    12.000000000000
         C           -3.557277537638     0.358148931914    -0.412470352047    12.000000000000
         C            3.662830462362     0.837024931914    -0.498166352047    12.000000000000
         C            0.262337462362    -0.106436068086    -0.002970352047    12.000000000000
         C           -2.171258537638    -0.204441068086    -0.411360352047    12.000000000000
         C           -1.071601537638     0.465829931914    -0.019917352047    12.000000000000
         C           -4.478355537638    -0.387490068086     0.556085647953    12.000000000000
         H            3.128043462362     0.064833931914     1.438172647953     1.007825032230
         H            1.257444462362     1.607920931914     0.722996647953     1.007825032230
         H           -3.519426537638     1.420920931914    -0.146586352047     1.007825032230
         H           -3.979419537638     0.301059931914    -1.424313352047     1.007825032230
         H            3.297932462362     0.778789931914    -1.526030352047     1.007825032230
         H            3.690977462362     1.885964931914    -0.189401352047     1.007825032230
         H            4.686749462362     0.448745931914    -0.463125352047     1.007825032230
         H            0.376030462362    -1.138986068086    -0.325228352047     1.007825032230
         H           -2.065396537638    -1.242648068086    -0.732704352047     1.007825032230
         H           -1.172880537638     1.503576931914     0.304194647953     1.007825032230
         H           -4.533594537638    -1.449746068086     0.301027647953     1.007825032230
         H           -5.493391537638     0.019218931914     0.528778647953     1.007825032230
         H           -4.102356537638    -0.306958068086     1.579240647953     1.007825032230
         H            3.594783462362    -1.681365068086    -0.006629352047     1.007825032230

  Basis Set: AUG-CC-PVTZ
    Blend: AUG-CC-PVTZ
  Basis Set: (AUG-CC-PVTZ AUX)
    Blend: AUG-CC-PVTZ-JKFIT
	 Reference Energy          =    -386.0575844714547884 [Eh]
	 Singles Energy            =      -0.0000000000000000 [Eh]
	 Same-Spin Energy          =      -0.4000982966942955 [Eh]
	 Opposite-Spin Energy      =      -1.3776856849043253 [Eh]
	 Correlation Energy        =      -1.7777839815986207 [Eh]
	 Total Energy              =    -387.8353684530534338 [Eh]

	 ================> DF-SCS-MP2 Energies <==================
	-----------------------------------------------------------
	 SCS Same-Spin Scale       =       0.3333333333333333 [-]
	 SCS Opposite-Spin Scale   =       1.2000000000000000 [-]
	 SCS Same-Spin Energy      =      -0.1333660988980985 [Eh]
	 SCS Opposite-Spin Energy  =      -1.6532228218851903 [Eh]
	 SCS Correlation Energy    =      -1.7865889207832888 [Eh]
	 SCS Total Energy          =    -387.8441733922380763 [Eh]
	-----------------------------------------------------------

  Dipole Moment: [D]
     X:     1.0896      Y:     0.7651      Z:     0.3230     Total:     1.3700

*** Psi4 exiting successfully. Buy a developer a beer!
