                               Psi4 1.3.2 release

  ==> Input File <==

--------------------------------------------------------------------------
#psi4
#
memory 32 gb

molecule  {
0 1
  O        2.6667170    -1.3103892    -0.0920637
  C        2.7508540     0.0254460     0.4069810
  C        1.3606810     0.5764810     0.3953890
  C       -3.5492030     0.3621160    -0.4101590
  C        3.6709050     0.8409920    -0.4958550
  C        0.2704120    -0.1024690    -0.0006590
  C       -2.1631840    -0.2004740    -0.4090490
  C       -1.0635270     0.4697970    -0.0176060
  C       -4.4702810    -0.3835230     0.5583970
  H        3.1308805     0.1263154     1.4384080
  H        1.2655190     1.6118880     0.7253080
  H       -3.5113520     1.4248880    -0.1442750
  H       -3.9713450     0.3050270    -1.4220020
  H        3.3060070     0.7827570    -1.5237190
  H        3.6990520     1.8899320    -0.1870900
  H        4.6948240     0.4527130    -0.4608140
  H        0.3841050    -1.1350190    -0.3229170
  H       -2.0573220    -1.2386810    -0.7303930
  H       -1.1648060     1.5075440     0.3065060
  H       -4.5255200    -1.4457790     0.3033390
  H       -5.4853170     0.0231860     0.5310900
  H       -4.0942820    -0.3029910     1.5815520
  H        3.6028580    -1.6773980    -0.0043180
units angstrom
no_reorient  #important for SAPT in psi4, default
symmetry c1  #important for SAPT in psi4, default
}

set PROPERTIES_ORIGIN ["COM"]
properties('MP2/aug-cc-pvtz', properties = ['dipole'])
--------------------------------------------------------------------------

    Molecular point group: c1
  Charge       = 0
  Multiplicity = 1
  Basis Set: AUG-CC-PVTZ
    Blend: AUG-CC-PVTZ
  Basis Set: (AUG-CC-PVTZ AUX)
    Blend: AUG-CC-PVTZ-JKFIT

    Orbital Energies [Eh]
    ---------------------

    Doubly Occupied:

       1A    -20.565346     2A    -11.286517     3A    -11.225260
       4A    -11.222904     5A    -11.222686     6A    -11.222130
       7A    -11.220634     8A    -11.218935     9A    -11.212500
      10A     -1.356464    11A     -1.096935    12A     -1.060098
      13A     -1.015470    14A     -0.961999    15A     -0.875529
      16A     -0.827161    17A     -0.751760    18A     -0.744130
      19A     -0.695791    20A     -0.637650    21A     -0.627239
      22A     -0.612634    23A     -0.588615    24A     -0.580667
      25A     -0.546434    26A     -0.543041    27A     -0.527474
      28A     -0.518048    29A     -0.499902    30A     -0.493006
      31A     -0.478672    32A     -0.466931    33A     -0.453448
      34A     -0.417738    35A     -0.296674

  @DF-RHF Final Energy:  -386.05651185691880

   => Energetics <=

    Nuclear Repulsion Energy =            418.3352153387193653
    One-Electron Energy =               -1352.6426124251247529
    Two-Electron Energy =                 548.2508852294865846
    Total Energy =                       -386.0565118569188598
  Basis Set: (AUG-CC-PVTZ AUX)
    Blend: AUG-CC-PVTZ-RI
    Molecular point group: c1

    Geometry (in Angstrom), charge = 0, multiplicity = 1:

       Center              X                  Y                   Z               Mass
    ------------   -----------------  -----------------  -----------------  -----------------
         O            2.670126001722    -1.313905327637    -0.083722215139    15.994914619570
         C            2.754263001722     0.021929872363     0.415322484861    12.000000000000
         C            1.364090001722     0.572964872363     0.403730484861    12.000000000000
         C           -3.545793998278     0.358599872363    -0.401817515139    12.000000000000
         C            3.674314001722     0.837475872363    -0.487513515139    12.000000000000
         C            0.273821001722    -0.105985127637     0.007682484861    12.000000000000
         C           -2.159774998278    -0.203990127637    -0.400707515139    12.000000000000
         C           -1.060117998278     0.466280872363    -0.009264515139    12.000000000000
         C           -4.466871998278    -0.387039127637     0.566738484861    12.000000000000
         H            3.134289501722     0.122799272363     1.446749484861     1.007825032230
         H            1.268928001722     1.608371872363     0.733649484861     1.007825032230
         H           -3.507942998278     1.421371872363    -0.135933515139     1.007825032230
         H           -3.967935998278     0.301510872363    -1.413660515139     1.007825032230
         H            3.309416001722     0.779240872363    -1.515377515139     1.007825032230
         H            3.702461001722     1.886415872363    -0.178748515139     1.007825032230
         H            4.698233001722     0.449196872363    -0.452472515139     1.007825032230
         H            0.387514001722    -1.138535127637    -0.314575515139     1.007825032230
         H           -2.053912998278    -1.242197127637    -0.722051515139     1.007825032230
         H           -1.161396998278     1.504027872363     0.314847484861     1.007825032230
         H           -4.522110998278    -1.449295127637     0.311680484861     1.007825032230
         H           -5.481907998278     0.019669872363     0.539431484861     1.007825032230
         H           -4.090872998278    -0.306507127637     1.589893484861     1.007825032230
         H            3.606267001722    -1.680914127637     0.004023484861     1.007825032230

  Basis Set: AUG-CC-PVTZ
    Blend: AUG-CC-PVTZ
  Basis Set: (AUG-CC-PVTZ AUX)
    Blend: AUG-CC-PVTZ-JKFIT
	 Reference Energy          =    -386.0565118569188030 [Eh]
	 Singles Energy            =      -0.0000000000000000 [Eh]
	 Same-Spin Energy          =      -0.4011711522892345 [Eh]
	 Opposite-Spin Energy      =      -1.3800836412032016 [Eh]
	 Correlation Energy        =      -1.7812547934924361 [Eh]
	 Total Energy              =    -387.8377666504112540 [Eh]

	 ================> DF-SCS-MP2 Energies <==================
	-----------------------------------------------------------
	 SCS Same-Spin Scale       =       0.3333333333333333 [-]
	 SCS Opposite-Spin Scale   =       1.2000000000000000 [-]
	 SCS Same-Spin Energy      =      -0.1337237174297448 [Eh]
	 SCS Opposite-Spin Energy  =      -1.6561003694438419 [Eh]
	 SCS Correlation Energy    =      -1.7898240868735866 [Eh]
	 SCS Total Energy          =    -387.8463359437923827 [Eh]
	-----------------------------------------------------------

  Dipole Moment: [D]
     X:     1.2579      Y:     0.6391      Z:     0.4451     Total:     1.4795

*** Psi4 exiting successfully. Buy a developer a beer!
