                               Psi4 1.4a3.dev225

  ==> Input File <==

--------------------------------------------------------------------------
#psi4
#
memory 32 gb

molecule  {
0 1
  O       -2.7161510     1.3794200    -0.1343610
  C       -2.7832390     0.0721360     0.4401970
  C       -1.3979030    -0.4954620     0.4743180
  C        3.5083460    -0.4405980    -0.4123350
  C       -3.7239960    -0.8239440    -0.3625680
  C       -0.3030690     0.1219220    -0.0067100
  C        2.1282810     0.1394430    -0.4544070
  C        1.0245920    -0.4684390     0.0236420
  C        4.4606410     0.4027870     0.4416180
  H       -3.1581590     0.1412460     1.4762970
  H       -1.3112260    -1.4900120     0.9147240
  H        3.4619600    -1.4629760    -0.0187660
  H        3.9104550    -0.5133060    -1.4317100
  H       -3.3684670    -0.8811940    -1.3941910
  H       -3.7626400    -1.8335820     0.0574350
  H       -4.7426360    -0.4191700    -0.3608330
  H       -0.4030643     1.0692744    -0.4189801
  H        2.0311270     1.1370710    -0.8883280
  H        1.1170930    -1.4649260     0.4609700
  H        4.5263310     1.4251690     0.0574090
  H        5.4690900    -0.0219830     0.4454750
  H        4.1044230     0.4539160     1.4740500
  H       -3.6221830     1.7324190    -0.1413340
units angstrom
no_reorient  #important for SAPT in psi4, default
symmetry c1  #important for SAPT in psi4, default
}

set PROPERTIES_ORIGIN ["COM"]
properties('MP2/aug-cc-pvtz', properties = ['dipole'])
--------------------------------------------------------------------------

    Molecular point group: c1
  Charge       = 0
  Multiplicity = 1
  Basis Set: AUG-CC-PVTZ
    Blend: AUG-CC-PVTZ
  Basis Set: (AUG-CC-PVTZ AUX)
    Blend: AUG-CC-PVTZ-JKFIT

    Orbital Energies [Eh]
    ---------------------

    Doubly Occupied:

       1A    -20.558939     2A    -11.287028     3A    -11.226409
       4A    -11.223729     5A    -11.223489     6A    -11.223278
       7A    -11.220976     8A    -11.217638     9A    -11.213107
      10A     -1.360229    11A     -1.097909    12A     -1.060901
      13A     -1.016115    14A     -0.962330    15A     -0.876871
      16A     -0.828814    17A     -0.753965    18A     -0.752137
      19A     -0.695148    20A     -0.639502    21A     -0.627360
      22A     -0.616791    23A     -0.590327    24A     -0.582890
      25A     -0.546957    26A     -0.544176    27A     -0.527373
      28A     -0.518794    29A     -0.504235    30A     -0.492960
      31A     -0.479261    32A     -0.468119    33A     -0.452885
      34A     -0.417810    35A     -0.297262

  @DF-RHF Final Energy:  -386.06164082544149

   => Energetics <=

    Nuclear Repulsion Energy =            417.7291065779155019
    One-Electron Energy =               -1351.3700644263119557
    Two-Electron Energy =                 547.5793170229550242
    Total Energy =                       -386.0616408254414864
  Basis Set: (AUG-CC-PVTZ AUX)
    Blend: AUG-CC-PVTZ-RI
    Molecular point group: c1

    Geometry (in Angstrom), charge = 0, multiplicity = 1:

       Center              X                  Y                   Z               Mass
    ------------   -----------------  -----------------  -----------------  -----------------
         O           -2.682881830760     1.363455938494    -0.132854330823    15.994914619570
         C           -2.749969830760     0.056171938494     0.441703669177    12.000000000000
         C           -1.364633830760    -0.511426061506     0.475824669177    12.000000000000
         C            3.541615169240    -0.456562061506    -0.410828330823    12.000000000000
         C           -3.690726830760    -0.839908061506    -0.361061330823    12.000000000000
         C           -0.269799830760     0.105957938494    -0.005203330823    12.000000000000
         C            2.161550169240     0.123478938494    -0.452900330823    12.000000000000
         C            1.057861169240    -0.484403061506     0.025148669177    12.000000000000
         C            4.493910169240     0.386822938494     0.443124669177    12.000000000000
         H           -3.124889830760     0.125281938494     1.477803669177     1.007825032230
         H           -1.277956830760    -1.505976061506     0.916230669177     1.007825032230
         H            3.495229169240    -1.478940061506    -0.017259330823     1.007825032230
         H            3.943724169240    -0.529270061506    -1.430203330823     1.007825032230
         H           -3.335197830760    -0.897158061506    -1.392684330823     1.007825032230
         H           -3.729370830760    -1.849546061506     0.058941669177     1.007825032230
         H           -4.709366830760    -0.435134061506    -0.359326330823     1.007825032230
         H           -0.369795130760     1.053310338494    -0.417473430823     1.007825032230
         H            2.064396169240     1.121106938494    -0.886821330823     1.007825032230
         H            1.150362169240    -1.480890061506     0.462476669177     1.007825032230
         H            4.559600169240     1.409204938494     0.058915669177     1.007825032230
         H            5.502359169240    -0.037947061506     0.446981669177     1.007825032230
         H            4.137692169240     0.437951938494     1.475556669177     1.007825032230
         H           -3.588913830760     1.716454938494    -0.139827330823     1.007825032230

  Basis Set: AUG-CC-PVTZ
    Blend: AUG-CC-PVTZ
  Basis Set: (AUG-CC-PVTZ AUX)
    Blend: AUG-CC-PVTZ-JKFIT
	 Reference Energy          =    -386.0616408254414864 [Eh]
	 Singles Energy            =      -0.0000000000000000 [Eh]
	 Same-Spin Energy          =      -0.4001041825051929 [Eh]
	 Opposite-Spin Energy      =      -1.3780475395204419 [Eh]
	 Correlation Energy        =      -1.7781517220256347 [Eh]
	 Total Energy              =    -387.8397925474671410 [Eh]

	 ================> DF-SCS-MP2 Energies <==================
	-----------------------------------------------------------
	 SCS Same-Spin Scale       =       0.3333333333333333 [-]
	 SCS Opposite-Spin Scale   =       1.2000000000000000 [-]
	 SCS Same-Spin Energy      =      -0.1333680608350643 [Eh]
	 SCS Opposite-Spin Energy  =      -1.6536570474245302 [Eh]
	 SCS Correlation Energy    =      -1.7870251082595945 [Eh]
	 SCS Total Energy          =    -387.8486659337010565 [Eh]
	-----------------------------------------------------------

  Dipole Moment: [D]
     X:    -1.2112      Y:    -0.6831      Z:     0.3900     Total:     1.4442

*** Psi4 exiting successfully. Buy a developer a beer!
