                               Psi4 1.3.2 release

  ==> Input File <==

--------------------------------------------------------------------------
#psi4
#
memory 32 gb

molecule  {
0 1
  O        2.7674529    -1.3383212    -0.0178058
  C        2.7508540     0.0254460     0.4069810
  C        1.3897107     0.6446863     0.4205883
  C       -3.5492030     0.3621160    -0.4101590
  C        3.6709050     0.8409920    -0.4958550
  C        0.2704120    -0.1024690    -0.0006590
  C       -2.1631840    -0.2004740    -0.4090490
  C       -1.0635270     0.4697970    -0.0176060
  C       -4.4702810    -0.3835230     0.5583970
  H        3.1361180     0.0688010     1.4404840
  H        1.2655190     1.6118880     0.7253080
  H       -3.5113520     1.4248880    -0.1442750
  H       -3.9713450     0.3050270    -1.4220020
  H        3.3060070     0.7827570    -1.5237190
  H        3.6990520     1.8899320    -0.1870900
  H        4.6948240     0.4527130    -0.4608140
  H        0.3841050    -1.1350190    -0.3229170
  H       -2.0573220    -1.2386810    -0.7303930
  H       -1.1648060     1.5075440     0.3065060
  H       -4.5255200    -1.4457790     0.3033390
  H       -5.4853170     0.0231860     0.5310900
  H       -4.0942820    -0.3029910     1.5815520
  H        3.6028580    -1.6773980    -0.0043180
units angstrom
no_reorient  #important for SAPT in psi4, default
symmetry c1  #important for SAPT in psi4, default
}

set PROPERTIES_ORIGIN ["COM"]
properties('MP2/aug-cc-pvtz', properties = ['dipole'])
--------------------------------------------------------------------------

    Molecular point group: c1
  Charge       = 0
  Multiplicity = 1
  Basis Set: AUG-CC-PVTZ
    Blend: AUG-CC-PVTZ
  Basis Set: (AUG-CC-PVTZ AUX)
    Blend: AUG-CC-PVTZ-JKFIT

    Orbital Energies [Eh]
    ---------------------

    Doubly Occupied:

       1A    -20.550670     2A    -11.288018     3A    -11.234638
       4A    -11.228449     5A    -11.226902     6A    -11.224154
       7A    -11.223873     8A    -11.218243     9A    -11.213360
      10A     -1.374061    11A     -1.096491    12A     -1.062725
      13A     -1.016331    14A     -0.957661    15A     -0.878541
      16A     -0.828169    17A     -0.771764    18A     -0.750757
      19A     -0.699410    20A     -0.641888    21A     -0.624079
      22A     -0.617493    23A     -0.598702    24A     -0.583151
      25A     -0.552493    26A     -0.542256    27A     -0.528846
      28A     -0.520066    29A     -0.508729    30A     -0.488607
      31A     -0.479165    32A     -0.466313    33A     -0.452967
      34A     -0.413610    35A     -0.289723

  @DF-RHF Final Energy:  -386.04937124680077

   => Energetics <=

    Nuclear Repulsion Energy =            416.8501285749158001
    One-Electron Energy =               -1349.4943968283191680
    Two-Electron Energy =                 546.5948970066026504
    Total Energy =                       -386.0493712468007743
  Basis Set: (AUG-CC-PVTZ AUX)
    Blend: AUG-CC-PVTZ-RI
    Molecular point group: c1

    Geometry (in Angstrom), charge = 0, multiplicity = 1:

       Center              X                  Y                   Z               Mass
    ------------   -----------------  -----------------  -----------------  -----------------
         O            2.755280399496    -1.344325179218    -0.021297620282    15.994914619570
         C            2.738681499496     0.019442020782     0.403489179718    12.000000000000
         C            1.377538199496     0.638682320782     0.417096479718    12.000000000000
         C           -3.561375500504     0.356112020782    -0.413650820282    12.000000000000
         C            3.658732499496     0.834988020782    -0.499346820282    12.000000000000
         C            0.258239499496    -0.108472979218    -0.004150820282    12.000000000000
         C           -2.175356500504    -0.206477979218    -0.412540820282    12.000000000000
         C           -1.075699500504     0.463793020782    -0.021097820282    12.000000000000
         C           -4.482453500504    -0.389526979218     0.554905179718    12.000000000000
         H            3.123945499496     0.062797020782     1.436992179718     1.007825032230
         H            1.253346499496     1.605884020782     0.721816179718     1.007825032230
         H           -3.523524500504     1.418884020782    -0.147766820282     1.007825032230
         H           -3.983517500504     0.299023020782    -1.425493820282     1.007825032230
         H            3.293834499496     0.776753020782    -1.527210820282     1.007825032230
         H            3.686879499496     1.883928020782    -0.190581820282     1.007825032230
         H            4.682651499496     0.446709020782    -0.464305820282     1.007825032230
         H            0.371932499496    -1.141022979218    -0.326408820282     1.007825032230
         H           -2.069494500504    -1.244684979218    -0.733884820282     1.007825032230
         H           -1.176978500504     1.501540020782     0.303014179718     1.007825032230
         H           -4.537692500504    -1.451782979218     0.299847179718     1.007825032230
         H           -5.497489500504     0.017182020782     0.527598179718     1.007825032230
         H           -4.106454500504    -0.308994979218     1.578060179718     1.007825032230
         H            3.590685499496    -1.683401979218    -0.007809820282     1.007825032230

  Basis Set: AUG-CC-PVTZ
    Blend: AUG-CC-PVTZ
  Basis Set: (AUG-CC-PVTZ AUX)
    Blend: AUG-CC-PVTZ-JKFIT
	 Reference Energy          =    -386.0493712468007743 [Eh]
	 Singles Energy            =      -0.0000000000000000 [Eh]
	 Same-Spin Energy          =      -0.4000892146900428 [Eh]
	 Opposite-Spin Energy      =      -1.3776648503462137 [Eh]
	 Correlation Energy        =      -1.7777540650362564 [Eh]
	 Total Energy              =    -387.8271253118370510 [Eh]

	 ================> DF-SCS-MP2 Energies <==================
	-----------------------------------------------------------
	 SCS Same-Spin Scale       =       0.3333333333333333 [-]
	 SCS Opposite-Spin Scale   =       1.2000000000000000 [-]
	 SCS Same-Spin Energy      =      -0.1333630715633476 [Eh]
	 SCS Opposite-Spin Energy  =      -1.6531978204154563 [Eh]
	 SCS Correlation Energy    =      -1.7865608919788039 [Eh]
	 SCS Total Energy          =    -387.8359321387795831 [Eh]
	-----------------------------------------------------------

  Dipole Moment: [D]
     X:     1.0292      Y:     0.7793      Z:     0.3278     Total:     1.3319

*** Psi4 exiting successfully. Buy a developer a beer!
