                               Psi4 1.3.2 release

  ==> Input File <==

--------------------------------------------------------------------------
#psi4
#
memory 32 gb

molecule  {
0 1
  O        2.6932640    -1.3344870    -0.0264310
  C        2.7508540     0.0254460     0.4069810
  C        1.3606810     0.5764810     0.3953890
  C       -3.5492030     0.3621160    -0.4101590
  C        3.6709050     0.8409920    -0.4958550
  C        0.2704120    -0.1024690    -0.0006590
  C       -2.1631840    -0.2004740    -0.4090490
  C       -1.0570226     0.4602414    -0.0196925
  C       -4.4702810    -0.3835230     0.5583970
  H        3.1361180     0.0688010     1.4404840
  H        1.2655190     1.6118880     0.7253080
  H       -3.5113520     1.4248880    -0.1442750
  H       -3.9713450     0.3050270    -1.4220020
  H        3.3060070     0.7827570    -1.5237190
  H        3.6990520     1.8899320    -0.1870900
  H        4.6948240     0.4527130    -0.4608140
  H        0.3841050    -1.1350190    -0.3229170
  H       -2.0479476    -1.2381881    -0.7287559
  H       -1.1648060     1.5075440     0.3065060
  H       -4.5255200    -1.4457790     0.3033390
  H       -5.4853170     0.0231860     0.5310900
  H       -4.0942820    -0.3029910     1.5815520
  H        3.6028580    -1.6773980    -0.0043180
units angstrom
no_reorient  #important for SAPT in psi4, default
symmetry c1  #important for SAPT in psi4, default
}

set PROPERTIES_ORIGIN ["COM"]
properties('MP2/aug-cc-pvtz', properties = ['dipole'])
--------------------------------------------------------------------------

    Molecular point group: c1
  Charge       = 0
  Multiplicity = 1
  Basis Set: AUG-CC-PVTZ
    Blend: AUG-CC-PVTZ
  Basis Set: (AUG-CC-PVTZ AUX)
    Blend: AUG-CC-PVTZ-JKFIT

    Orbital Energies [Eh]
    ---------------------

    Doubly Occupied:

       1A    -20.558775     2A    -11.286640     3A    -11.225853
       4A    -11.223750     5A    -11.223573     6A    -11.223092
       7A    -11.221527     8A    -11.220661     9A    -11.212924
      10A     -1.360685    11A     -1.098579    12A     -1.061437
      13A     -1.016839    14A     -0.962572    15A     -0.877287
      16A     -0.828777    17A     -0.752244    18A     -0.747670
      19A     -0.695258    20A     -0.637221    21A     -0.628684
      22A     -0.616686    23A     -0.589844    24A     -0.583395
      25A     -0.546605    26A     -0.543553    27A     -0.526237
      28A     -0.518989    29A     -0.500329    30A     -0.491893
      31A     -0.478762    32A     -0.469055    33A     -0.453188
      34A     -0.419419    35A     -0.296900

  @DF-RHF Final Energy:  -386.06214519229002

   => Energetics <=

    Nuclear Repulsion Energy =            418.0983832770480717
    One-Electron Energy =               -1352.1232474191058373
    Two-Electron Energy =                 547.9627189497678046
    Total Energy =                       -386.0621451922900178
  Basis Set: (AUG-CC-PVTZ AUX)
    Blend: AUG-CC-PVTZ-RI
    Molecular point group: c1

    Geometry (in Angstrom), charge = 0, multiplicity = 1:

       Center              X                  Y                   Z               Mass
    ------------   -----------------  -----------------  -----------------  -----------------
         O            2.692570085646    -1.333581578025    -0.026245400716    15.994914619570
         C            2.750160085646     0.026351421975     0.407166599284    12.000000000000
         C            1.359987085646     0.577386421975     0.395574599284    12.000000000000
         C           -3.549896914354     0.363021421975    -0.409973400716    12.000000000000
         C            3.670211085646     0.841897421975    -0.495669400716    12.000000000000
         C            0.269718085646    -0.101563578025    -0.000473400716    12.000000000000
         C           -2.163877914354    -0.199568578025    -0.408863400716    12.000000000000
         C           -1.057716514354     0.461146821975    -0.019506900716    12.000000000000
         C           -4.470974914354    -0.382617578025     0.558582599284    12.000000000000
         H            3.135424085646     0.069706421975     1.440669599284     1.007825032230
         H            1.264825085646     1.612793421975     0.725493599284     1.007825032230
         H           -3.512045914354     1.425793421975    -0.144089400716     1.007825032230
         H           -3.972038914354     0.305932421975    -1.421816400716     1.007825032230
         H            3.305313085646     0.783662421975    -1.523533400716     1.007825032230
         H            3.698358085646     1.890837421975    -0.186904400716     1.007825032230
         H            4.694130085646     0.453618421975    -0.460628400716     1.007825032230
         H            0.383411085646    -1.134113578025    -0.322731400716     1.007825032230
         H           -2.048641514354    -1.237282678025    -0.728570300716     1.007825032230
         H           -1.165499914354     1.508449421975     0.306691599284     1.007825032230
         H           -4.526213914354    -1.444873578025     0.303524599284     1.007825032230
         H           -5.486010914354     0.024091421975     0.531275599284     1.007825032230
         H           -4.094975914354    -0.302085578025     1.581737599284     1.007825032230
         H            3.602164085646    -1.676492578025    -0.004132400716     1.007825032230

  Basis Set: AUG-CC-PVTZ
    Blend: AUG-CC-PVTZ
  Basis Set: (AUG-CC-PVTZ AUX)
    Blend: AUG-CC-PVTZ-JKFIT
	 Reference Energy          =    -386.0621451922900178 [Eh]
	 Singles Energy            =      -0.0000000000000000 [Eh]
	 Same-Spin Energy          =      -0.4005105345250584 [Eh]
	 Opposite-Spin Energy      =      -1.3784864353486856 [Eh]
	 Correlation Energy        =      -1.7789969698737440 [Eh]
	 Total Energy              =    -387.8411421621637487 [Eh]

	 ================> DF-SCS-MP2 Energies <==================
	-----------------------------------------------------------
	 SCS Same-Spin Scale       =       0.3333333333333333 [-]
	 SCS Opposite-Spin Scale   =       1.2000000000000000 [-]
	 SCS Same-Spin Energy      =      -0.1335035115083528 [Eh]
	 SCS Opposite-Spin Energy  =      -1.6541837224184228 [Eh]
	 SCS Correlation Energy    =      -1.7876872339267755 [Eh]
	 SCS Total Energy          =    -387.8498324262167785 [Eh]
	-----------------------------------------------------------

  Dipole Moment: [D]
     X:     1.2111      Y:     0.7259      Z:     0.3101     Total:     1.4456

*** Psi4 exiting successfully. Buy a developer a beer!
