                               Psi4 1.3.2 release

  ==> Input File <==

--------------------------------------------------------------------------
#psi4
#
memory 32 gb

molecule  {
0 1
  O        2.6932640    -1.3344870    -0.0264310
  C        2.7508540     0.0254460     0.4069810
  C        1.3606810     0.5764810     0.3953890
  C       -3.5492030     0.3621160    -0.4101590
  C        3.6709050     0.8409920    -0.4958550
  C        0.2704120    -0.1024690    -0.0006590
  C       -2.1631840    -0.2004740    -0.4090490
  C       -1.0635270     0.4697970    -0.0176060
  C       -4.4749645    -0.3605747     0.5712414
  H        3.1361180     0.0688010     1.4404840
  H        1.2655190     1.6118880     0.7253080
  H       -3.5233600     1.4215142    -0.1297682
  H       -3.9713450     0.3050270    -1.4220020
  H        3.3060070     0.7827570    -1.5237190
  H        3.6990520     1.8899320    -0.1870900
  H        4.6948240     0.4527130    -0.4608140
  H        0.3841050    -1.1350190    -0.3229170
  H       -2.0573220    -1.2386810    -0.7303930
  H       -1.1648060     1.5075440     0.3065060
  H       -4.5255200    -1.4457790     0.3033390
  H       -5.4853170     0.0231860     0.5310900
  H       -4.0942820    -0.3029910     1.5815520
  H        3.6028580    -1.6773980    -0.0043180
units angstrom
no_reorient  #important for SAPT in psi4, default
symmetry c1  #important for SAPT in psi4, default
}

set PROPERTIES_ORIGIN ["COM"]
properties('MP2/aug-cc-pvtz', properties = ['dipole'])
--------------------------------------------------------------------------

    Molecular point group: c1
  Charge       = 0
  Multiplicity = 1
  Basis Set: AUG-CC-PVTZ
    Blend: AUG-CC-PVTZ
  Basis Set: (AUG-CC-PVTZ AUX)
    Blend: AUG-CC-PVTZ-JKFIT

    Orbital Energies [Eh]
    ---------------------

    Doubly Occupied:

       1A    -20.558769     2A    -11.286578     3A    -11.226132
       4A    -11.223818     5A    -11.223297     6A    -11.223099
       7A    -11.221896     8A    -11.220633     9A    -11.212639
      10A     -1.360671    11A     -1.097861    12A     -1.061299
      13A     -1.016248    14A     -0.962687    15A     -0.876645
      16A     -0.828399    17A     -0.752300    18A     -0.748179
      19A     -0.695343    20A     -0.637225    21A     -0.628626
      22A     -0.616723    23A     -0.590936    24A     -0.583062
      25A     -0.546412    26A     -0.543292    27A     -0.526254
      28A     -0.519856    29A     -0.502824    30A     -0.492568
      31A     -0.474485    32A     -0.468995    33A     -0.453066
      34A     -0.418530    35A     -0.297740

  @DF-RHF Final Energy:  -386.06176518713988

   => Energetics <=

    Nuclear Repulsion Energy =            417.9552556813171691
    One-Electron Energy =               -1351.8398715720086329
    Two-Electron Energy =                 547.8228507035516941
    Total Energy =                       -386.0617651871398266
  Basis Set: (AUG-CC-PVTZ AUX)
    Blend: AUG-CC-PVTZ-RI
    Molecular point group: c1

    Geometry (in Angstrom), charge = 0, multiplicity = 1:

       Center              X                  Y                   Z               Mass
    ------------   -----------------  -----------------  -----------------  -----------------
         O            2.693805605085    -1.336643720533    -0.027769067667    15.994914619570
         C            2.751395605085     0.023289279467     0.405642932333    12.000000000000
         C            1.361222605085     0.574324279467     0.394050932333    12.000000000000
         C           -3.548661394915     0.359959279467    -0.411497067667    12.000000000000
         C            3.671446605085     0.838835279467    -0.497193067667    12.000000000000
         C            0.270953605085    -0.104625720533    -0.001997067667    12.000000000000
         C           -2.162642394915    -0.202630720533    -0.410387067667    12.000000000000
         C           -1.062985394915     0.467640279467    -0.018944067667    12.000000000000
         C           -4.474422894915    -0.362731420533     0.569903332333    12.000000000000
         H            3.136659605085     0.066644279467     1.439145932333     1.007825032230
         H            1.266060605085     1.609731279467     0.723969932333     1.007825032230
         H           -3.522818394915     1.419357479467    -0.131106267667     1.007825032230
         H           -3.970803394915     0.302870279467    -1.423340067667     1.007825032230
         H            3.306548605085     0.780600279467    -1.525057067667     1.007825032230
         H            3.699593605085     1.887775279467    -0.188428067667     1.007825032230
         H            4.695365605085     0.450556279467    -0.462152067667     1.007825032230
         H            0.384646605085    -1.137175720533    -0.324255067667     1.007825032230
         H           -2.056780394915    -1.240837720533    -0.731731067667     1.007825032230
         H           -1.164264394915     1.505387279467     0.305167932333     1.007825032230
         H           -4.524978394915    -1.447935720533     0.302000932333     1.007825032230
         H           -5.484775394915     0.021029279467     0.529751932333     1.007825032230
         H           -4.093740394915    -0.305147720533     1.580213932333     1.007825032230
         H            3.603399605085    -1.679554720533    -0.005656067667     1.007825032230

  Basis Set: AUG-CC-PVTZ
    Blend: AUG-CC-PVTZ
  Basis Set: (AUG-CC-PVTZ AUX)
    Blend: AUG-CC-PVTZ-JKFIT
	 Reference Energy          =    -386.0617651871398834 [Eh]
	 Singles Energy            =      -0.0000000000000000 [Eh]
	 Same-Spin Energy          =      -0.4003404916362163 [Eh]
	 Opposite-Spin Energy      =      -1.3783501460711012 [Eh]
	 Correlation Energy        =      -1.7786906377073175 [Eh]
	 Total Energy              =    -387.8404558248471972 [Eh]

	 ================> DF-SCS-MP2 Energies <==================
	-----------------------------------------------------------
	 SCS Same-Spin Scale       =       0.3333333333333333 [-]
	 SCS Opposite-Spin Scale   =       1.2000000000000000 [-]
	 SCS Same-Spin Energy      =      -0.1334468305454054 [Eh]
	 SCS Opposite-Spin Energy  =      -1.6540201752853214 [Eh]
	 SCS Correlation Energy    =      -1.7874670058307269 [Eh]
	 SCS Total Energy          =    -387.8492321929705895 [Eh]
	-----------------------------------------------------------

  Dipole Moment: [D]
     X:     1.2181      Y:     0.7442      Z:     0.3176     Total:     1.4623

*** Psi4 exiting successfully. Buy a developer a beer!
