                               Psi4 1.3.2 release

  ==> Input File <==

--------------------------------------------------------------------------
#psi4
#
memory 32 gb

molecule  {
0 1
  O        2.6932640    -1.3344870    -0.0264310
  C        2.7508540     0.0254460     0.4069810
  C        1.3334838     0.6138575     0.4034058
  C       -3.5492030     0.3621160    -0.4101590
  C        3.6709050     0.8409920    -0.4958550
  C        0.2704120    -0.1024690    -0.0006590
  C       -2.1631840    -0.2004740    -0.4090490
  C       -1.0635270     0.4697970    -0.0176060
  C       -4.4702810    -0.3835230     0.5583970
  H        3.1361180     0.0688010     1.4404840
  H        1.2655190     1.6118880     0.7253080
  H       -3.5113520     1.4248880    -0.1442750
  H       -3.9713450     0.3050270    -1.4220020
  H        3.3060070     0.7827570    -1.5237190
  H        3.6990520     1.8899320    -0.1870900
  H        4.6948240     0.4527130    -0.4608140
  H        0.3467090    -1.1364471    -0.3292985
  H       -2.0573220    -1.2386810    -0.7303930
  H       -1.1648060     1.5075440     0.3065060
  H       -4.5255200    -1.4457790     0.3033390
  H       -5.4853170     0.0231860     0.5310900
  H       -4.0942820    -0.3029910     1.5815520
  H        3.6028580    -1.6773980    -0.0043180
units angstrom
no_reorient  #important for SAPT in psi4, default
symmetry c1  #important for SAPT in psi4, default
}

set PROPERTIES_ORIGIN ["COM"]
properties('MP2/aug-cc-pvtz', properties = ['dipole'])
--------------------------------------------------------------------------

    Molecular point group: c1
  Charge       = 0
  Multiplicity = 1
  Basis Set: AUG-CC-PVTZ
    Blend: AUG-CC-PVTZ
  Basis Set: (AUG-CC-PVTZ AUX)
    Blend: AUG-CC-PVTZ-JKFIT

    Orbital Energies [Eh]
    ---------------------

    Doubly Occupied:

       1A    -20.558697     2A    -11.287593     3A    -11.225025
       4A    -11.224326     5A    -11.222839     6A    -11.222013
       7A    -11.221637     8A    -11.219688     9A    -11.212537
      10A     -1.359354    11A     -1.097805    12A     -1.058871
      13A     -1.014740    14A     -0.961786    15A     -0.873781
      16A     -0.826191    17A     -0.756664    18A     -0.750677
      19A     -0.693204    20A     -0.637069    21A     -0.627267
      22A     -0.615447    23A     -0.590371    24A     -0.584094
      25A     -0.550558    26A     -0.543765    27A     -0.525996
      28A     -0.519635    29A     -0.504593    30A     -0.489995
      31A     -0.478348    32A     -0.461782    33A     -0.451442
      34A     -0.419043    35A     -0.297739

  @DF-RHF Final Energy:  -386.06047785293288

   => Energetics <=

    Nuclear Repulsion Energy =            417.5657464051900547
    One-Electron Energy =               -1351.0833011162219464
    Two-Electron Energy =                 547.4570768580989579
    Total Energy =                       -386.0604778529328769
  Basis Set: (AUG-CC-PVTZ AUX)
    Blend: AUG-CC-PVTZ-RI
    Molecular point group: c1

    Geometry (in Angstrom), charge = 0, multiplicity = 1:

       Center              X                  Y                   Z               Mass
    ------------   -----------------  -----------------  -----------------  -----------------
         O            2.696150891287    -1.338032246507    -0.027142738127    15.994914619570
         C            2.753740891287     0.021900753493     0.406269261873    12.000000000000
         C            1.336370691287     0.610312253493     0.402694061873    12.000000000000
         C           -3.546316108713     0.358570753493    -0.410870738127    12.000000000000
         C            3.673791891287     0.837446753493    -0.496566738127    12.000000000000
         C            0.273298891287    -0.106014246507    -0.001370738127    12.000000000000
         C           -2.160297108713    -0.204019246507    -0.409760738127    12.000000000000
         C           -1.060640108713     0.466251753493    -0.018317738127    12.000000000000
         C           -4.467394108713    -0.387068246507     0.557685261873    12.000000000000
         H            3.139004891287     0.065255753493     1.439772261873     1.007825032230
         H            1.268405891287     1.608342753493     0.724596261873     1.007825032230
         H           -3.508465108713     1.421342753493    -0.144986738127     1.007825032230
         H           -3.968458108713     0.301481753493    -1.422713738127     1.007825032230
         H            3.308893891287     0.779211753493    -1.524430738127     1.007825032230
         H            3.701938891287     1.886386753493    -0.187801738127     1.007825032230
         H            4.697710891287     0.449167753493    -0.461525738127     1.007825032230
         H            0.349595891287    -1.139992346507    -0.330010238127     1.007825032230
         H           -2.054435108713    -1.242226246507    -0.731104738127     1.007825032230
         H           -1.161919108713     1.503998753493     0.305794261873     1.007825032230
         H           -4.522633108713    -1.449324246507     0.302627261873     1.007825032230
         H           -5.482430108713     0.019640753493     0.530378261873     1.007825032230
         H           -4.091395108713    -0.306536246507     1.580840261873     1.007825032230
         H            3.605744891287    -1.680943246507    -0.005029738127     1.007825032230

  Basis Set: AUG-CC-PVTZ
    Blend: AUG-CC-PVTZ
  Basis Set: (AUG-CC-PVTZ AUX)
    Blend: AUG-CC-PVTZ-JKFIT
	 Reference Energy          =    -386.0604778529328769 [Eh]
	 Singles Energy            =      -0.0000000000000000 [Eh]
	 Same-Spin Energy          =      -0.3999916062440291 [Eh]
	 Opposite-Spin Energy      =      -1.3780525875170482 [Eh]
	 Correlation Energy        =      -1.7780441937610774 [Eh]
	 Total Energy              =    -387.8385220466939813 [Eh]

	 ================> DF-SCS-MP2 Energies <==================
	-----------------------------------------------------------
	 SCS Same-Spin Scale       =       0.3333333333333333 [-]
	 SCS Opposite-Spin Scale   =       1.2000000000000000 [-]
	 SCS Same-Spin Energy      =      -0.1333305354146763 [Eh]
	 SCS Opposite-Spin Energy  =      -1.6536631050204578 [Eh]
	 SCS Correlation Energy    =      -1.7869936404351341 [Eh]
	 SCS Total Energy          =    -387.8474714933680048 [Eh]
	-----------------------------------------------------------

  Dipole Moment: [D]
     X:     1.1797      Y:     0.7421      Z:     0.3154     Total:     1.4289

*** Psi4 exiting successfully. Buy a developer a beer!
