                               Psi4 1.4a3.dev225

  ==> Input File <==

--------------------------------------------------------------------------
#psi4
#
memory 32 gb

molecule  {
0 1
  O       -2.7161510     1.3794200    -0.1343610
  C       -2.7832390     0.0721360     0.4401970
  C       -1.3979030    -0.4954620     0.4743180
  C        3.5083460    -0.4405980    -0.4123350
  C       -3.7239960    -0.8239440    -0.3625680
  C       -0.3030690     0.1219220    -0.0067100
  C        2.1282810     0.1394430    -0.4544070
  C        1.0245920    -0.4684390     0.0236420
  C        4.4606410     0.4027870     0.4416180
  H       -3.1581590     0.1412460     1.4762970
  H       -1.3112260    -1.4900120     0.9147240
  H        3.4619600    -1.4629760    -0.0187660
  H        3.9104550    -0.5133060    -1.4317100
  H       -3.3684670    -0.8811940    -1.3941910
  H       -3.7626400    -1.8335820     0.0574350
  H       -4.7426360    -0.4191700    -0.3608330
  H       -0.4078810     1.1149080    -0.4388390
  H        2.0311270     1.1370710    -0.8883280
  H        1.1153991    -1.4466779     0.4529615
  H        4.5263310     1.4251690     0.0574090
  H        5.4690900    -0.0219830     0.4454750
  H        4.1044230     0.4539160     1.4740500
  H       -3.6221830     1.7324190    -0.1413340
units angstrom
no_reorient  #important for SAPT in psi4, default
symmetry c1  #important for SAPT in psi4, default
}

set PROPERTIES_ORIGIN ["COM"]
properties('MP2/aug-cc-pvtz', properties = ['dipole'])
--------------------------------------------------------------------------

    Molecular point group: c1
  Charge       = 0
  Multiplicity = 1
  Basis Set: AUG-CC-PVTZ
    Blend: AUG-CC-PVTZ
  Basis Set: (AUG-CC-PVTZ AUX)
    Blend: AUG-CC-PVTZ-JKFIT

    Orbital Energies [Eh]
    ---------------------

    Doubly Occupied:

       1A    -20.558758     2A    -11.286982     3A    -11.226245
       4A    -11.224026     5A    -11.223713     6A    -11.222469
       7A    -11.221369     8A    -11.220900     9A    -11.213159
      10A     -1.360078    11A     -1.097415    12A     -1.060594
      13A     -1.015771    14A     -0.962188    15A     -0.876437
      16A     -0.828551    17A     -0.754006    18A     -0.748396
      19A     -0.695184    20A     -0.637120    21A     -0.627337
      22A     -0.616592    23A     -0.590449    24A     -0.582987
      25A     -0.546403    26A     -0.543731    27A     -0.528184
      28A     -0.518262    29A     -0.500976    30A     -0.492798
      31A     -0.479359    32A     -0.468011    33A     -0.452782
      34A     -0.417764    35A     -0.297240

  @DF-RHF Final Energy:  -386.06250114719171

   => Energetics <=

    Nuclear Repulsion Energy =            417.5950024925525668
    One-Electron Energy =               -1351.1225357826842810
    Two-Electron Energy =                 547.4650321429400037
    Total Energy =                       -386.0625011471917105
  Basis Set: (AUG-CC-PVTZ AUX)
    Blend: AUG-CC-PVTZ-RI
    Molecular point group: c1

    Geometry (in Angstrom), charge = 0, multiplicity = 1:

       Center              X                  Y                   Z               Mass
    ------------   -----------------  -----------------  -----------------  -----------------
         O           -2.682829798140     1.362945396886    -0.132631614971    15.994914619570
         C           -2.749917798140     0.055661396886     0.441926385029    12.000000000000
         C           -1.364581798140    -0.511936603113     0.476047385029    12.000000000000
         C            3.541667201860    -0.457072603114    -0.410605614971    12.000000000000
         C           -3.690674798140    -0.840418603114    -0.360838614971    12.000000000000
         C           -0.269747798140     0.105447396886    -0.004980614971    12.000000000000
         C            2.161602201860     0.122968396886    -0.452677614971    12.000000000000
         C            1.057913201860    -0.484913603114     0.025371385029    12.000000000000
         C            4.493962201860     0.386312396886     0.443347385029    12.000000000000
         H           -3.124837798140     0.124771396886     1.478026385029     1.007825032230
         H           -1.277904798140    -1.506486603113     0.916453385029     1.007825032230
         H            3.495281201860    -1.479450603114    -0.017036614971     1.007825032230
         H            3.943776201860    -0.529780603114    -1.429980614971     1.007825032230
         H           -3.335145798140    -0.897668603114    -1.392461614971     1.007825032230
         H           -3.729318798140    -1.850056603113     0.059164385029     1.007825032230
         H           -4.709314798140    -0.435644603113    -0.359103614971     1.007825032230
         H           -0.374559798140     1.098433396887    -0.437109614971     1.007825032230
         H            2.064448201860     1.120596396886    -0.886598614971     1.007825032230
         H            1.148720301860    -1.463152503114     0.454690885029     1.007825032230
         H            4.559652201860     1.408694396886     0.059138385029     1.007825032230
         H            5.502411201860    -0.038457603114     0.447204385029     1.007825032230
         H            4.137744201860     0.437441396886     1.475779385029     1.007825032230
         H           -3.588861798140     1.715944396887    -0.139604614971     1.007825032230

  Basis Set: AUG-CC-PVTZ
    Blend: AUG-CC-PVTZ
  Basis Set: (AUG-CC-PVTZ AUX)
    Blend: AUG-CC-PVTZ-JKFIT
	 Reference Energy          =    -386.0625011471917105 [Eh]
	 Singles Energy            =      -0.0000000000000000 [Eh]
	 Same-Spin Energy          =      -0.4002206225744292 [Eh]
	 Opposite-Spin Energy      =      -1.3782668452110829 [Eh]
	 Correlation Energy        =      -1.7784874677855120 [Eh]
	 Total Energy              =    -387.8409886149772205 [Eh]

	 ================> DF-SCS-MP2 Energies <==================
	-----------------------------------------------------------
	 SCS Same-Spin Scale       =       0.3333333333333333 [-]
	 SCS Opposite-Spin Scale   =       1.2000000000000000 [-]
	 SCS Same-Spin Energy      =      -0.1334068741914764 [Eh]
	 SCS Opposite-Spin Energy  =      -1.6539202142532994 [Eh]
	 SCS Correlation Energy    =      -1.7873270884447758 [Eh]
	 SCS Total Energy          =    -387.8498282356364939 [Eh]
	-----------------------------------------------------------

  Dipole Moment: [D]
     X:    -1.2031      Y:    -0.6943      Z:     0.3942     Total:     1.4439

*** Psi4 exiting successfully. Buy a developer a beer!
