                               Psi4 1.3.2 release

  ==> Input File <==

--------------------------------------------------------------------------
#psi4
#
memory 32 gb

molecule  {
-2 1
  O       -1.3858800     1.1351540    -0.0007920
  O        1.3858810    -1.1351480    -0.0008800
  O       -1.3858790    -1.1351540     0.0008180
  O        1.3858810     1.1351480     0.0008280
  C       -0.8047150     0.0000000     0.0000430
  C        0.8047120     0.0000709     0.0999920
units angstrom
no_reorient  #important for SAPT in psi4, default
symmetry c1  #important for SAPT in psi4, default
}

set PROPERTIES_ORIGIN ["COM"]
properties('MP2/aug-cc-pvtz', properties = ['dipole'])
--------------------------------------------------------------------------

    Molecular point group: c1
  Charge       = -2
  Multiplicity = 1
  Basis Set: AUG-CC-PVTZ
    Blend: AUG-CC-PVTZ
  Basis Set: (AUG-CC-PVTZ AUX)
    Blend: AUG-CC-PVTZ-JKFIT

    Orbital Energies [Eh]
    ---------------------

    Doubly Occupied:

       1A    -20.143863     2A    -20.143792     3A    -20.143783
       4A    -20.143747     5A    -10.984853     6A    -10.984433
       7A     -1.016235     8A     -0.984054     9A     -0.910126
      10A     -0.890336    11A     -0.465329    12A     -0.317566
      13A     -0.282907    14A     -0.252512    15A     -0.219529
      16A     -0.216641    17A     -0.160945    18A     -0.121924
      19A     -0.077324    20A     -0.046177    21A     -0.033132
      22A     -0.031240    23A     -0.015455

  @DF-RHF Final Energy:  -375.24176848008199

   => Energetics <=

    Nuclear Repulsion Energy =            205.7040315135353694
    One-Electron Energy =                -944.7197916572350778
    Two-Electron Energy =                 363.7739916636177213
    Total Energy =                       -375.2417684800819870
  Basis Set: (AUG-CC-PVTZ AUX)
    Blend: AUG-CC-PVTZ-RI
    Molecular point group: c1

    Geometry (in Angstrom), charge = -2, multiplicity = 1:

       Center              X                  Y                   Z               Mass
    ------------   -----------------  -----------------  -----------------  -----------------
         O           -1.385880136222     1.135144329583    -0.014431563428    15.994914619570
         O            1.385880863778    -1.135157670417    -0.014519563428    15.994914619570
         O           -1.385879136222    -1.135163670417    -0.012821563428    15.994914619570
         O            1.385880863778     1.135138329583    -0.012811563428    15.994914619570
         C           -0.804715136222    -0.000009670417    -0.013596563428    12.000000000000
         C            0.804711863778     0.000061229583     0.086352436572    12.000000000000

  Basis Set: AUG-CC-PVTZ
    Blend: AUG-CC-PVTZ
  Basis Set: (AUG-CC-PVTZ AUX)
    Blend: AUG-CC-PVTZ-JKFIT
	 Reference Energy          =    -375.2417684800819870 [Eh]
	 Singles Energy            =      -0.0000000000000000 [Eh]
	 Same-Spin Energy          =      -0.3665131256520219 [Eh]
	 Opposite-Spin Energy      =      -1.0216478037227519 [Eh]
	 Correlation Energy        =      -1.3881609293747736 [Eh]
	 Total Energy              =    -376.6299294094567358 [Eh]

	 ================> DF-SCS-MP2 Energies <==================
	-----------------------------------------------------------
	 SCS Same-Spin Scale       =       0.3333333333333333 [-]
	 SCS Opposite-Spin Scale   =       1.2000000000000000 [-]
	 SCS Same-Spin Energy      =      -0.1221710418840073 [Eh]
	 SCS Opposite-Spin Energy  =      -1.2259773644673022 [Eh]
	 SCS Correlation Energy    =      -1.3481484063513096 [Eh]
	 SCS Total Energy          =    -376.5899168864332864 [Eh]
	-----------------------------------------------------------

  Dipole Moment: [D]
     X:    -0.0292      Y:     0.0016      Z:     0.1711     Total:     0.1736

*** Psi4 exiting successfully. Buy a developer a beer!
