                               Psi4 1.3.2 release

  ==> Input File <==

--------------------------------------------------------------------------
#psi4
#
memory 32 gb

molecule  {
-2 1
  O       -1.3858800     1.1351540    -0.0007920
  O        1.3858810    -1.1351480    -0.0008800
  O       -1.3858790    -1.1351540     0.0008180
  O        1.3858810     1.1351480     0.0008280
  C       -0.8047150     0.0000000     0.0000430
  C        0.8047110     0.0000000    -0.0000080
units angstrom
no_reorient  #important for SAPT in psi4, default
symmetry c1  #important for SAPT in psi4, default
}

set PROPERTIES_ORIGIN ["COM"]
properties('MP2/aug-cc-pvtz', properties = ['dipole'])
--------------------------------------------------------------------------

    Molecular point group: c1
  Charge       = -2
  Multiplicity = 1
  Basis Set: AUG-CC-PVTZ
    Blend: AUG-CC-PVTZ
  Basis Set: (AUG-CC-PVTZ AUX)
    Blend: AUG-CC-PVTZ-JKFIT

    Orbital Energies [Eh]
    ---------------------

    Doubly Occupied:

       1A    -20.143434     2A    -20.143427     3A    -20.143398
       4A    -20.143394     5A    -10.983741     6A    -10.983319
       7A     -1.017008     8A     -0.984908     9A     -0.911075
      10A     -0.891405    11A     -0.466082    12A     -0.317455
      13A     -0.283540    14A     -0.253106    15A     -0.220146
      16A     -0.217240    17A     -0.161461    18A     -0.122227
      19A     -0.077487    20A     -0.046430    21A     -0.033156
      22A     -0.031912    23A     -0.015700

  @DF-RHF Final Energy:  -375.24687036263924

   => Energetics <=

    Nuclear Repulsion Energy =            205.8656285526975296
    One-Electron Energy =                -945.0428951949935481
    Two-Electron Energy =                 363.9303962796567475
    Total Energy =                       -375.2468703626392426
  Basis Set: (AUG-CC-PVTZ AUX)
    Blend: AUG-CC-PVTZ-RI
    Molecular point group: c1

    Geometry (in Angstrom), charge = -2, multiplicity = 1:

       Center              X                  Y                   Z               Mass
    ------------   -----------------  -----------------  -----------------  -----------------
         O           -1.385879999827     1.135154000000    -0.000792046968    15.994914619570
         O            1.385881000173    -1.135148000000    -0.000880046968    15.994914619570
         O           -1.385878999827    -1.135154000000     0.000817953032    15.994914619570
         O            1.385881000173     1.135148000000     0.000827953032    15.994914619570
         C           -0.804714999827     0.000000000000     0.000042953032    12.000000000000
         C            0.804711000173     0.000000000000    -0.000008046968    12.000000000000

  Basis Set: AUG-CC-PVTZ
    Blend: AUG-CC-PVTZ
  Basis Set: (AUG-CC-PVTZ AUX)
    Blend: AUG-CC-PVTZ-JKFIT
	 Reference Energy          =    -375.2468703626392426 [Eh]
	 Singles Energy            =      -0.0000000000000000 [Eh]
	 Same-Spin Energy          =      -0.3661007281213372 [Eh]
	 Opposite-Spin Energy      =      -1.0207527121756821 [Eh]
	 Correlation Energy        =      -1.3868534402970192 [Eh]
	 Total Energy              =    -376.6337238029362879 [Eh]

	 ================> DF-SCS-MP2 Energies <==================
	-----------------------------------------------------------
	 SCS Same-Spin Scale       =       0.3333333333333333 [-]
	 SCS Opposite-Spin Scale   =       1.2000000000000000 [-]
	 SCS Same-Spin Energy      =      -0.1220335760404457 [Eh]
	 SCS Opposite-Spin Energy  =      -1.2249032546108185 [Eh]
	 SCS Correlation Energy    =      -1.3469368306512641 [Eh]
	 SCS Total Energy          =    -376.5938071932905018 [Eh]
	-----------------------------------------------------------

  Dipole Moment: [D]
     X:    -0.0000      Y:    -0.0000      Z:     0.0001     Total:     0.0001

*** Psi4 exiting successfully. Buy a developer a beer!
