                               Psi4 1.3.2 release

  ==> Input File <==

--------------------------------------------------------------------------
#psi4
#
memory 32 gb

molecule  {
-2 1
  O       -1.3858800     1.1351540    -0.0007920
  O        1.3858810    -1.1351480    -0.0008800
  O       -1.3858790    -1.1351540     0.0008180
  O        1.3858810     1.1351480     0.0008280
  C       -0.8047150     0.0000000     0.0000430
  C        0.8047134     0.0001773     0.2499919
units angstrom
no_reorient  #important for SAPT in psi4, default
symmetry c1  #important for SAPT in psi4, default
}

set PROPERTIES_ORIGIN ["COM"]
properties('MP2/aug-cc-pvtz', properties = ['dipole'])
--------------------------------------------------------------------------

    Molecular point group: c1
  Charge       = -2
  Multiplicity = 1
  Basis Set: AUG-CC-PVTZ
    Blend: AUG-CC-PVTZ
  Basis Set: (AUG-CC-PVTZ AUX)
    Blend: AUG-CC-PVTZ-JKFIT

    Orbital Energies [Eh]
    ---------------------

    Doubly Occupied:

       1A    -20.145941     2A    -20.145787     3A    -20.145756
       4A    -20.145715     5A    -10.990692     6A    -10.989756
       7A     -1.013446     8A     -0.978513     9A     -0.907875
      10A     -0.882686    11A     -0.461582    12A     -0.318342
      13A     -0.279457    14A     -0.250186    15A     -0.215592
      16A     -0.214144    17A     -0.158041    18A     -0.120331
      19A     -0.076596    20A     -0.046216    21A     -0.031829
      22A     -0.027885    23A     -0.014249

  @DF-RHF Final Energy:  -375.21512045291882

   => Energetics <=

    Nuclear Repulsion Energy =            204.8763674038693807
    One-Electron Energy =                -943.0617409709051344
    Two-Electron Energy =                 362.9702531141169288
    Total Energy =                       -375.2151204529188249
  Basis Set: (AUG-CC-PVTZ AUX)
    Blend: AUG-CC-PVTZ-RI
    Molecular point group: c1

    Geometry (in Angstrom), charge = -2, multiplicity = 1:

       Center              X                  Y                   Z               Mass
    ------------   -----------------  -----------------  -----------------  -----------------
         O           -1.385880327175     1.135129817137    -0.034890824480    15.994914619570
         O            1.385880672825    -1.135172182863    -0.034978824480    15.994914619570
         O           -1.385879327175    -1.135178182863    -0.033280824480    15.994914619570
         O            1.385880672825     1.135123817137    -0.033270824480    15.994914619570
         C           -0.804715327175    -0.000024182863    -0.034055824480    12.000000000000
         C            0.804713072825     0.000153117137     0.215893075520    12.000000000000

  Basis Set: AUG-CC-PVTZ
    Blend: AUG-CC-PVTZ
  Basis Set: (AUG-CC-PVTZ AUX)
    Blend: AUG-CC-PVTZ-JKFIT
	 Reference Energy          =    -375.2151204529188249 [Eh]
	 Singles Energy            =      -0.0000000000000000 [Eh]
	 Same-Spin Energy          =      -0.3686844093674356 [Eh]
	 Opposite-Spin Energy      =      -1.0267132295646710 [Eh]
	 Correlation Energy        =      -1.3953976389321068 [Eh]
	 Total Energy              =    -376.6105180918509063 [Eh]

	 ================> DF-SCS-MP2 Energies <==================
	-----------------------------------------------------------
	 SCS Same-Spin Scale       =       0.3333333333333333 [-]
	 SCS Opposite-Spin Scale   =       1.2000000000000000 [-]
	 SCS Same-Spin Energy      =      -0.1228948031224785 [Eh]
	 SCS Opposite-Spin Energy  =      -1.2320558754776052 [Eh]
	 SCS Correlation Energy    =      -1.3549506786000838 [Eh]
	 SCS Total Energy          =    -376.5700711315188869 [Eh]
	-----------------------------------------------------------

  Dipole Moment: [D]
     X:    -0.1901      Y:     0.0040      Z:     0.3882     Total:     0.4322

*** Psi4 exiting successfully. Buy a developer a beer!
