                               Psi4 1.3.2 release

  ==> Input File <==

--------------------------------------------------------------------------
#psi4
#
memory 32 gb

molecule  {
-2 1
  O       -1.3858800     1.1351540    -0.0007920
  O        1.3858810    -1.1351480    -0.0008800
  O       -1.3858790    -1.1351540     0.0008180
  O        1.3858810     1.1351480     0.0008280
  C       -0.8047150     0.0000000     0.0000430
  C        0.8047139     0.0002127     0.2999919
units angstrom
no_reorient  #important for SAPT in psi4, default
symmetry c1  #important for SAPT in psi4, default
}

set PROPERTIES_ORIGIN ["COM"]
properties('MP2/aug-cc-pvtz', properties = ['dipole'])
--------------------------------------------------------------------------

    Molecular point group: c1
  Charge       = -2
  Multiplicity = 1
  Basis Set: AUG-CC-PVTZ
    Blend: AUG-CC-PVTZ
  Basis Set: (AUG-CC-PVTZ AUX)
    Blend: AUG-CC-PVTZ-JKFIT

    Orbital Energies [Eh]
    ---------------------

    Doubly Occupied:

       1A    -20.146935     2A    -20.146879     3A    -20.146835
       4A    -20.146754     5A    -10.993821     6A    -10.992158
       7A     -1.012735     8A     -0.975012     9A     -0.907859
      10A     -0.877958    11A     -0.459759    12A     -0.318868
      13A     -0.277587    14A     -0.249475    15A     -0.213253
      16A     -0.213089    17A     -0.156420    18A     -0.119479
      19A     -0.076310    20A     -0.046795    21A     -0.031166
      22A     -0.025771    23A     -0.013672

  @DF-RHF Final Energy:  -375.20128387378196

   => Energetics <=

    Nuclear Repulsion Energy =            204.4561170481902082
    One-Electron Energy =                -942.2176225591596221
    Two-Electron Energy =                 362.5602216371874533
    Total Energy =                       -375.2012838737819607
  Basis Set: (AUG-CC-PVTZ AUX)
    Blend: AUG-CC-PVTZ-RI
    Molecular point group: c1

    Geometry (in Angstrom), charge = -2, multiplicity = 1:

       Center              X                  Y                   Z               Mass
    ------------   -----------------  -----------------  -----------------  -----------------
         O           -1.385880395373     1.135124988748    -0.041710582710    15.994914619570
         O            1.385880604627    -1.135177011252    -0.041798582710    15.994914619570
         O           -1.385879395373    -1.135183011252    -0.040100582710    15.994914619570
         O            1.385880604627     1.135118988748    -0.040090582710    15.994914619570
         C           -0.804715395373    -0.000029011252    -0.040875582710    12.000000000000
         C            0.804713504627     0.000183688748     0.259073317290    12.000000000000

  Basis Set: AUG-CC-PVTZ
    Blend: AUG-CC-PVTZ
  Basis Set: (AUG-CC-PVTZ AUX)
    Blend: AUG-CC-PVTZ-JKFIT
	 Reference Energy          =    -375.2012838737819607 [Eh]
	 Singles Energy            =      -0.0000000000000000 [Eh]
	 Same-Spin Energy          =      -0.3698282043750659 [Eh]
	 Opposite-Spin Energy      =      -1.0294297766995639 [Eh]
	 Correlation Energy        =      -1.3992579810746300 [Eh]
	 Total Energy              =    -376.6005418548566013 [Eh]

	 ================> DF-SCS-MP2 Energies <==================
	-----------------------------------------------------------
	 SCS Same-Spin Scale       =       0.3333333333333333 [-]
	 SCS Opposite-Spin Scale   =       1.2000000000000000 [-]
	 SCS Same-Spin Energy      =      -0.1232760681250220 [Eh]
	 SCS Opposite-Spin Energy  =      -1.2353157320394768 [Eh]
	 SCS Correlation Energy    =      -1.3585918001644988 [Eh]
	 SCS Total Energy          =    -376.5598756739464648 [Eh]
	-----------------------------------------------------------

  Dipole Moment: [D]
     X:    -0.2799      Y:     0.0047      Z:     0.4417     Total:     0.5230

*** Psi4 exiting successfully. Buy a developer a beer!
