                               Psi4 1.3.2 release

  ==> Input File <==

--------------------------------------------------------------------------
#psi4
#
memory 32 gb

molecule  {
-2 1
  O       -1.3858800     1.1351540    -0.0007920
  O        1.3858810    -1.1351480    -0.0008800
  O       -1.3858790    -1.1351540     0.0008180
  O        1.3858810     1.1351480     0.0008280
  C       -0.8047150     0.0000000     0.0000430
  C        0.8047129     0.0001418     0.1999919
units angstrom
no_reorient  #important for SAPT in psi4, default
symmetry c1  #important for SAPT in psi4, default
}

set PROPERTIES_ORIGIN ["COM"]
properties('MP2/aug-cc-pvtz', properties = ['dipole'])
--------------------------------------------------------------------------

    Molecular point group: c1
  Charge       = -2
  Multiplicity = 1
  Basis Set: AUG-CC-PVTZ
    Blend: AUG-CC-PVTZ
  Basis Set: (AUG-CC-PVTZ AUX)
    Blend: AUG-CC-PVTZ-JKFIT

    Orbital Energies [Eh]
    ---------------------

    Doubly Occupied:

       1A    -20.145082     2A    -20.144955     3A    -20.144884
       4A    -20.144845     5A    -10.988165     6A    -10.987601
       7A     -1.014390     8A     -0.981094     9A     -0.908373
      10A     -0.886292    11A     -0.463145    12A     -0.317972
      13A     -0.280959    14A     -0.251021    15A     -0.217419
      16A     -0.215083    17A     -0.159322    18A     -0.121017
      19A     -0.076880    20A     -0.045973    21A     -0.032442
      22A     -0.029424    23A     -0.014748

  @DF-RHF Final Energy:  -375.22650925178857

   => Energetics <=

    Nuclear Repulsion Energy =            205.2269074616175430
    One-Electron Energy =                -943.7646622243464662
    Two-Electron Energy =                 363.3112455109403527
    Total Energy =                       -375.2265092517885705
  Basis Set: (AUG-CC-PVTZ AUX)
    Blend: AUG-CC-PVTZ-RI
    Molecular point group: c1

    Geometry (in Angstrom), charge = -2, multiplicity = 1:

       Center              X                  Y                   Z               Mass
    ------------   -----------------  -----------------  -----------------  -----------------
         O           -1.385880258977     1.135134659166    -0.028071066249    15.994914619570
         O            1.385880741023    -1.135167340834    -0.028159066249    15.994914619570
         O           -1.385879258977    -1.135173340834    -0.026461066249    15.994914619570
         O            1.385880741023     1.135128659166    -0.026451066249    15.994914619570
         C           -0.804715258977    -0.000019340834    -0.027236066249    12.000000000000
         C            0.804712641023     0.000122459166     0.172712833751    12.000000000000

  Basis Set: AUG-CC-PVTZ
    Blend: AUG-CC-PVTZ
  Basis Set: (AUG-CC-PVTZ AUX)
    Blend: AUG-CC-PVTZ-JKFIT
	 Reference Energy          =    -375.2265092517885705 [Eh]
	 Singles Energy            =      -0.0000000000000000 [Eh]
	 Same-Spin Energy          =      -0.3677518575671143 [Eh]
	 Opposite-Spin Energy      =      -1.0245146771550049 [Eh]
	 Correlation Energy        =      -1.3922665347221193 [Eh]
	 Total Energy              =    -376.6187757865106960 [Eh]

	 ================> DF-SCS-MP2 Energies <==================
	-----------------------------------------------------------
	 SCS Same-Spin Scale       =       0.3333333333333333 [-]
	 SCS Opposite-Spin Scale   =       1.2000000000000000 [-]
	 SCS Same-Spin Energy      =      -0.1225839525223714 [Eh]
	 SCS Opposite-Spin Energy  =      -1.2294176125860059 [Eh]
	 SCS Correlation Energy    =      -1.3520015651083774 [Eh]
	 SCS Total Energy          =    -376.5785108168969373 [Eh]
	-----------------------------------------------------------

  Dipole Moment: [D]
     X:    -0.1194      Y:     0.0032      Z:     0.3238     Total:     0.3452

*** Psi4 exiting successfully. Buy a developer a beer!
