                               Psi4 1.3.2 release

  ==> Input File <==

--------------------------------------------------------------------------
#psi4
#
memory 32 gb

molecule  {
-2 1
  O       -1.3858800     1.1351540    -0.0007920
  O        1.3858810    -1.1351480    -0.0008800
  O       -1.3858790    -1.1351540     0.0008180
  O        1.3858810     1.1351480     0.0008280
  C       -0.8047150     0.0000000     0.0000430
  C        0.8047124     0.0001064     0.1499920
units angstrom
no_reorient  #important for SAPT in psi4, default
symmetry c1  #important for SAPT in psi4, default
}

set PROPERTIES_ORIGIN ["COM"]
properties('MP2/aug-cc-pvtz', properties = ['dipole'])
--------------------------------------------------------------------------

    Molecular point group: c1
  Charge       = -2
  Multiplicity = 1
  Basis Set: AUG-CC-PVTZ
    Blend: AUG-CC-PVTZ
  Basis Set: (AUG-CC-PVTZ AUX)
    Blend: AUG-CC-PVTZ-JKFIT

    Orbital Energies [Eh]
    ---------------------

    Doubly Occupied:

       1A    -20.144382     2A    -20.144284     3A    -20.144233
       4A    -20.144196     5A    -10.986230     6A    -10.985791
       7A     -1.015381     8A     -0.982892     9A     -0.909212
      10A     -0.888789    11A     -0.464405    12A     -0.317723
      13A     -0.282104    14A     -0.251838    15A     -0.218697
      16A     -0.215948    17A     -0.160282    18A     -0.121547
      19A     -0.077131    20A     -0.046001    21A     -0.032900
      22A     -0.030495    23A     -0.015155

  @DF-RHF Final Energy:  -375.23540149095618

   => Energetics <=

    Nuclear Repulsion Energy =            205.5038509832758109
    One-Electron Energy =                -944.3192796879599200
    Two-Electron Energy =                 363.5800272137279308
    Total Energy =                       -375.2354014909561783
  Basis Set: (AUG-CC-PVTZ AUX)
    Blend: AUG-CC-PVTZ-RI
    Molecular point group: c1

    Geometry (in Angstrom), charge = -2, multiplicity = 1:

       Center              X                  Y                   Z               Mass
    ------------   -----------------  -----------------  -----------------  -----------------
         O           -1.385880190780     1.135139487554    -0.021251321659    15.994914619570
         O            1.385880809220    -1.135162512446    -0.021339321659    15.994914619570
         O           -1.385879190780    -1.135168512446    -0.019641321659    15.994914619570
         O            1.385880809220     1.135133487554    -0.019631321659    15.994914619570
         C           -0.804715190780    -0.000014512446    -0.020416321659    12.000000000000
         C            0.804712209220     0.000091887554     0.129532678341    12.000000000000

  Basis Set: AUG-CC-PVTZ
    Blend: AUG-CC-PVTZ
  Basis Set: (AUG-CC-PVTZ AUX)
    Blend: AUG-CC-PVTZ-JKFIT
	 Reference Energy          =    -375.2354014909561783 [Eh]
	 Singles Energy            =      -0.0000000000000000 [Eh]
	 Same-Spin Energy          =      -0.3670286909966411 [Eh]
	 Opposite-Spin Energy      =      -1.0228267990026696 [Eh]
	 Correlation Energy        =      -1.3898554899993107 [Eh]
	 Total Energy              =    -376.6252569809554984 [Eh]

	 ================> DF-SCS-MP2 Energies <==================
	-----------------------------------------------------------
	 SCS Same-Spin Scale       =       0.3333333333333333 [-]
	 SCS Opposite-Spin Scale   =       1.2000000000000000 [-]
	 SCS Same-Spin Energy      =      -0.1223428969988804 [Eh]
	 SCS Opposite-Spin Energy  =      -1.2273921588032035 [Eh]
	 SCS Correlation Energy    =      -1.3497350558020840 [Eh]
	 SCS Total Energy          =    -376.5851365467582355 [Eh]
	-----------------------------------------------------------

  Dipole Moment: [D]
     X:    -0.0663      Y:     0.0024      Z:     0.2508     Total:     0.2594

*** Psi4 exiting successfully. Buy a developer a beer!
