                               Psi4 1.3.2 release

  ==> Input File <==

--------------------------------------------------------------------------
#psi4
#
memory 32 gb

molecule  {
-2 1
  O       -1.3858800     1.1351540    -0.0007920
  O        1.3858810    -1.1351480    -0.0008800
  O       -1.3858790    -1.1351540     0.0008180
  O        1.3858810     1.1351480     0.0008280
  C       -0.8047150     0.0000000     0.0000430
  C        0.8047115     0.0000355     0.0499920
units angstrom
no_reorient  #important for SAPT in psi4, default
symmetry c1  #important for SAPT in psi4, default
}

set PROPERTIES_ORIGIN ["COM"]
properties('MP2/aug-cc-pvtz', properties = ['dipole'])
--------------------------------------------------------------------------

    Molecular point group: c1
  Charge       = -2
  Multiplicity = 1
  Basis Set: AUG-CC-PVTZ
    Blend: AUG-CC-PVTZ
  Basis Set: (AUG-CC-PVTZ AUX)
    Blend: AUG-CC-PVTZ-JKFIT

    Orbital Energies [Eh]
    ---------------------

    Doubly Occupied:

       1A    -20.143541     2A    -20.143518     3A    -20.143494
       4A    -20.143483     5A    -10.984021     6A    -10.983599
       7A     -1.016807     8A     -0.984701     9A     -0.910819
      10A     -0.891152    11A     -0.465893    12A     -0.317481
      13A     -0.283382    14A     -0.252953    15A     -0.219996
      16A     -0.217087    17A     -0.161334    18A     -0.122151
      19A     -0.077445    20A     -0.046356    21A     -0.033174
      22A     -0.031728    23A     -0.015639

  @DF-RHF Final Energy:  -375.24559430866071

   => Energetics <=

    Nuclear Repulsion Energy =            205.8251042404774864
    One-Electron Energy =                -944.9618856266940838
    Two-Electron Energy =                 363.8911870775559123
    Total Energy =                       -375.2455943086607135
  Basis Set: (AUG-CC-PVTZ AUX)
    Blend: AUG-CC-PVTZ-RI
    Molecular point group: c1

    Geometry (in Angstrom), charge = -2, multiplicity = 1:

       Center              X                  Y                   Z               Mass
    ------------   -----------------  -----------------  -----------------  -----------------
         O           -1.385880068024     1.135149157972    -0.007611805198    15.994914619570
         O            1.385880931976    -1.135152842028    -0.007699805198    15.994914619570
         O           -1.385879068024    -1.135158842028    -0.006001805198    15.994914619570
         O            1.385880931976     1.135143157972    -0.005991805198    15.994914619570
         C           -0.804715068024    -0.000004842028    -0.006776805198    12.000000000000
         C            0.804711431976     0.000030657972     0.043172194802    12.000000000000

  Basis Set: AUG-CC-PVTZ
    Blend: AUG-CC-PVTZ
  Basis Set: (AUG-CC-PVTZ AUX)
    Blend: AUG-CC-PVTZ-JKFIT
	 Reference Energy          =    -375.2455943086607135 [Eh]
	 Singles Energy            =      -0.0000000000000000 [Eh]
	 Same-Spin Energy          =      -0.3662038832639881 [Eh]
	 Opposite-Spin Energy      =      -1.0209688586984194 [Eh]
	 Correlation Energy        =      -1.3871727419624076 [Eh]
	 Total Energy              =    -376.6327670506231016 [Eh]

	 ================> DF-SCS-MP2 Energies <==================
	-----------------------------------------------------------
	 SCS Same-Spin Scale       =       0.3333333333333333 [-]
	 SCS Opposite-Spin Scale   =       1.2000000000000000 [-]
	 SCS Same-Spin Energy      =      -0.1220679610879960 [Eh]
	 SCS Opposite-Spin Energy  =      -1.2251626304381031 [Eh]
	 SCS Correlation Energy    =      -1.3472305915260991 [Eh]
	 SCS Total Energy          =    -376.5928249001868267 [Eh]
	-----------------------------------------------------------

  Dipole Moment: [D]
     X:    -0.0073      Y:     0.0008      Z:     0.0868     Total:     0.0871

*** Psi4 exiting successfully. Buy a developer a beer!
