                               Psi4 1.4a3.dev225

  ==> Input File <==

--------------------------------------------------------------------------
#psi4
#
memory 32 gb

molecule  {
-1 1
  S       -0.5251900    -0.0446130     0.0000000
  O       -0.5231630    -0.8666190     1.2464430
  O       -1.5690800     1.0220300    -0.0000010
  O       -0.5231620    -0.8666200    -1.2464420
  C        1.0792825     0.8595633     0.0000000
  C        2.2383420    -0.0963210     0.0000000
  H        1.0305470     1.4783680    -0.8845630
  H        1.0305460     1.4783690     0.8845620
  H        3.1657760     0.4824540     0.0000000
  H        2.2275090    -0.7339400     0.8865020
  H        2.2275090    -0.7339410    -0.8865010
units angstrom
no_reorient  #important for SAPT in psi4, default
symmetry c1  #important for SAPT in psi4, default
}

set PROPERTIES_ORIGIN ["COM"]
properties('MP2/aug-cc-pvtz', properties = ['dipole'])
--------------------------------------------------------------------------

    Molecular point group: c1
  Charge       = -1
  Multiplicity = 1
  Basis Set: AUG-CC-PVTZ
    Blend: AUG-CC-PVTZ
  Basis Set: (AUG-CC-PVTZ AUX)
    Blend: AUG-CC-PVTZ-JKFIT

    Orbital Energies [Eh]
    ---------------------

    Doubly Occupied:

       1A    -91.993217     2A    -20.335089     3A    -20.335066
       4A    -20.334455     5A    -11.101466     6A    -11.091572
       7A     -8.954955     8A     -6.640170     9A     -6.639767
      10A     -6.639763    11A     -1.249498    12A     -1.105776
      13A     -1.105464    14A     -0.911782    15A     -0.742188
      16A     -0.604030    17A     -0.496839    18A     -0.494861
      19A     -0.452380    20A     -0.441943    21A     -0.414143
      22A     -0.394715    23A     -0.370264    24A     -0.314599
      25A     -0.314427    26A     -0.270896    27A     -0.270708
      28A     -0.242719    29A     -0.232621

  @DF-RHF Final Energy:  -700.91893424241778

   => Energetics <=

    Nuclear Repulsion Energy =            345.1467960058662925
    One-Electron Energy =               -1663.1407217611385931
    Two-Electron Energy =                 617.0749915128545808
    Total Energy =                       -700.9189342424177767
  Basis Set: (AUG-CC-PVTZ AUX)
    Blend: AUG-CC-PVTZ-RI
    Molecular point group: c1

    Geometry (in Angstrom), charge = -1, multiplicity = 1:

       Center              X                  Y                   Z               Mass
    ------------   -----------------  -----------------  -----------------  -----------------
         S           -0.442109385835    -0.029415607549    -0.000000000000    31.972071174400
         O           -0.440082385835    -0.851421607549     1.246443000000    15.994914619570
         O           -1.485999385835     1.037227392451    -0.000001000000    15.994914619570
         O           -0.440081385835    -0.851422607549    -1.246442000000    15.994914619570
         C            1.162363114165     0.874760692451    -0.000000000000    12.000000000000
         C            2.321422614165    -0.081123607549    -0.000000000000    12.000000000000
         H            1.113627614165     1.493565392451    -0.884563000000     1.007825032230
         H            1.113626614165     1.493566392451     0.884562000000     1.007825032230
         H            3.248856614165     0.497651392451    -0.000000000000     1.007825032230
         H            2.310589614165    -0.718742607549     0.886502000000     1.007825032230
         H            2.310589614165    -0.718743607549    -0.886501000000     1.007825032230

  Basis Set: AUG-CC-PVTZ
    Blend: AUG-CC-PVTZ
  Basis Set: (AUG-CC-PVTZ AUX)
    Blend: AUG-CC-PVTZ-JKFIT
	 Reference Energy          =    -700.9189342424177767 [Eh]
	 Singles Energy            =      -0.0000000000000000 [Eh]
	 Same-Spin Energy          =      -0.3608802337477364 [Eh]
	 Opposite-Spin Energy      =      -1.0629001449519664 [Eh]
	 Correlation Energy        =      -1.4237803786997028 [Eh]
	 Total Energy              =    -702.3427146211174659 [Eh]

	 ================> DF-SCS-MP2 Energies <==================
	-----------------------------------------------------------
	 SCS Same-Spin Scale       =       0.3333333333333333 [-]
	 SCS Opposite-Spin Scale   =       1.2000000000000000 [-]
	 SCS Same-Spin Energy      =      -0.1202934112492454 [Eh]
	 SCS Opposite-Spin Energy  =      -1.2754801739423596 [Eh]
	 SCS Correlation Energy    =      -1.3957735851916051 [Eh]
	 SCS Total Energy          =    -702.3147078276093680 [Eh]
	-----------------------------------------------------------

  Dipole Moment: [D]
     X:     4.7467      Y:     1.7011      Z:    -0.0000     Total:     5.0423

*** Psi4 exiting successfully. Buy a developer a beer!
