                               Psi4 1.3.2 release

  ==> Input File <==

--------------------------------------------------------------------------
#psi4
#
memory 32 gb

molecule  {
-1 1
  S        0.5314200    -0.0711438     0.0267118
  O        0.4874240    -0.8647860    -1.2512880
  O        1.5758940     1.0121500    -0.0000060
  O        0.4874170    -0.8647610     1.2513040
  C       -1.0236020     0.8530730    -0.0000110
  C       -2.2227860    -0.0817370     0.0000010
  H       -1.0143060     1.4942760     0.8867830
  H       -1.0143040     1.4942500    -0.8868250
  H       -3.1679310     0.4744510    -0.0000100
  H       -2.1864950    -0.7220660    -0.8842360
  H       -2.1864990    -0.7220390     0.8842580
units angstrom
no_reorient  #important for SAPT in psi4, default
symmetry c1  #important for SAPT in psi4, default
}

set PROPERTIES_ORIGIN ["COM"]
properties('MP2/aug-cc-pvtz', properties = ['dipole'])
--------------------------------------------------------------------------

    Molecular point group: c1
  Charge       = -1
  Multiplicity = 1
  Basis Set: AUG-CC-PVTZ
    Blend: AUG-CC-PVTZ
  Basis Set: (AUG-CC-PVTZ AUX)
    Blend: AUG-CC-PVTZ-JKFIT

    Orbital Energies [Eh]
    ---------------------

    Doubly Occupied:

       1A    -91.994780     2A    -20.345355     3A    -20.333786
       4A    -20.333409     5A    -11.097104     6A    -11.088562
       7A     -8.956718     8A     -6.642056     9A     -6.641713
      10A     -6.641418    11A     -1.256465    12A     -1.120609
      13A     -1.099171    14A     -0.903967    15A     -0.738681
      16A     -0.604160    17A     -0.498303    18A     -0.489177
      19A     -0.455152    20A     -0.445003    21A     -0.414034
      22A     -0.382756    23A     -0.362702    24A     -0.318438
      25A     -0.317649    26A     -0.279812    27A     -0.268532
      28A     -0.245725    29A     -0.235667

  @DF-RHF Final Energy:  -700.91915792845316

   => Energetics <=

    Nuclear Repulsion Energy =            346.5702508533232162
    One-Electron Energy =               -1665.9570100918292610
    Two-Electron Energy =                 618.4676013100529417
    Total Energy =                       -700.9191579284531599
  Basis Set: (AUG-CC-PVTZ AUX)
    Blend: AUG-CC-PVTZ-RI
    Molecular point group: c1

    Geometry (in Angstrom), charge = -1, multiplicity = 1:

       Center              X                  Y                   Z               Mass
    ------------   -----------------  -----------------  -----------------  -----------------
         S            0.447120404350    -0.048586843679     0.018876267010    31.972071174400
         O            0.403124404350    -0.842229043679    -1.259123532990    15.994914619570
         O            1.491594404350     1.034706956321    -0.007841532990    15.994914619570
         O            0.403117404350    -0.842204043679     1.243468467010    15.994914619570
         C           -1.107901595650     0.875629956321    -0.007846532990    12.000000000000
         C           -2.307085595650    -0.059180043679    -0.007834532990    12.000000000000
         H           -1.098605595650     1.516832956321     0.878947467010     1.007825032230
         H           -1.098603595650     1.516806956321    -0.894660532990     1.007825032230
         H           -3.252230595650     0.497007956321    -0.007845532990     1.007825032230
         H           -2.270794595650    -0.699509043679    -0.892071532990     1.007825032230
         H           -2.270798595650    -0.699482043679     0.876422467010     1.007825032230

  Basis Set: AUG-CC-PVTZ
    Blend: AUG-CC-PVTZ
  Basis Set: (AUG-CC-PVTZ AUX)
    Blend: AUG-CC-PVTZ-JKFIT
	 Reference Energy          =    -700.9191579284531599 [Eh]
	 Singles Energy            =      -0.0000000000000000 [Eh]
	 Same-Spin Energy          =      -0.3608221302335745 [Eh]
	 Opposite-Spin Energy      =      -1.0627837087310945 [Eh]
	 Correlation Energy        =      -1.4236058389646691 [Eh]
	 Total Energy              =    -702.3427637674178641 [Eh]

	 ================> DF-SCS-MP2 Energies <==================
	-----------------------------------------------------------
	 SCS Same-Spin Scale       =       0.3333333333333333 [-]
	 SCS Opposite-Spin Scale   =       1.2000000000000000 [-]
	 SCS Same-Spin Energy      =      -0.1202740434111915 [Eh]
	 SCS Opposite-Spin Energy  =      -1.2753404504773134 [Eh]
	 SCS Correlation Energy    =      -1.3956144938885049 [Eh]
	 SCS Total Energy          =    -702.3147724223416617 [Eh]
	-----------------------------------------------------------

  Dipole Moment: [D]
     X:    -4.5263      Y:     1.4844      Z:     0.3097     Total:     4.7736

*** Psi4 exiting successfully. Buy a developer a beer!
