                               Psi4 1.3.2 release

  ==> Input File <==

--------------------------------------------------------------------------
#psi4
#
memory 32 gb

molecule  {
-1 1
  S        0.5401240    -0.0567320     0.0000000
  O        0.4874240    -0.8647860    -1.2512880
  O        1.5896827     0.9975262     0.0479007
  O        0.4874170    -0.8647610     1.2513040
  C       -1.0236020     0.8530730    -0.0000110
  C       -2.2227860    -0.0817370     0.0000010
  H       -1.0143060     1.4942760     0.8867830
  H       -1.0143040     1.4942500    -0.8868250
  H       -3.1679310     0.4744510    -0.0000100
  H       -2.1864950    -0.7220660    -0.8842360
  H       -2.1864990    -0.7220390     0.8842580
units angstrom
no_reorient  #important for SAPT in psi4, default
symmetry c1  #important for SAPT in psi4, default
}

set PROPERTIES_ORIGIN ["COM"]
properties('MP2/aug-cc-pvtz', properties = ['dipole'])
--------------------------------------------------------------------------

    Molecular point group: c1
  Charge       = -1
  Multiplicity = 1
  Basis Set: AUG-CC-PVTZ
    Blend: AUG-CC-PVTZ
  Basis Set: (AUG-CC-PVTZ AUX)
    Blend: AUG-CC-PVTZ-JKFIT

    Orbital Energies [Eh]
    ---------------------

    Doubly Occupied:

       1A    -91.994799     2A    -20.339617     3A    -20.337371
       4A    -20.333960     5A    -11.098162     6A    -11.088820
       7A     -8.956623     8A     -6.641967     9A     -6.641523
      10A     -6.641433    11A     -1.253959    12A     -1.113104
      13A     -1.107423    14A     -0.904185    15A     -0.739739
      16A     -0.603626    17A     -0.497224    18A     -0.489376
      19A     -0.454599    20A     -0.443873    21A     -0.414970
      22A     -0.382252    23A     -0.362611    24A     -0.318748
      25A     -0.316551    26A     -0.275594    27A     -0.271812
      28A     -0.247361    29A     -0.235765

  @DF-RHF Final Energy:  -700.92056196313354

   => Energetics <=

    Nuclear Repulsion Energy =            346.4552503321702943
    One-Electron Energy =               -1665.7375353859060851
    Two-Electron Energy =                 618.3617230906023678
    Total Energy =                       -700.9205619631335367
  Basis Set: (AUG-CC-PVTZ AUX)
    Blend: AUG-CC-PVTZ-RI
    Molecular point group: c1

    Geometry (in Angstrom), charge = -1, multiplicity = 1:

       Center              X                  Y                   Z               Mass
    ------------   -----------------  -----------------  -----------------  -----------------
         S            0.451247775296    -0.036256485085    -0.007030292039    31.972071174400
         O            0.398547775296    -0.844310485085    -1.258318292039    15.994914619570
         O            1.500806475296     1.018001714915     0.040870407961    15.994914619570
         O            0.398540775296    -0.844285485085     1.244273707961    15.994914619570
         C           -1.112478224704     0.873548514915    -0.007041292039    12.000000000000
         C           -2.311662224704    -0.061261485085    -0.007029292039    12.000000000000
         H           -1.103182224704     1.514751514915     0.879752707961     1.007825032230
         H           -1.103180224704     1.514725514915    -0.893855292039     1.007825032230
         H           -3.256807224704     0.494926514915    -0.007040292039     1.007825032230
         H           -2.275371224704    -0.701590485085    -0.891266292039     1.007825032230
         H           -2.275375224704    -0.701563485085     0.877227707961     1.007825032230

  Basis Set: AUG-CC-PVTZ
    Blend: AUG-CC-PVTZ
  Basis Set: (AUG-CC-PVTZ AUX)
    Blend: AUG-CC-PVTZ-JKFIT
	 Reference Energy          =    -700.9205619631335367 [Eh]
	 Singles Energy            =      -0.0000000000000000 [Eh]
	 Same-Spin Energy          =      -0.3607987224898797 [Eh]
	 Opposite-Spin Energy      =      -1.0626894914107079 [Eh]
	 Correlation Energy        =      -1.4234882139005876 [Eh]
	 Total Energy              =    -702.3440501770340916 [Eh]

	 ================> DF-SCS-MP2 Energies <==================
	-----------------------------------------------------------
	 SCS Same-Spin Scale       =       0.3333333333333333 [-]
	 SCS Opposite-Spin Scale   =       1.2000000000000000 [-]
	 SCS Same-Spin Energy      =      -0.1202662408299599 [Eh]
	 SCS Opposite-Spin Energy  =      -1.2752273896928494 [Eh]
	 SCS Correlation Energy    =      -1.3954936305228094 [Eh]
	 SCS Total Energy          =    -702.3160555936563014 [Eh]
	-----------------------------------------------------------

  Dipole Moment: [D]
     X:    -4.4584      Y:     1.6833      Z:    -0.1097     Total:     4.7668

*** Psi4 exiting successfully. Buy a developer a beer!
