                               Psi4 1.3.2 release

  ==> Input File <==

--------------------------------------------------------------------------
#psi4
#
memory 32 gb

molecule  {
-1 1
  S        0.5401240    -0.0567320     0.0000000
  O        0.4874240    -0.8647860    -1.2512880
  O        1.5758940     1.0121500    -0.0000060
  O        0.4874170    -0.8647610     1.2513040
  C       -0.9371672     0.8027836    -0.0000104
  C       -2.2227860    -0.0817370     0.0000010
  H       -1.0143060     1.4942760     0.8867830
  H       -1.0143040     1.4942500    -0.8868250
  H       -3.1679310     0.4744510    -0.0000100
  H       -2.1864950    -0.7220660    -0.8842360
  H       -2.1864990    -0.7220390     0.8842580
units angstrom
no_reorient  #important for SAPT in psi4, default
symmetry c1  #important for SAPT in psi4, default
}

set PROPERTIES_ORIGIN ["COM"]
properties('MP2/aug-cc-pvtz', properties = ['dipole'])
--------------------------------------------------------------------------

    Molecular point group: c1
  Charge       = -1
  Multiplicity = 1
  Basis Set: AUG-CC-PVTZ
    Blend: AUG-CC-PVTZ
  Basis Set: (AUG-CC-PVTZ AUX)
    Blend: AUG-CC-PVTZ-JKFIT

    Orbital Energies [Eh]
    ---------------------

    Doubly Occupied:

       1A    -91.994421     2A    -20.336444     3A    -20.336424
       4A    -20.336325     5A    -11.101222     6A    -11.091684
       7A     -8.957331     8A     -6.642949     9A     -6.642150
      10A     -6.642143    11A     -1.257398    12A     -1.111416
      13A     -1.110932    14A     -0.901867    15A     -0.751311
      16A     -0.603416    17A     -0.502023    18A     -0.483894
      19A     -0.457950    20A     -0.442360    21A     -0.417983
      22A     -0.366938    23A     -0.354997    24A     -0.318296
      25A     -0.317116    26A     -0.271899    27A     -0.271461
      28A     -0.262904    29A     -0.236028

  @DF-RHF Final Energy:  -700.91178865470988

   => Energetics <=

    Nuclear Repulsion Energy =            348.5341075259709100
    One-Electron Energy =               -1669.8492343949540100
    Two-Electron Energy =                 620.4033382142731625
    Total Energy =                       -700.9117886547098806
  Basis Set: (AUG-CC-PVTZ AUX)
    Blend: AUG-CC-PVTZ-RI
    Molecular point group: c1

    Geometry (in Angstrom), charge = -1, multiplicity = 1:

       Center              X                  Y                   Z               Mass
    ------------   -----------------  -----------------  -----------------  -----------------
         S            0.443755124475    -0.032865841663    -0.000000155184    31.972071174400
         O            0.391055124475    -0.840919841663    -1.251288155184    15.994914619570
         O            1.479525124475     1.036016158337    -0.000006155184    15.994914619570
         O            0.391048124475    -0.840894841663     1.251303844816    15.994914619570
         C           -1.033536075525     0.826649758337    -0.000010555184    12.000000000000
         C           -2.319154875525    -0.057870841663     0.000000844816    12.000000000000
         H           -1.110674875525     1.518142158337     0.886782844816     1.007825032230
         H           -1.110672875525     1.518116158337    -0.886825155184     1.007825032230
         H           -3.264299875525     0.498317158337    -0.000010155184     1.007825032230
         H           -2.282863875525    -0.698199841663    -0.884236155184     1.007825032230
         H           -2.282867875525    -0.698172841663     0.884257844816     1.007825032230

  Basis Set: AUG-CC-PVTZ
    Blend: AUG-CC-PVTZ
  Basis Set: (AUG-CC-PVTZ AUX)
    Blend: AUG-CC-PVTZ-JKFIT
	 Reference Energy          =    -700.9117886547098806 [Eh]
	 Singles Energy            =      -0.0000000000000000 [Eh]
	 Same-Spin Energy          =      -0.3610309744925025 [Eh]
	 Opposite-Spin Energy      =      -1.0628682715905589 [Eh]
	 Correlation Energy        =      -1.4238992460830613 [Eh]
	 Total Energy              =    -702.3356879007928910 [Eh]

	 ================> DF-SCS-MP2 Energies <==================
	-----------------------------------------------------------
	 SCS Same-Spin Scale       =       0.3333333333333333 [-]
	 SCS Opposite-Spin Scale   =       1.2000000000000000 [-]
	 SCS Same-Spin Energy      =      -0.1203436581641675 [Eh]
	 SCS Opposite-Spin Energy  =      -1.2754419259086707 [Eh]
	 SCS Correlation Energy    =      -1.3957855840728381 [Eh]
	 SCS Total Energy          =    -702.3075742387827631 [Eh]
	-----------------------------------------------------------

  Dipole Moment: [D]
     X:    -4.5066      Y:     1.7086      Z:    -0.0000     Total:     4.8196

*** Psi4 exiting successfully. Buy a developer a beer!
