                               Psi4 1.4a3.dev225

  ==> Input File <==

--------------------------------------------------------------------------
#psi4
#
memory 32 gb

molecule  {
-1 1
  S       -0.5251900    -0.0446130     0.0000000
  O       -0.5231630    -0.8666190     1.2464430
  O       -1.5690800     1.0220300    -0.0000010
  O       -0.5231620    -0.8666200    -1.2464420
  C        1.0182992     0.8251971     0.0000000
  C        2.2383420    -0.0963210     0.0000000
  H        1.0305470     1.4783680    -0.8845630
  H        1.0305460     1.4783690     0.8845620
  H        3.1657760     0.4824540     0.0000000
  H        2.2275090    -0.7339400     0.8865020
  H        2.2275090    -0.7339410    -0.8865010
units angstrom
no_reorient  #important for SAPT in psi4, default
symmetry c1  #important for SAPT in psi4, default
}

set PROPERTIES_ORIGIN ["COM"]
properties('MP2/aug-cc-pvtz', properties = ['dipole'])
--------------------------------------------------------------------------

    Molecular point group: c1
  Charge       = -1
  Multiplicity = 1
  Basis Set: AUG-CC-PVTZ
    Blend: AUG-CC-PVTZ
  Basis Set: (AUG-CC-PVTZ AUX)
    Blend: AUG-CC-PVTZ-JKFIT

    Orbital Energies [Eh]
    ---------------------

    Doubly Occupied:

       1A    -91.993729     2A    -20.334519     3A    -20.334496
       4A    -20.333776     5A    -11.103056     6A    -11.093423
       7A     -8.955951     8A     -6.641340     9A     -6.640779
      10A     -6.640775    11A     -1.251498    12A     -1.106077
      13A     -1.105702    14A     -0.909599    15A     -0.749404
      16A     -0.604739    17A     -0.498221    18A     -0.492231
      19A     -0.454166    20A     -0.441515    21A     -0.416098
      22A     -0.384068    23A     -0.365843    24A     -0.314726
      25A     -0.314424    26A     -0.269743    27A     -0.269635
      28A     -0.255300    29A     -0.232309

  @DF-RHF Final Energy:  -700.92003672177418

   => Energetics <=

    Nuclear Repulsion Energy =            346.5107742767628451
    One-Electron Energy =               -1665.8473360644672994
    Two-Electron Energy =                 618.4165250659301591
    Total Energy =                       -700.9200367217741814
  Basis Set: (AUG-CC-PVTZ AUX)
    Blend: AUG-CC-PVTZ-RI
    Molecular point group: c1

    Geometry (in Angstrom), charge = -1, multiplicity = 1:

       Center              X                  Y                   Z               Mass
    ------------   -----------------  -----------------  -----------------  -----------------
         S           -0.435395377967    -0.025632031764    -0.000000000000    31.972071174400
         O           -0.433368377967    -0.847638031764     1.246443000000    15.994914619570
         O           -1.479285377967     1.041010968236    -0.000001000000    15.994914619570
         O           -0.433367377967    -0.847639031764    -1.246442000000    15.994914619570
         C            1.108093822033     0.844178068236    -0.000000000000    12.000000000000
         C            2.328136622033    -0.077340031764    -0.000000000000    12.000000000000
         H            1.120341622033     1.497348968236    -0.884563000000     1.007825032230
         H            1.120340622033     1.497349968236     0.884562000000     1.007825032230
         H            3.255570622033     0.501434968236    -0.000000000000     1.007825032230
         H            2.317303622033    -0.714959031764     0.886502000000     1.007825032230
         H            2.317303622033    -0.714960031764    -0.886501000000     1.007825032230

  Basis Set: AUG-CC-PVTZ
    Blend: AUG-CC-PVTZ
  Basis Set: (AUG-CC-PVTZ AUX)
    Blend: AUG-CC-PVTZ-JKFIT
	 Reference Energy          =    -700.9200367217741814 [Eh]
	 Singles Energy            =      -0.0000000000000000 [Eh]
	 Same-Spin Energy          =      -0.3606567470263468 [Eh]
	 Opposite-Spin Energy      =      -1.0623608302621319 [Eh]
	 Correlation Energy        =      -1.4230175772884786 [Eh]
	 Total Energy              =    -702.3430542990627146 [Eh]

	 ================> DF-SCS-MP2 Energies <==================
	-----------------------------------------------------------
	 SCS Same-Spin Scale       =       0.3333333333333333 [-]
	 SCS Opposite-Spin Scale   =       1.2000000000000000 [-]
	 SCS Same-Spin Energy      =      -0.1202189156754489 [Eh]
	 SCS Opposite-Spin Energy  =      -1.2748329963145582 [Eh]
	 SCS Correlation Energy    =      -1.3950519119900071 [Eh]
	 SCS Total Energy          =    -702.3150886337641623 [Eh]
	-----------------------------------------------------------

  Dipole Moment: [D]
     X:     4.8072      Y:     1.7465      Z:    -0.0000     Total:     5.1146

*** Psi4 exiting successfully. Buy a developer a beer!
