                               Psi4 1.4a3.dev225

  ==> Input File <==

--------------------------------------------------------------------------
#psi4
#
memory 32 gb

molecule  {
-1 1
  S       -0.5251900    -0.0446130     0.0000000
  O       -0.5231630    -0.8666190     1.2464430
  O       -1.6040522     1.0577644    -0.0000010
  O       -0.5231620    -0.8666200    -1.2464420
  C        1.0357230     0.8350160     0.0000000
  C        2.2383420    -0.0963210     0.0000000
  H        1.0305470     1.4783680    -0.8845630
  H        1.0305460     1.4783690     0.8845620
  H        3.1657760     0.4824540     0.0000000
  H        2.2275090    -0.7339400     0.8865020
  H        2.2275090    -0.7339410    -0.8865010
units angstrom
no_reorient  #important for SAPT in psi4, default
symmetry c1  #important for SAPT in psi4, default
}

set PROPERTIES_ORIGIN ["COM"]
properties('MP2/aug-cc-pvtz', properties = ['dipole'])
--------------------------------------------------------------------------

    Molecular point group: c1
  Charge       = -1
  Multiplicity = 1
  Basis Set: AUG-CC-PVTZ
    Blend: AUG-CC-PVTZ
  Basis Set: (AUG-CC-PVTZ AUX)
    Blend: AUG-CC-PVTZ-JKFIT

    Orbital Energies [Eh]
    ---------------------

    Doubly Occupied:

       1A    -91.998119     2A    -20.339205     3A    -20.339181
       4A    -20.334068     5A    -11.105721     6A    -11.095077
       7A     -8.959771     8A     -6.645082     9A     -6.644589
      10A     -6.644289    11A     -1.243520    12A     -1.109435
      13A     -1.089458    14A     -0.912541    15A     -0.749974
      16A     -0.608184    17A     -0.497147    18A     -0.495278
      19A     -0.452565    20A     -0.440118    21A     -0.413985
      22A     -0.388962    23A     -0.369163    24A     -0.311855
      25A     -0.311109    26A     -0.272492    27A     -0.265500
      28A     -0.251772    29A     -0.233013

  @DF-RHF Final Energy:  -700.91347214705957

   => Energetics <=

    Nuclear Repulsion Energy =            343.9279344358558888
    One-Electron Energy =               -1660.6404661866863535
    Two-Electron Energy =                 615.7990596037709565
    Total Energy =                       -700.9134721470595650
  Basis Set: (AUG-CC-PVTZ AUX)
    Blend: AUG-CC-PVTZ-RI
    Molecular point group: c1

    Geometry (in Angstrom), charge = -1, multiplicity = 1:

       Center              X                  Y                   Z               Mass
    ------------   -----------------  -----------------  -----------------  -----------------
         S           -0.432181572458    -0.031956996490    -0.000000000000    31.972071174400
         O           -0.430154572458    -0.853962996490     1.246443000000    15.994914619570
         O           -1.511043772458     1.070420403510    -0.000001000000    15.994914619570
         O           -0.430153572458    -0.853963996490    -1.246442000000    15.994914619570
         C            1.128731427542     0.847672003510    -0.000000000000    12.000000000000
         C            2.331350427542    -0.083664996490    -0.000000000000    12.000000000000
         H            1.123555427542     1.491024003510    -0.884563000000     1.007825032230
         H            1.123554427542     1.491025003510     0.884562000000     1.007825032230
         H            3.258784427542     0.495110003510    -0.000000000000     1.007825032230
         H            2.320517427542    -0.721283996490     0.886502000000     1.007825032230
         H            2.320517427542    -0.721284996490    -0.886501000000     1.007825032230

  Basis Set: AUG-CC-PVTZ
    Blend: AUG-CC-PVTZ
  Basis Set: (AUG-CC-PVTZ AUX)
    Blend: AUG-CC-PVTZ-JKFIT
	 Reference Energy          =    -700.9134721470595650 [Eh]
	 Singles Energy            =      -0.0000000000000000 [Eh]
	 Same-Spin Energy          =      -0.3615383429645208 [Eh]
	 Opposite-Spin Energy      =      -1.0649182721310366 [Eh]
	 Correlation Energy        =      -1.4264566150955575 [Eh]
	 Total Energy              =    -702.3399287621550684 [Eh]

	 ================> DF-SCS-MP2 Energies <==================
	-----------------------------------------------------------
	 SCS Same-Spin Scale       =       0.3333333333333333 [-]
	 SCS Opposite-Spin Scale   =       1.2000000000000000 [-]
	 SCS Same-Spin Energy      =      -0.1205127809881736 [Eh]
	 SCS Opposite-Spin Energy  =      -1.2779019265572440 [Eh]
	 SCS Correlation Energy    =      -1.3984147075454176 [Eh]
	 SCS Total Energy          =    -702.3118868546049498 [Eh]
	-----------------------------------------------------------

  Dipole Moment: [D]
     X:     5.0547      Y:     1.5052      Z:    -0.0000     Total:     5.2740

*** Psi4 exiting successfully. Buy a developer a beer!
