                               Psi4 1.4a3.dev225

  ==> Input File <==

--------------------------------------------------------------------------
#psi4
#
memory 32 gb

molecule  {
-1 1
  S       -0.5251900    -0.0446130     0.0000000
  O       -0.5231630    -0.8666190     1.2464430
  O       -1.5341078     0.9862956    -0.0000010
  O       -0.5231620    -0.8666200    -1.2464420
  C        1.0357230     0.8350160     0.0000000
  C        2.2383420    -0.0963210     0.0000000
  H        1.0305470     1.4783680    -0.8845630
  H        1.0305460     1.4783690     0.8845620
  H        3.1657760     0.4824540     0.0000000
  H        2.2275090    -0.7339400     0.8865020
  H        2.2275090    -0.7339410    -0.8865010
units angstrom
no_reorient  #important for SAPT in psi4, default
symmetry c1  #important for SAPT in psi4, default
}

set PROPERTIES_ORIGIN ["COM"]
properties('MP2/aug-cc-pvtz', properties = ['dipole'])
--------------------------------------------------------------------------

    Molecular point group: c1
  Charge       = -1
  Multiplicity = 1
  Basis Set: AUG-CC-PVTZ
    Blend: AUG-CC-PVTZ
  Basis Set: (AUG-CC-PVTZ AUX)
    Blend: AUG-CC-PVTZ-JKFIT

    Orbital Energies [Eh]
    ---------------------

    Doubly Occupied:

       1A    -91.987952     2A    -20.334132     3A    -20.329886
       4A    -20.329862     5A    -11.099003     6A    -11.090419
       7A     -8.950886     8A     -6.636243     9A     -6.636029
      10A     -6.635627    11A     -1.262935    12A     -1.119480
      13A     -1.102371    14A     -0.907549    15A     -0.744333
      16A     -0.600943    17A     -0.498215    18A     -0.491887
      19A     -0.455523    20A     -0.444412    21A     -0.417298
      22A     -0.385173    23A     -0.365161    24A     -0.318050
      25A     -0.317849    26A     -0.274678    27A     -0.267462
      28A     -0.250827    29A     -0.231201

  @DF-RHF Final Energy:  -700.92339180133035

   => Energetics <=

    Nuclear Repulsion Energy =            348.4173784258728119
    One-Electron Energy =               -1669.7107649469512580
    Two-Electron Energy =                 620.3699947197480924
    Total Energy =                       -700.9233918013303537
  Basis Set: (AUG-CC-PVTZ AUX)
    Blend: AUG-CC-PVTZ-RI
    Molecular point group: c1

    Geometry (in Angstrom), charge = -1, multiplicity = 1:

       Center              X                  Y                   Z               Mass
    ------------   -----------------  -----------------  -----------------  -----------------
         S           -0.442445759401    -0.021469107198    -0.000000000000    31.972071174400
         O           -0.440418759401    -0.843475107198     1.246443000000    15.994914619570
         O           -1.451363559401     1.009439492802    -0.000001000000    15.994914619570
         O           -0.440417759401    -0.843476107198    -1.246442000000    15.994914619570
         C            1.118467240599     0.858159892802    -0.000000000000    12.000000000000
         C            2.321086240599    -0.073177107198    -0.000000000000    12.000000000000
         H            1.113291240599     1.501511892802    -0.884563000000     1.007825032230
         H            1.113290240599     1.501512892802     0.884562000000     1.007825032230
         H            3.248520240599     0.505597892802    -0.000000000000     1.007825032230
         H            2.310253240599    -0.710796107198     0.886502000000     1.007825032230
         H            2.310253240599    -0.710797107198    -0.886501000000     1.007825032230

  Basis Set: AUG-CC-PVTZ
    Blend: AUG-CC-PVTZ
  Basis Set: (AUG-CC-PVTZ AUX)
    Blend: AUG-CC-PVTZ-JKFIT
	 Reference Energy          =    -700.9233918013303537 [Eh]
	 Singles Energy            =      -0.0000000000000000 [Eh]
	 Same-Spin Energy          =      -0.3597151061115805 [Eh]
	 Opposite-Spin Energy      =      -1.0598643261942358 [Eh]
	 Correlation Energy        =      -1.4195794323058162 [Eh]
	 Total Energy              =    -702.3429712336361490 [Eh]

	 ================> DF-SCS-MP2 Energies <==================
	-----------------------------------------------------------
	 SCS Same-Spin Scale       =       0.3333333333333333 [-]
	 SCS Opposite-Spin Scale   =       1.2000000000000000 [-]
	 SCS Same-Spin Energy      =      -0.1199050353705268 [Eh]
	 SCS Opposite-Spin Energy  =      -1.2718371914330828 [Eh]
	 SCS Correlation Energy    =      -1.3917422268036097 [Eh]
	 SCS Total Energy          =    -702.3151340281339117 [Eh]
	-----------------------------------------------------------

  Dipole Moment: [D]
     X:     4.5253      Y:     1.9627      Z:    -0.0000     Total:     4.9326

*** Psi4 exiting successfully. Buy a developer a beer!
