                               Psi4 1.3.2 release

  ==> Input File <==

--------------------------------------------------------------------------
#psi4
#
memory 32 gb

molecule  {
-1 1
  S        0.5401240    -0.0567320     0.0000000
  O        0.4874240    -0.8647860    -1.2512880
  O        1.5758940     1.0121500    -0.0000060
  O        0.4874170    -0.8647610     1.2513040
  C       -0.8507324     0.7524942    -0.0000098
  C       -2.2227860    -0.0817370     0.0000010
  H       -1.0143060     1.4942760     0.8867830
  H       -1.0143040     1.4942500    -0.8868250
  H       -3.1679310     0.4744510    -0.0000100
  H       -2.1864950    -0.7220660    -0.8842360
  H       -2.1864990    -0.7220390     0.8842580
units angstrom
no_reorient  #important for SAPT in psi4, default
symmetry c1  #important for SAPT in psi4, default
}

set PROPERTIES_ORIGIN ["COM"]
properties('MP2/aug-cc-pvtz', properties = ['dipole'])
--------------------------------------------------------------------------

    Molecular point group: c1
  Charge       = -1
  Multiplicity = 1
  Basis Set: AUG-CC-PVTZ
    Blend: AUG-CC-PVTZ
  Basis Set: (AUG-CC-PVTZ AUX)
    Blend: AUG-CC-PVTZ-JKFIT

    Orbital Energies [Eh]
    ---------------------

    Doubly Occupied:

       1A    -91.991248     2A    -20.335024     3A    -20.335002
       4A    -20.334411     5A    -11.106732     6A    -11.096730
       7A     -8.956275     8A     -6.642281     9A     -6.640884
      10A     -6.640879    11A     -1.261535    12A     -1.111240
      13A     -1.111007    14A     -0.903868    15A     -0.766769
      16A     -0.601404    17A     -0.505996    18A     -0.481275
      19A     -0.461982    20A     -0.439938    21A     -0.421287
      22A     -0.354429    23A     -0.347569    24A     -0.317814
      25A     -0.314951    26A     -0.275001    27A     -0.266903
      28A     -0.266481    29A     -0.235060

  @DF-RHF Final Energy:  -700.88090442378314

   => Energetics <=

    Nuclear Repulsion Energy =            350.7765234897289588
    One-Electron Energy =               -1674.2669094907082581
    Two-Electron Energy =                 622.6094815771961066
    Total Energy =                       -700.8809044237831358
  Basis Set: (AUG-CC-PVTZ AUX)
    Blend: AUG-CC-PVTZ-RI
    Molecular point group: c1

    Geometry (in Angstrom), charge = -1, multiplicity = 1:

       Center              X                  Y                   Z               Mass
    ------------   -----------------  -----------------  -----------------  -----------------
         S            0.434239012240    -0.027329187739    -0.000000221241    31.972071174400
         O            0.381539012240    -0.835383187739    -1.251288221241    15.994914619570
         O            1.470009012240     1.041552812261    -0.000006221241    15.994914619570
         O            0.381532012240    -0.835358187739     1.251303778759    15.994914619570
         C           -0.956617387760     0.781897012261    -0.000010021241    12.000000000000
         C           -2.328670987760    -0.052334187739     0.000000778759    12.000000000000
         H           -1.120190987760     1.523678812261     0.886782778759     1.007825032230
         H           -1.120188987760     1.523652812261    -0.886825221241     1.007825032230
         H           -3.273815987760     0.503853812261    -0.000010221241     1.007825032230
         H           -2.292379987760    -0.692663187739    -0.884236221241     1.007825032230
         H           -2.292383987760    -0.692636187739     0.884257778759     1.007825032230

  Basis Set: AUG-CC-PVTZ
    Blend: AUG-CC-PVTZ
  Basis Set: (AUG-CC-PVTZ AUX)
    Blend: AUG-CC-PVTZ-JKFIT
	 Reference Energy          =    -700.8809044237831358 [Eh]
	 Singles Energy            =      -0.0000000000000000 [Eh]
	 Same-Spin Energy          =      -0.3622676887189370 [Eh]
	 Opposite-Spin Energy      =      -1.0647347079640190 [Eh]
	 Correlation Energy        =      -1.4270023966829561 [Eh]
	 Total Energy              =    -702.3079068204660871 [Eh]

	 ================> DF-SCS-MP2 Energies <==================
	-----------------------------------------------------------
	 SCS Same-Spin Scale       =       0.3333333333333333 [-]
	 SCS Opposite-Spin Scale   =       1.2000000000000000 [-]
	 SCS Same-Spin Energy      =      -0.1207558962396457 [Eh]
	 SCS Opposite-Spin Energy  =      -1.2776816495568228 [Eh]
	 SCS Correlation Energy    =      -1.3984375457964684 [Eh]
	 SCS Total Energy          =    -702.2793419695796047 [Eh]
	-----------------------------------------------------------

  Dipole Moment: [D]
     X:    -4.5951      Y:     1.7527      Z:    -0.0000     Total:     4.9180

*** Psi4 exiting successfully. Buy a developer a beer!
