                               Psi4 1.3.2 release

  ==> Input File <==

--------------------------------------------------------------------------
#psi4
#
memory 32 gb

molecule  {
-1 1
  S        0.5240076    -0.0838842     0.0000003
  O        0.4874240    -0.8647860    -1.2512880
  O        1.5758940     1.0121500    -0.0000060
  O        0.4874170    -0.8647610     1.2513040
  C       -1.0236020     0.8530730    -0.0000110
  C       -2.2227860    -0.0817370     0.0000010
  H       -1.0143060     1.4942760     0.8867830
  H       -1.0143040     1.4942500    -0.8868250
  H       -3.1679310     0.4744510    -0.0000100
  H       -2.1864950    -0.7220660    -0.8842360
  H       -2.1864990    -0.7220390     0.8842580
units angstrom
no_reorient  #important for SAPT in psi4, default
symmetry c1  #important for SAPT in psi4, default
}

set PROPERTIES_ORIGIN ["COM"]
properties('MP2/aug-cc-pvtz', properties = ['dipole'])
--------------------------------------------------------------------------

    Molecular point group: c1
  Charge       = -1
  Multiplicity = 1
  Basis Set: AUG-CC-PVTZ
    Blend: AUG-CC-PVTZ
  Basis Set: (AUG-CC-PVTZ AUX)
    Blend: AUG-CC-PVTZ-JKFIT

    Orbital Energies [Eh]
    ---------------------

    Doubly Occupied:

       1A    -91.994765     2A    -20.341397     3A    -20.341374
       4A    -20.329717     5A    -11.097066     6A    -11.088851
       7A     -8.956696     8A     -6.642027     9A     -6.641682
      10A     -6.641412    11A     -1.256004    12A     -1.122382
      13A     -1.097751    14A     -0.904409    15A     -0.738371
      16A     -0.604486    17A     -0.498580    18A     -0.489489
      19A     -0.454500    20A     -0.445893    21A     -0.413109
      22A     -0.383279    23A     -0.363294    24A     -0.318868
      25A     -0.317058    26A     -0.279878    27A     -0.269029
      28A     -0.245284    29A     -0.235614

  @DF-RHF Final Energy:  -700.91921358397917

   => Energetics <=

    Nuclear Repulsion Energy =            346.6315442006857097
    One-Electron Energy =               -1666.0769840321579522
    Two-Electron Energy =                 618.5262262474930139
    Total Energy =                       -700.9192135839791717
  Basis Set: (AUG-CC-PVTZ AUX)
    Blend: AUG-CC-PVTZ-RI
    Molecular point group: c1

    Geometry (in Angstrom), charge = -1, multiplicity = 1:

       Center              X                  Y                   Z               Mass
    ------------   -----------------  -----------------  -----------------  -----------------
         S            0.441882303503    -0.057590068012     0.000000122874    31.972071174400
         O            0.405298703503    -0.838491868012    -1.251288177126    15.994914619570
         O            1.493768703503     1.038444131988    -0.000006177126    15.994914619570
         O            0.405291703503    -0.838466868012     1.251303822874    15.994914619570
         C           -1.105727296497     0.879367131988    -0.000011177126    12.000000000000
         C           -2.304911296497    -0.055442868012     0.000000822874    12.000000000000
         H           -1.096431296497     1.520570131988     0.886782822874     1.007825032230
         H           -1.096429296497     1.520544131988    -0.886825177126     1.007825032230
         H           -3.250056296497     0.500745131988    -0.000010177126     1.007825032230
         H           -2.268620296497    -0.695771868012    -0.884236177126     1.007825032230
         H           -2.268624296497    -0.695744868012     0.884257822874     1.007825032230

  Basis Set: AUG-CC-PVTZ
    Blend: AUG-CC-PVTZ
  Basis Set: (AUG-CC-PVTZ AUX)
    Blend: AUG-CC-PVTZ-JKFIT
	 Reference Energy          =    -700.9192135839791717 [Eh]
	 Singles Energy            =      -0.0000000000000000 [Eh]
	 Same-Spin Energy          =      -0.3608273518455288 [Eh]
	 Opposite-Spin Energy      =      -1.0627930406808201 [Eh]
	 Correlation Energy        =      -1.4236203925263489 [Eh]
	 Total Energy              =    -702.3428339765055171 [Eh]

	 ================> DF-SCS-MP2 Energies <==================
	-----------------------------------------------------------
	 SCS Same-Spin Scale       =       0.3333333333333333 [-]
	 SCS Opposite-Spin Scale   =       1.2000000000000000 [-]
	 SCS Same-Spin Energy      =      -0.1202757839485096 [Eh]
	 SCS Opposite-Spin Energy  =      -1.2753516488169840 [Eh]
	 SCS Correlation Energy    =      -1.3956274327654936 [Eh]
	 SCS Total Energy          =    -702.3148410167447082 [Eh]
	-----------------------------------------------------------

  Dipole Moment: [D]
     X:    -4.6200      Y:     1.3339      Z:    -0.0000     Total:     4.8087

*** Psi4 exiting successfully. Buy a developer a beer!
