                               Psi4 1.3.2 release

  ==> Input File <==

--------------------------------------------------------------------------
#psi4
#
memory 32 gb

molecule  {
-1 1
  S        0.4728501    -0.1635958     0.0000014
  O        0.4874240    -0.8647860    -1.2512880
  O        1.5758940     1.0121500    -0.0000060
  O        0.4874170    -0.8647610     1.2513040
  C       -1.0236020     0.8530730    -0.0000110
  C       -2.2227860    -0.0817370     0.0000010
  H       -1.0143060     1.4942760     0.8867830
  H       -1.0143040     1.4942500    -0.8868250
  H       -3.1679310     0.4744510    -0.0000100
  H       -2.1864950    -0.7220660    -0.8842360
  H       -2.1864990    -0.7220390     0.8842580
units angstrom
no_reorient  #important for SAPT in psi4, default
symmetry c1  #important for SAPT in psi4, default
}

set PROPERTIES_ORIGIN ["COM"]
properties('MP2/aug-cc-pvtz', properties = ['dipole'])
--------------------------------------------------------------------------

    Molecular point group: c1
  Charge       = -1
  Multiplicity = 1
  Basis Set: AUG-CC-PVTZ
    Blend: AUG-CC-PVTZ
  Basis Set: (AUG-CC-PVTZ AUX)
    Blend: AUG-CC-PVTZ-JKFIT

    Orbital Energies [Eh]
    ---------------------

    Doubly Occupied:

       1A    -91.991840     2A    -20.352859     3A    -20.352836
       4A    -20.306427     5A    -11.097631     6A    -11.091010
       7A     -8.955400     8A     -6.640722     9A     -6.640506
      10A     -6.639715    11A     -1.274406    12A     -1.156383
      13A     -1.048140    14A     -0.907644    15A     -0.736976
      16A     -0.608507    17A     -0.506627    18A     -0.492388
      19A     -0.457808    20A     -0.455711    21A     -0.412625
      22A     -0.387209    23A     -0.367513    24A     -0.327604
      25A     -0.314506    26A     -0.297525    27A     -0.253990
      28A     -0.227218    29A     -0.221312

  @DF-RHF Final Energy:  -700.89913271156684

   => Energetics <=

    Nuclear Repulsion Energy =            347.1129281143385583
    One-Electron Energy =               -1666.9780407034588734
    Two-Electron Energy =                 618.9659798775535364
    Total Energy =                       -700.8991327115668355
  Basis Set: (AUG-CC-PVTZ AUX)
    Blend: AUG-CC-PVTZ-RI
    Molecular point group: c1

    Geometry (in Angstrom), charge = -1, multiplicity = 1:

       Center              X                  Y                   Z               Mass
    ------------   -----------------  -----------------  -----------------  -----------------
         S            0.405730970046    -0.113919650809     0.000000900208    31.972071174400
         O            0.420304870046    -0.815109850809    -1.251288499792    15.994914619570
         O            1.508774870046     1.061826149191    -0.000006499792    15.994914619570
         O            0.420297870046    -0.815084850809     1.251303500208    15.994914619570
         C           -1.090721129954     0.902749149191    -0.000011499792    12.000000000000
         C           -2.289905129954    -0.032060850809     0.000000500208    12.000000000000
         H           -1.081425129954     1.543952149191     0.886782500208     1.007825032230
         H           -1.081423129954     1.543926149191    -0.886825499792     1.007825032230
         H           -3.235050129954     0.524127149191    -0.000010499792     1.007825032230
         H           -2.253614129954    -0.672389850809    -0.884236499792     1.007825032230
         H           -2.253618129954    -0.672362850809     0.884257500208     1.007825032230

  Basis Set: AUG-CC-PVTZ
    Blend: AUG-CC-PVTZ
  Basis Set: (AUG-CC-PVTZ AUX)
    Blend: AUG-CC-PVTZ-JKFIT
	 Reference Energy          =    -700.8991327115668355 [Eh]
	 Singles Energy            =      -0.0000000000000000 [Eh]
	 Same-Spin Energy          =      -0.3608546359347082 [Eh]
	 Opposite-Spin Energy      =      -1.0634322018690738 [Eh]
	 Correlation Energy        =      -1.4242868378037821 [Eh]
	 Total Energy              =    -702.3234195493706693 [Eh]

	 ================> DF-SCS-MP2 Energies <==================
	-----------------------------------------------------------
	 SCS Same-Spin Scale       =       0.3333333333333333 [-]
	 SCS Opposite-Spin Scale   =       1.2000000000000000 [-]
	 SCS Same-Spin Energy      =      -0.1202848786449027 [Eh]
	 SCS Opposite-Spin Energy  =      -1.2761186422428885 [Eh]
	 SCS Correlation Energy    =      -1.3964035208877912 [Eh]
	 SCS Total Energy          =    -702.2955362324546513 [Eh]
	-----------------------------------------------------------

  Dipole Moment: [D]
     X:    -5.2776      Y:     0.3861      Z:    -0.0000     Total:     5.2917

*** Psi4 exiting successfully. Buy a developer a beer!
