                               Psi4 1.3.2 release

  ==> Input File <==

--------------------------------------------------------------------------
#psi4
#
memory 32 gb

molecule  {
-1 1
  S        0.5401240    -0.0567320     0.0000000
  O        0.4874240    -0.8647860    -1.2512880
  O        1.6479324     0.9372946    -0.0000052
  O        0.4874170    -0.8647610     1.2513040
  C       -1.0236020     0.8530730    -0.0000110
  C       -2.2227860    -0.0817370     0.0000010
  H       -1.0143060     1.4942760     0.8867830
  H       -1.0143040     1.4942500    -0.8868250
  H       -3.1679310     0.4744510    -0.0000100
  H       -2.1864950    -0.7220660    -0.8842360
  H       -2.1864990    -0.7220390     0.8842580
units angstrom
no_reorient  #important for SAPT in psi4, default
symmetry c1  #important for SAPT in psi4, default
}

set PROPERTIES_ORIGIN ["COM"]
properties('MP2/aug-cc-pvtz', properties = ['dipole'])
--------------------------------------------------------------------------

    Molecular point group: c1
  Charge       = -1
  Multiplicity = 1
  Basis Set: AUG-CC-PVTZ
    Blend: AUG-CC-PVTZ
  Basis Set: (AUG-CC-PVTZ AUX)
    Blend: AUG-CC-PVTZ-JKFIT

    Orbital Energies [Eh]
    ---------------------

    Doubly Occupied:

       1A    -91.993848     2A    -20.336362     3A    -20.334040
       4A    -20.334018     5A    -11.102473     6A    -11.091246
       7A     -8.955773     8A     -6.641118     9A     -6.640647
      10A     -6.640587    11A     -1.252911    12A     -1.108040
      13A     -1.107407    14A     -0.907140    15A     -0.742768
      16A     -0.603673    17A     -0.497588    18A     -0.491208
      19A     -0.453484    20A     -0.443240    21A     -0.415948
      22A     -0.384147    23A     -0.364946    24A     -0.317060
      25A     -0.314612    26A     -0.271294    27A     -0.271282
      28A     -0.249984    29A     -0.233092

  @DF-RHF Final Energy:  -700.92052248884499

   => Energetics <=

    Nuclear Repulsion Energy =            346.2955349794874564
    One-Electron Energy =               -1665.4322403844071232
    Two-Electron Energy =                 618.2161829160746720
    Total Energy =                       -700.9205224888449948
  Basis Set: (AUG-CC-PVTZ AUX)
    Blend: AUG-CC-PVTZ-RI
    Molecular point group: c1

    Geometry (in Angstrom), charge = -1, multiplicity = 1:

       Center              X                  Y                   Z               Mass
    ------------   -----------------  -----------------  -----------------  -----------------
         S            0.442699759870    -0.027417630191    -0.000000206524    31.972071174400
         O            0.389999759870    -0.835471630191    -1.251288206524    15.994914619570
         O            1.550508159870     0.966608969809    -0.000005406524    15.994914619570
         O            0.389992759870    -0.835446630191     1.251303793476    15.994914619570
         C           -1.121026240130     0.882387369809    -0.000011206524    12.000000000000
         C           -2.320210240130    -0.052422630191     0.000000793476    12.000000000000
         H           -1.111730240130     1.523590369809     0.886782793476     1.007825032230
         H           -1.111728240130     1.523564369809    -0.886825206524     1.007825032230
         H           -3.265355240130     0.503765369809    -0.000010206524     1.007825032230
         H           -2.283919240130    -0.692751630191    -0.884236206524     1.007825032230
         H           -2.283923240130    -0.692724630191     0.884257793476     1.007825032230

  Basis Set: AUG-CC-PVTZ
    Blend: AUG-CC-PVTZ
  Basis Set: (AUG-CC-PVTZ AUX)
    Blend: AUG-CC-PVTZ-JKFIT
	 Reference Energy          =    -700.9205224888449948 [Eh]
	 Singles Energy            =      -0.0000000000000000 [Eh]
	 Same-Spin Energy          =      -0.3606691582667846 [Eh]
	 Opposite-Spin Energy      =      -1.0623976139227667 [Eh]
	 Correlation Energy        =      -1.4230667721895514 [Eh]
	 Total Energy              =    -702.3435892610345945 [Eh]

	 ================> DF-SCS-MP2 Energies <==================
	-----------------------------------------------------------
	 SCS Same-Spin Scale       =       0.3333333333333333 [-]
	 SCS Opposite-Spin Scale   =       1.2000000000000000 [-]
	 SCS Same-Spin Energy      =      -0.1202230527555949 [Eh]
	 SCS Opposite-Spin Energy  =      -1.2748771367073199 [Eh]
	 SCS Correlation Energy    =      -1.3951001894629149 [Eh]
	 SCS Total Energy          =    -702.3156226783079319 [Eh]
	-----------------------------------------------------------

  Dipole Moment: [D]
     X:    -4.6248      Y:     1.8134      Z:    -0.0000     Total:     4.9676

*** Psi4 exiting successfully. Buy a developer a beer!
