                               Psi4 1.3.2 release

  ==> Input File <==

--------------------------------------------------------------------------
#psi4
#
memory 32 gb

molecule  {
-1 1
  S        0.5561006    -0.0270815    -0.0534156
  O        0.4874240    -0.8647860    -1.2512880
  O        1.5758940     1.0121500    -0.0000060
  O        0.4874170    -0.8647610     1.2513040
  C       -1.0236020     0.8530730    -0.0000110
  C       -2.2227860    -0.0817370     0.0000010
  H       -1.0143060     1.4942760     0.8867830
  H       -1.0143040     1.4942500    -0.8868250
  H       -3.1679310     0.4744510    -0.0000100
  H       -2.1864950    -0.7220660    -0.8842360
  H       -2.1864990    -0.7220390     0.8842580
units angstrom
no_reorient  #important for SAPT in psi4, default
symmetry c1  #important for SAPT in psi4, default
}

set PROPERTIES_ORIGIN ["COM"]
properties('MP2/aug-cc-pvtz', properties = ['dipole'])
--------------------------------------------------------------------------

    Molecular point group: c1
  Charge       = -1
  Multiplicity = 1
  Basis Set: AUG-CC-PVTZ
    Blend: AUG-CC-PVTZ
  Basis Set: (AUG-CC-PVTZ AUX)
    Blend: AUG-CC-PVTZ-JKFIT

    Orbital Energies [Eh]
    ---------------------

    Doubly Occupied:

       1A    -91.994293     2A    -20.346089     3A    -20.344844
       4A    -20.321855     5A    -11.097395     6A    -11.087637
       7A     -8.956556     8A     -6.641842     9A     -6.641676
      10A     -6.641135    11A     -1.260821    12A     -1.134529
      13A     -1.081933    14A     -0.902545    15A     -0.739852
      16A     -0.603419    17A     -0.498107    18A     -0.488525
      19A     -0.458067    20A     -0.443825    21A     -0.417728
      22A     -0.380794    23A     -0.361063    24A     -0.321252
      25A     -0.317172    26A     -0.286342    27A     -0.262606
      28A     -0.242198    29A     -0.232456

  @DF-RHF Final Energy:  -700.91517241666418

   => Energetics <=

    Nuclear Repulsion Energy =            346.3753327515111664
    One-Electron Energy =               -1665.5678978688047209
    Two-Electron Energy =                 618.2773927006293206
    Total Energy =                       -700.9151724166641770
  Basis Set: (AUG-CC-PVTZ AUX)
    Blend: AUG-CC-PVTZ-RI
    Molecular point group: c1

    Geometry (in Angstrom), charge = -1, multiplicity = 1:

       Center              X                  Y                   Z               Mass
    ------------   -----------------  -----------------  -----------------  -----------------
         S            0.464561377824    -0.017449456196    -0.037747148060    31.972071174400
         O            0.395884777824    -0.855153956196    -1.235619548060    15.994914619570
         O            1.484354777824     1.021782043804     0.015662451940    15.994914619570
         O            0.395877777824    -0.855128956196     1.266972451940    15.994914619570
         C           -1.115141222176     0.862705043804     0.015657451940    12.000000000000
         C           -2.314325222176    -0.072104956196     0.015669451940    12.000000000000
         H           -1.105845222176     1.503908043804     0.902451451940     1.007825032230
         H           -1.105843222176     1.503882043804    -0.871156548060     1.007825032230
         H           -3.259470222176     0.484083043804     0.015658451940     1.007825032230
         H           -2.278034222176    -0.712433956196    -0.868567548060     1.007825032230
         H           -2.278038222176    -0.712406956196     0.899926451940     1.007825032230

  Basis Set: AUG-CC-PVTZ
    Blend: AUG-CC-PVTZ
  Basis Set: (AUG-CC-PVTZ AUX)
    Blend: AUG-CC-PVTZ-JKFIT
	 Reference Energy          =    -700.9151724166641770 [Eh]
	 Singles Energy            =      -0.0000000000000000 [Eh]
	 Same-Spin Energy          =      -0.3608040332471737 [Eh]
	 Opposite-Spin Energy      =      -1.0628730151727956 [Eh]
	 Correlation Energy        =      -1.4236770484199694 [Eh]
	 Total Energy              =    -702.3388494650841949 [Eh]

	 ================> DF-SCS-MP2 Energies <==================
	-----------------------------------------------------------
	 SCS Same-Spin Scale       =       0.3333333333333333 [-]
	 SCS Opposite-Spin Scale   =       1.2000000000000000 [-]
	 SCS Same-Spin Energy      =      -0.1202680110823912 [Eh]
	 SCS Opposite-Spin Energy  =      -1.2754476182073546 [Eh]
	 SCS Correlation Energy    =      -1.3957156292897459 [Eh]
	 SCS Total Energy          =    -702.3108880459539023 [Eh]
	-----------------------------------------------------------

  Dipole Moment: [D]
     X:    -4.2199      Y:     1.9991      Z:    -0.6296     Total:     4.7117

*** Psi4 exiting successfully. Buy a developer a beer!
