                               Psi4 1.4a3.dev225

  ==> Input File <==

--------------------------------------------------------------------------
#psi4
#
memory 32 gb

molecule  {
-1 1
  S       -0.5251900    -0.0446130     0.0000000
  O       -0.5231630    -0.8666190     1.2464430
  O       -1.5830689     1.0363238    -0.0000010
  O       -0.5231620    -0.8666200    -1.2464420
  C        1.0357230     0.8350160     0.0000000
  C        2.2383420    -0.0963210     0.0000000
  H        1.0305470     1.4783680    -0.8845630
  H        1.0305460     1.4783690     0.8845620
  H        3.1657760     0.4824540     0.0000000
  H        2.2275090    -0.7339400     0.8865020
  H        2.2275090    -0.7339410    -0.8865010
units angstrom
no_reorient  #important for SAPT in psi4, default
symmetry c1  #important for SAPT in psi4, default
}

set PROPERTIES_ORIGIN ["COM"]
properties('MP2/aug-cc-pvtz', properties = ['dipole'])
--------------------------------------------------------------------------

    Molecular point group: c1
  Charge       = -1
  Multiplicity = 1
  Basis Set: AUG-CC-PVTZ
    Blend: AUG-CC-PVTZ
  Basis Set: (AUG-CC-PVTZ AUX)
    Blend: AUG-CC-PVTZ-JKFIT

    Orbital Energies [Eh]
    ---------------------

    Doubly Occupied:

       1A    -91.995611     2A    -20.336539     3A    -20.336516
       4A    -20.333993     5A    -11.103811     6A    -11.093736
       7A     -8.957447     8A     -6.642781     9A     -6.642279
      10A     -6.642145    11A     -1.247466    12A     -1.107401
      13A     -1.099371    14A     -0.911099    15A     -0.748291
      16A     -0.606035    17A     -0.497129    18A     -0.494196
      19A     -0.453088    20A     -0.440925    21A     -0.414833
      22A     -0.387907    23A     -0.367975    24A     -0.313452
      25A     -0.313144    26A     -0.271109    27A     -0.268148
      28A     -0.252017    29A     -0.232721

  @DF-RHF Final Energy:  -700.91813190066682

   => Energetics <=

    Nuclear Repulsion Energy =            345.2257828396635659
    One-Electron Energy =               -1663.2654975263001234
    Two-Electron Energy =                 617.1215827859698493
    Total Energy =                       -700.9181319006668218
  Basis Set: (AUG-CC-PVTZ AUX)
    Blend: AUG-CC-PVTZ-RI
    Molecular point group: c1

    Geometry (in Angstrom), charge = -1, multiplicity = 1:

       Center              X                  Y                   Z               Mass
    ------------   -----------------  -----------------  -----------------  -----------------
         S           -0.435260825606    -0.028810635572    -0.000000000000    31.972071174400
         O           -0.433233825606    -0.850816635572     1.246443000000    15.994914619570
         O           -1.493139725606     1.052126164428    -0.000001000000    15.994914619570
         O           -0.433232825606    -0.850817635572    -1.246442000000    15.994914619570
         C            1.125652174394     0.850818364428    -0.000000000000    12.000000000000
         C            2.328271174394    -0.080518635572    -0.000000000000    12.000000000000
         H            1.120476174394     1.494170364428    -0.884563000000     1.007825032230
         H            1.120475174394     1.494171364428     0.884562000000     1.007825032230
         H            3.255705174394     0.498256364428    -0.000000000000     1.007825032230
         H            2.317438174394    -0.718137635572     0.886502000000     1.007825032230
         H            2.317438174394    -0.718138635572    -0.886501000000     1.007825032230

  Basis Set: AUG-CC-PVTZ
    Blend: AUG-CC-PVTZ
  Basis Set: (AUG-CC-PVTZ AUX)
    Blend: AUG-CC-PVTZ-JKFIT
	 Reference Energy          =    -700.9181319006668218 [Eh]
	 Singles Energy            =      -0.0000000000000000 [Eh]
	 Same-Spin Energy          =      -0.3610362037590833 [Eh]
	 Opposite-Spin Energy      =      -1.0634477995979257 [Eh]
	 Correlation Energy        =      -1.4244840033570090 [Eh]
	 Total Energy              =    -702.3426159040238872 [Eh]

	 ================> DF-SCS-MP2 Energies <==================
	-----------------------------------------------------------
	 SCS Same-Spin Scale       =       0.3333333333333333 [-]
	 SCS Opposite-Spin Scale   =       1.2000000000000000 [-]
	 SCS Same-Spin Energy      =      -0.1203454012530278 [Eh]
	 SCS Opposite-Spin Energy  =      -1.2761373595175107 [Eh]
	 SCS Correlation Energy    =      -1.3964827607705386 [Eh]
	 SCS Total Energy          =    -702.3146146614373038 [Eh]
	-----------------------------------------------------------

  Dipole Moment: [D]
     X:     4.8961      Y:     1.6428      Z:    -0.0000     Total:     5.1643

*** Psi4 exiting successfully. Buy a developer a beer!
