                               Psi4 1.3.2 release

  ==> Input File <==

--------------------------------------------------------------------------
#psi4
#
memory 32 gb

molecule  {
-1 1
  S        0.5401240    -0.0567320     0.0000000
  O        0.4874240    -0.8647860    -1.2512880
  O        1.6134087     0.9644445     0.1434807
  O        0.4874170    -0.8647610     1.2513040
  C       -1.0236020     0.8530730    -0.0000110
  C       -2.2227860    -0.0817370     0.0000010
  H       -1.0143060     1.4942760     0.8867830
  H       -1.0143040     1.4942500    -0.8868250
  H       -3.1679310     0.4744510    -0.0000100
  H       -2.1864950    -0.7220660    -0.8842360
  H       -2.1864990    -0.7220390     0.8842580
units angstrom
no_reorient  #important for SAPT in psi4, default
symmetry c1  #important for SAPT in psi4, default
}

set PROPERTIES_ORIGIN ["COM"]
properties('MP2/aug-cc-pvtz', properties = ['dipole'])
--------------------------------------------------------------------------

    Molecular point group: c1
  Charge       = -1
  Multiplicity = 1
  Basis Set: AUG-CC-PVTZ
    Blend: AUG-CC-PVTZ
  Basis Set: (AUG-CC-PVTZ AUX)
    Blend: AUG-CC-PVTZ-JKFIT

    Orbital Energies [Eh]
    ---------------------

    Doubly Occupied:

       1A    -91.994158     2A    -20.343721     3A    -20.336442
       4A    -20.326580     5A    -11.100282     6A    -11.089974
       7A     -8.956083     8A     -6.641418     9A     -6.641060
      10A     -6.640788    11A     -1.253552    12A     -1.117172
      13A     -1.099905    14A     -0.905603    15A     -0.741210
      16A     -0.603702    17A     -0.497367    18A     -0.490190
      19A     -0.454306    20A     -0.443069    21A     -0.415215
      22A     -0.383143    23A     -0.363707    24A     -0.320124
      25A     -0.313556    26A     -0.277960    27A     -0.266496
      28A     -0.248451    29A     -0.232523

  @DF-RHF Final Energy:  -700.91801738628669

   => Energetics <=

    Nuclear Repulsion Energy =            346.4356555298062403
    One-Electron Energy =               -1665.7118294453900944
    Two-Electron Energy =                 618.3581565292972755
    Total Energy =                       -700.9180173862866923
  Basis Set: (AUG-CC-PVTZ AUX)
    Blend: AUG-CC-PVTZ-RI
    Molecular point group: c1

    Geometry (in Angstrom), charge = -1, multiplicity = 1:

       Center              X                  Y                   Z               Mass
    ------------   -----------------  -----------------  -----------------  -----------------
         S            0.447766036952    -0.031401818333    -0.021056446927    31.972071174400
         O            0.395066036952    -0.839455818333    -1.272344446927    15.994914619570
         O            1.521050736952     0.989774681667     0.122424253073    15.994914619570
         O            0.395059036952    -0.839430818333     1.230247553073    15.994914619570
         C           -1.115959963048     0.878403181667    -0.021067446927    12.000000000000
         C           -2.315143963048    -0.056406818333    -0.021055446927    12.000000000000
         H           -1.106663963048     1.519606181667     0.865726553073     1.007825032230
         H           -1.106661963048     1.519580181667    -0.907881446927     1.007825032230
         H           -3.260288963048     0.499781181667    -0.021066446927     1.007825032230
         H           -2.278852963048    -0.696735818333    -0.905292446927     1.007825032230
         H           -2.278856963048    -0.696708818333     0.863201553073     1.007825032230

  Basis Set: AUG-CC-PVTZ
    Blend: AUG-CC-PVTZ
  Basis Set: (AUG-CC-PVTZ AUX)
    Blend: AUG-CC-PVTZ-JKFIT
	 Reference Energy          =    -700.9180173862866923 [Eh]
	 Singles Energy            =      -0.0000000000000000 [Eh]
	 Same-Spin Energy          =      -0.3608483343203839 [Eh]
	 Opposite-Spin Energy      =      -1.0627670146356285 [Eh]
	 Correlation Energy        =      -1.4236153489560124 [Eh]
	 Total Energy              =    -702.3416327352426833 [Eh]

	 ================> DF-SCS-MP2 Energies <==================
	-----------------------------------------------------------
	 SCS Same-Spin Scale       =       0.3333333333333333 [-]
	 SCS Opposite-Spin Scale   =       1.2000000000000000 [-]
	 SCS Same-Spin Energy      =      -0.1202827781067946 [Eh]
	 SCS Opposite-Spin Energy  =      -1.2753204175627542 [Eh]
	 SCS Correlation Energy    =      -1.3956031956695487 [Eh]
	 SCS Total Energy          =    -702.3136205819562292 [Eh]
	-----------------------------------------------------------

  Dipole Moment: [D]
     X:    -4.5318      Y:     1.7544      Z:    -0.3291     Total:     4.8706

*** Psi4 exiting successfully. Buy a developer a beer!
