                               Psi4 1.3.2 release

  ==> Input File <==

--------------------------------------------------------------------------
#psi4
#
memory 32 gb

molecule  {
-1 1
  S        0.4364572    -0.2152019     0.0000020
  O        0.4874240    -0.8647860    -1.2512880
  O        1.5758940     1.0121500    -0.0000060
  O        0.4874170    -0.8647610     1.2513040
  C       -1.0236020     0.8530730    -0.0000110
  C       -2.2227860    -0.0817370     0.0000010
  H       -1.0143060     1.4942760     0.8867830
  H       -1.0143040     1.4942500    -0.8868250
  H       -3.1679310     0.4744510    -0.0000100
  H       -2.1864950    -0.7220660    -0.8842360
  H       -2.1864990    -0.7220390     0.8842580
units angstrom
no_reorient  #important for SAPT in psi4, default
symmetry c1  #important for SAPT in psi4, default
}

set PROPERTIES_ORIGIN ["COM"]
properties('MP2/aug-cc-pvtz', properties = ['dipole'])
--------------------------------------------------------------------------

    Molecular point group: c1
  Charge       = -1
  Multiplicity = 1
  Basis Set: AUG-CC-PVTZ
    Blend: AUG-CC-PVTZ
  Basis Set: (AUG-CC-PVTZ AUX)
    Blend: AUG-CC-PVTZ-JKFIT

    Orbital Energies [Eh]
    ---------------------

    Doubly Occupied:

       1A    -91.988985     2A    -20.360289     3A    -20.360267
       4A    -20.291605     5A    -11.098658     6A    -11.092684
       7A     -8.954299     8A     -6.639834     9A     -6.639160
      10A     -6.638350    11A     -1.290288    12A     -1.177416
      13A     -1.014618    14A     -0.910068    15A     -0.736411
      16A     -0.612092    17A     -0.513666    18A     -0.495346
      19A     -0.463511    20A     -0.463000    21A     -0.415053
      22A     -0.389388    23A     -0.370490    24A     -0.336732
      25A     -0.314917    26A     -0.309224    27A     -0.239470
      28A     -0.210172    29A     -0.206709

  @DF-RHF Final Energy:  -700.87483905703300

   => Energetics <=

    Nuclear Repulsion Energy =            347.4376146465821193
    One-Electron Energy =               -1667.5595020417069918
    Two-Electron Energy =                 619.2470483380917585
    Total Energy =                       -700.8748390570330002
  Basis Set: (AUG-CC-PVTZ AUX)
    Blend: AUG-CC-PVTZ-RI
    Molecular point group: c1

    Geometry (in Angstrom), charge = -1, multiplicity = 1:

       Center              X                  Y                   Z               Mass
    ------------   -----------------  -----------------  -----------------  -----------------
         S            0.380013296912    -0.150387995226     0.000001324208    31.972071174400
         O            0.430980096912    -0.799972095226    -1.251288675792    15.994914619570
         O            1.519450096912     1.076963904774    -0.000006675792    15.994914619570
         O            0.430973096912    -0.799947095226     1.251303324208    15.994914619570
         C           -1.080045903088     0.917886904774    -0.000011675792    12.000000000000
         C           -2.279229903088    -0.016923095226     0.000000324208    12.000000000000
         H           -1.070749903088     1.559089904774     0.886782324208     1.007825032230
         H           -1.070747903088     1.559063904774    -0.886825675792     1.007825032230
         H           -3.224374903088     0.539264904774    -0.000010675792     1.007825032230
         H           -2.242938903088    -0.657252095226    -0.884236675792     1.007825032230
         H           -2.242942903088    -0.657225095226     0.884257324208     1.007825032230

  Basis Set: AUG-CC-PVTZ
    Blend: AUG-CC-PVTZ
  Basis Set: (AUG-CC-PVTZ AUX)
    Blend: AUG-CC-PVTZ-JKFIT
	 Reference Energy          =    -700.8748390570330002 [Eh]
	 Singles Energy            =      -0.0000000000000000 [Eh]
	 Same-Spin Energy          =      -0.3610184054170564 [Eh]
	 Opposite-Spin Energy      =      -1.0644887607986615 [Eh]
	 Correlation Energy        =      -1.4255071662157179 [Eh]
	 Total Energy              =    -702.3003462232487664 [Eh]

	 ================> DF-SCS-MP2 Energies <==================
	-----------------------------------------------------------
	 SCS Same-Spin Scale       =       0.3333333333333333 [-]
	 SCS Opposite-Spin Scale   =       1.2000000000000000 [-]
	 SCS Same-Spin Energy      =      -0.1203394684723521 [Eh]
	 SCS Opposite-Spin Energy  =      -1.2773865129583937 [Eh]
	 SCS Correlation Energy    =      -1.3977259814307459 [Eh]
	 SCS Total Energy          =    -702.2725650384637675 [Eh]
	-----------------------------------------------------------

  Dipole Moment: [D]
     X:    -5.7537      Y:    -0.2366      Z:    -0.0000     Total:     5.7586

*** Psi4 exiting successfully. Buy a developer a beer!
