                               Psi4 1.3.2 release

  ==> Input File <==

--------------------------------------------------------------------------
#psi4
#
memory 32 gb

molecule  {
-1 1
  S        0.5483517    -0.0420431    -0.0267118
  O        0.4874240    -0.8647860    -1.2512880
  O        1.5758940     1.0121500    -0.0000060
  O        0.4874170    -0.8647610     1.2513040
  C       -1.0236020     0.8530730    -0.0000110
  C       -2.2227860    -0.0817370     0.0000010
  H       -1.0143060     1.4942760     0.8867830
  H       -1.0143040     1.4942500    -0.8868250
  H       -3.1679310     0.4744510    -0.0000100
  H       -2.1864950    -0.7220660    -0.8842360
  H       -2.1864990    -0.7220390     0.8842580
units angstrom
no_reorient  #important for SAPT in psi4, default
symmetry c1  #important for SAPT in psi4, default
}

set PROPERTIES_ORIGIN ["COM"]
properties('MP2/aug-cc-pvtz', properties = ['dipole'])
--------------------------------------------------------------------------

    Molecular point group: c1
  Charge       = -1
  Multiplicity = 1
  Basis Set: AUG-CC-PVTZ
    Blend: AUG-CC-PVTZ
  Basis Set: (AUG-CC-PVTZ AUX)
    Blend: AUG-CC-PVTZ-JKFIT

    Orbital Energies [Eh]
    ---------------------

    Doubly Occupied:

       1A    -91.994862     2A    -20.341884     3A    -20.341182
       4A    -20.329644     5A    -11.097193     6A    -11.087905
       7A     -8.956780     8A     -6.642111     9A     -6.641776
      10A     -6.641493    11A     -1.256098    12A     -1.122914
      13A     -1.097426    14A     -0.902977    15A     -0.739375
      16A     -0.603385    17A     -0.497137    18A     -0.488723
      19A     -0.455878    20A     -0.443670    21A     -0.416060
      22A     -0.381145    23A     -0.361481    24A     -0.319122
      25A     -0.317719    26A     -0.280330    27A     -0.268176
      28A     -0.245713    29A     -0.235589

  @DF-RHF Final Energy:  -700.91930671849821

   => Energetics <=

    Nuclear Repulsion Energy =            346.4277845494127064
    One-Electron Energy =               -1665.6786929420604793
    Two-Electron Energy =                 618.3316016741495105
    Total Energy =                       -700.9193067184982056
  Basis Set: (AUG-CC-PVTZ AUX)
    Blend: AUG-CC-PVTZ-RI
    Molecular point group: c1

    Geometry (in Angstrom), charge = -1, multiplicity = 1:

       Center              X                  Y                   Z               Mass
    ------------   -----------------  -----------------  -----------------  -----------------
         S            0.459085483423    -0.028022329981    -0.018876445262    31.972071174400
         O            0.398157783423    -0.850765229981    -1.243452645262    15.994914619570
         O            1.486627783423     1.026170770019     0.007829354738    15.994914619570
         O            0.398150783423    -0.850740229981     1.259139354738    15.994914619570
         C           -1.112868216577     0.867093770019     0.007824354738    12.000000000000
         C           -2.312052216577    -0.067716229981     0.007836354738    12.000000000000
         H           -1.103572216577     1.508296770019     0.894618354738     1.007825032230
         H           -1.103570216577     1.508270770019    -0.878989645262     1.007825032230
         H           -3.257197216577     0.488471770019     0.007825354738     1.007825032230
         H           -2.275761216577    -0.708045229981    -0.876400645262     1.007825032230
         H           -2.275765216577    -0.708018229981     0.892093354738     1.007825032230

  Basis Set: AUG-CC-PVTZ
    Blend: AUG-CC-PVTZ
  Basis Set: (AUG-CC-PVTZ AUX)
    Blend: AUG-CC-PVTZ-JKFIT
	 Reference Energy          =    -700.9193067184982056 [Eh]
	 Singles Energy            =      -0.0000000000000000 [Eh]
	 Same-Spin Energy          =      -0.3608160065442749 [Eh]
	 Opposite-Spin Energy      =      -1.0627748817678795 [Eh]
	 Correlation Energy        =      -1.4235908883121544 [Eh]
	 Total Energy              =    -702.3428976068103111 [Eh]

	 ================> DF-SCS-MP2 Energies <==================
	-----------------------------------------------------------
	 SCS Same-Spin Scale       =       0.3333333333333333 [-]
	 SCS Opposite-Spin Scale   =       1.2000000000000000 [-]
	 SCS Same-Spin Energy      =      -0.1202720021814249 [Eh]
	 SCS Opposite-Spin Energy  =      -1.2753298581214554 [Eh]
	 SCS Correlation Energy    =      -1.3956018603028804 [Eh]
	 SCS Total Energy          =    -702.3149085788011234 [Eh]
	-----------------------------------------------------------

  Dipole Moment: [D]
     X:    -4.3157      Y:     1.8231      Z:    -0.3133     Total:     4.6954

*** Psi4 exiting successfully. Buy a developer a beer!
