                               Psi4 1.3.2 release

  ==> Input File <==

--------------------------------------------------------------------------
#psi4
#
memory 32 gb

molecule  {
-1 1
  S        0.5401240    -0.0567320     0.0000000
  O        0.4874240    -0.8647860    -1.2512880
  O        1.6125665     0.9753510    -0.0000056
  O        0.4874170    -0.8647610     1.2513040
  C       -1.0236020     0.8530730    -0.0000110
  C       -2.2227860    -0.0817370     0.0000010
  H       -1.0143060     1.4942760     0.8867830
  H       -1.0143040     1.4942500    -0.8868250
  H       -3.1679310     0.4744510    -0.0000100
  H       -2.1864950    -0.7220660    -0.8842360
  H       -2.1864990    -0.7220390     0.8842580
units angstrom
no_reorient  #important for SAPT in psi4, default
symmetry c1  #important for SAPT in psi4, default
}

set PROPERTIES_ORIGIN ["COM"]
properties('MP2/aug-cc-pvtz', properties = ['dipole'])
--------------------------------------------------------------------------

    Molecular point group: c1
  Charge       = -1
  Multiplicity = 1
  Basis Set: AUG-CC-PVTZ
    Blend: AUG-CC-PVTZ
  Basis Set: (AUG-CC-PVTZ AUX)
    Blend: AUG-CC-PVTZ-JKFIT

    Orbital Energies [Eh]
    ---------------------

    Doubly Occupied:

       1A    -91.994460     2A    -20.337044     3A    -20.335776
       4A    -20.335753     5A    -11.099819     6A    -11.089767
       7A     -8.956314     8A     -6.641657     9A     -6.641188
      10A     -6.641149    11A     -1.253547    12A     -1.109359
      13A     -1.109333    14A     -0.905334    15A     -0.740914
      16A     -0.603626    17A     -0.497383    18A     -0.490074
      19A     -0.454153    20A     -0.443692    21A     -0.415379
      22A     -0.382983    23A     -0.363514    24A     -0.317587
      25A     -0.316357    26A     -0.272936    27A     -0.272726
      28A     -0.248442    29A     -0.234903

  @DF-RHF Final Energy:  -700.92092938460212

   => Energetics <=

    Nuclear Repulsion Energy =            346.3846484901577014
    One-Electron Energy =               -1665.6008187632658064
    Two-Electron Energy =                 618.2952408885061004
    Total Energy =                       -700.9209293846021183
  Basis Set: (AUG-CC-PVTZ AUX)
    Blend: AUG-CC-PVTZ-RI
    Molecular point group: c1

    Geometry (in Angstrom), charge = -1, multiplicity = 1:

       Center              X                  Y                   Z               Mass
    ------------   -----------------  -----------------  -----------------  -----------------
         S            0.447889627951    -0.033002323232    -0.000000147825    31.972071174400
         O            0.395189627951    -0.841056323232    -1.251288147825    15.994914619570
         O            1.520332127951     0.999080676768    -0.000005747825    15.994914619570
         O            0.395182627951    -0.841031323232     1.251303852175    15.994914619570
         C           -1.115836372049     0.876802676768    -0.000011147825    12.000000000000
         C           -2.315020372049    -0.058007323232     0.000000852175    12.000000000000
         H           -1.106540372049     1.518005676768     0.886782852175     1.007825032230
         H           -1.106538372049     1.517979676768    -0.886825147825     1.007825032230
         H           -3.260165372049     0.498180676768    -0.000010147825     1.007825032230
         H           -2.278729372049    -0.698336323232    -0.884236147825     1.007825032230
         H           -2.278733372049    -0.698309323232     0.884257852175     1.007825032230

  Basis Set: AUG-CC-PVTZ
    Blend: AUG-CC-PVTZ
  Basis Set: (AUG-CC-PVTZ AUX)
    Blend: AUG-CC-PVTZ-JKFIT
	 Reference Energy          =    -700.9209293846021183 [Eh]
	 Singles Energy            =      -0.0000000000000000 [Eh]
	 Same-Spin Energy          =      -0.3607312609063328 [Eh]
	 Opposite-Spin Energy      =      -1.0625420469823279 [Eh]
	 Correlation Energy        =      -1.4232733078886608 [Eh]
	 Total Energy              =    -702.3442026924907395 [Eh]

	 ================> DF-SCS-MP2 Energies <==================
	-----------------------------------------------------------
	 SCS Same-Spin Scale       =       0.3333333333333333 [-]
	 SCS Opposite-Spin Scale   =       1.2000000000000000 [-]
	 SCS Same-Spin Energy      =      -0.1202437536354443 [Eh]
	 SCS Opposite-Spin Energy  =      -1.2750504563787934 [Eh]
	 SCS Correlation Energy    =      -1.3952942100142378 [Eh]
	 SCS Total Energy          =    -702.3162235946163037 [Eh]
	-----------------------------------------------------------

  Dipole Moment: [D]
     X:    -4.5236      Y:     1.7315      Z:    -0.0000     Total:     4.8436

*** Psi4 exiting successfully. Buy a developer a beer!
