                               Psi4 1.3.2 release

  ==> Input File <==

--------------------------------------------------------------------------
#psi4
#
memory 32 gb

molecule  {
-1 1
  S        0.5401240    -0.0567320     0.0000000
  O        0.4874240    -0.8647860    -1.2512880
  O        1.5758940     1.0121500    -0.0000060
  O        0.4874170    -0.8647610     1.2513040
  C       -1.0236020     0.8530730    -0.0000110
  C       -2.2227860    -0.0817370     0.0000010
  H       -1.0143060     1.4942760     0.8867830
  H       -1.0143040     1.4942500    -0.8868250
  H       -3.1679310     0.4744510    -0.0000100
  H       -2.1864950    -0.7220660    -0.8842360
  H       -2.1864990    -0.7220390     0.8842580
units angstrom
no_reorient  #important for SAPT in psi4, default
symmetry c1  #important for SAPT in psi4, default
}

set PROPERTIES_ORIGIN ["COM"]
properties('MP2/aug-cc-pvtz', properties = ['dipole'])
--------------------------------------------------------------------------

    Molecular point group: c1
  Charge       = -1
  Multiplicity = 1
  Basis Set: AUG-CC-PVTZ
    Blend: AUG-CC-PVTZ
  Basis Set: (AUG-CC-PVTZ AUX)
    Blend: AUG-CC-PVTZ-JKFIT

    Orbital Energies [Eh]
    ---------------------

    Doubly Occupied:

       1A    -91.995045     2A    -20.337655     3A    -20.337504
       4A    -20.337480     5A    -11.097098     6A    -11.088214
       7A     -8.956841     8A     -6.642188     9A     -6.641703
      10A     -6.641693    11A     -1.254204    12A     -1.111252
      13A     -1.110618    14A     -0.903450    15A     -0.738984
      16A     -0.603623    17A     -0.497122    18A     -0.488950
      19A     -0.454835    20A     -0.444077    21A     -0.414744
      22A     -0.381791    23A     -0.362042    24A     -0.318098
      25A     -0.318021    26A     -0.274495    27A     -0.274124
      28A     -0.246675    29A     -0.236671

  @DF-RHF Final Energy:  -700.92072364473438

   => Energetics <=

    Nuclear Repulsion Energy =            346.4912573191519414
    One-Electron Energy =               -1665.8055678466812424
    Two-Electron Energy =                 618.3935868827950344
    Total Energy =                       -700.9207236447343803
  Basis Set: (AUG-CC-PVTZ AUX)
    Blend: AUG-CC-PVTZ-RI
    Molecular point group: c1

    Geometry (in Angstrom), charge = -1, multiplicity = 1:

       Center              X                  Y                   Z               Mass
    ------------   -----------------  -----------------  -----------------  -----------------
         S            0.453271236709    -0.038402495588    -0.000000089126    31.972071174400
         O            0.400571236709    -0.846456495588    -1.251288089126    15.994914619570
         O            1.489041236709     1.030479504412    -0.000006089126    15.994914619570
         O            0.400564236709    -0.846431495588     1.251303910874    15.994914619570
         C           -1.110454763291     0.871402504412    -0.000011089126    12.000000000000
         C           -2.309638763291    -0.063407495588     0.000000910874    12.000000000000
         H           -1.101158763291     1.512605504412     0.886782910874     1.007825032230
         H           -1.101156763291     1.512579504412    -0.886825089126     1.007825032230
         H           -3.254783763291     0.492780504412    -0.000010089126     1.007825032230
         H           -2.273347763291    -0.703736495588    -0.884236089126     1.007825032230
         H           -2.273351763291    -0.703709495588     0.884257910874     1.007825032230

  Basis Set: AUG-CC-PVTZ
    Blend: AUG-CC-PVTZ
  Basis Set: (AUG-CC-PVTZ AUX)
    Blend: AUG-CC-PVTZ-JKFIT
	 Reference Energy          =    -700.9207236447343803 [Eh]
	 Singles Energy            =      -0.0000000000000000 [Eh]
	 Same-Spin Energy          =      -0.3608243710844343 [Eh]
	 Opposite-Spin Energy      =      -1.0627494825260559 [Eh]
	 Correlation Energy        =      -1.4235738536104903 [Eh]
	 Total Energy              =    -702.3442974983448721 [Eh]

	 ================> DF-SCS-MP2 Energies <==================
	-----------------------------------------------------------
	 SCS Same-Spin Scale       =       0.3333333333333333 [-]
	 SCS Opposite-Spin Scale   =       1.2000000000000000 [-]
	 SCS Same-Spin Energy      =      -0.1202747903614781 [Eh]
	 SCS Opposite-Spin Energy  =      -1.2752993790312670 [Eh]
	 SCS Correlation Energy    =      -1.3955741693927450 [Eh]
	 SCS Total Energy          =    -702.3162978141270969 [Eh]
	-----------------------------------------------------------

  Dipole Moment: [D]
     X:    -4.4179      Y:     1.6515      Z:    -0.0000     Total:     4.7165

*** Psi4 exiting successfully. Buy a developer a beer!
