                               Psi4 1.3.2 release

  ==> Input File <==

--------------------------------------------------------------------------
#psi4
#
memory 32 gb

molecule  {
-1 1
  S        0.5401240    -0.0567320     0.0000000
  O        0.4874240    -0.8647860    -1.2512880
  O        1.6819485     0.8980271    -0.0000048
  O        0.4874170    -0.8647610     1.2513040
  C       -1.0236020     0.8530730    -0.0000110
  C       -2.2227860    -0.0817370     0.0000010
  H       -1.0143060     1.4942760     0.8867830
  H       -1.0143040     1.4942500    -0.8868250
  H       -3.1679310     0.4744510    -0.0000100
  H       -2.1864950    -0.7220660    -0.8842360
  H       -2.1864990    -0.7220390     0.8842580
units angstrom
no_reorient  #important for SAPT in psi4, default
symmetry c1  #important for SAPT in psi4, default
}

set PROPERTIES_ORIGIN ["COM"]
properties('MP2/aug-cc-pvtz', properties = ['dipole'])
--------------------------------------------------------------------------

    Molecular point group: c1
  Charge       = -1
  Multiplicity = 1
  Basis Set: AUG-CC-PVTZ
    Blend: AUG-CC-PVTZ
  Basis Set: (AUG-CC-PVTZ AUX)
    Blend: AUG-CC-PVTZ-JKFIT

    Orbital Energies [Eh]
    ---------------------

    Doubly Occupied:

       1A    -91.993210     2A    -20.335609     3A    -20.332299
       4A    -20.332277     5A    -11.105056     6A    -11.092651
       7A     -8.955215     8A     -6.640572     9A     -6.640079
      10A     -6.640007    11A     -1.252297    12A     -1.106739
      13A     -1.105390    14A     -0.908867    15A     -0.744547
      16A     -0.603758    17A     -0.497738    18A     -0.492343
      19A     -0.452835    20A     -0.442729    21A     -0.416446
      22A     -0.385273    23A     -0.366331    24A     -0.316524
      25A     -0.312790    26A     -0.269793    27A     -0.269594
      28A     -0.251295    29A     -0.231237

  @DF-RHF Final Energy:  -700.91952078057193

   => Energetics <=

    Nuclear Repulsion Energy =            346.2235567621735868
    One-Electron Energy =               -1665.2991514017896861
    Two-Electron Energy =                 618.1560738590442270
    Total Energy =                       -700.9195207805719292
  Basis Set: (AUG-CC-PVTZ AUX)
    Blend: AUG-CC-PVTZ-RI
    Molecular point group: c1

    Geometry (in Angstrom), charge = -1, multiplicity = 1:

       Center              X                  Y                   Z               Mass
    ------------   -----------------  -----------------  -----------------  -----------------
         S            0.437707971972    -0.021655210887    -0.000000265224    31.972071174400
         O            0.385007971972    -0.829709210887    -1.251288265224    15.994914619570
         O            1.579532471972     0.933103889113    -0.000005065224    15.994914619570
         O            0.385000971972    -0.829684210887     1.251303734776    15.994914619570
         C           -1.126018028028     0.888149789113    -0.000011265224    12.000000000000
         C           -2.325202028028    -0.046660210887     0.000000734776    12.000000000000
         H           -1.116722028028     1.529352789113     0.886782734776     1.007825032230
         H           -1.116720028028     1.529326789113    -0.886825265224     1.007825032230
         H           -3.270347028028     0.509527789113    -0.000010265224     1.007825032230
         H           -2.288911028028    -0.686989210887    -0.884236265224     1.007825032230
         H           -2.288915028028    -0.686962210887     0.884257734776     1.007825032230

  Basis Set: AUG-CC-PVTZ
    Blend: AUG-CC-PVTZ
  Basis Set: (AUG-CC-PVTZ AUX)
    Blend: AUG-CC-PVTZ-JKFIT
	 Reference Energy          =    -700.9195207805719292 [Eh]
	 Singles Energy            =      -0.0000000000000000 [Eh]
	 Same-Spin Energy          =      -0.3606373093456815 [Eh]
	 Opposite-Spin Energy      =      -1.0623148173428842 [Eh]
	 Correlation Energy        =      -1.4229521266885659 [Eh]
	 Total Energy              =    -702.3424729072604578 [Eh]

	 ================> DF-SCS-MP2 Energies <==================
	-----------------------------------------------------------
	 SCS Same-Spin Scale       =       0.3333333333333333 [-]
	 SCS Opposite-Spin Scale   =       1.2000000000000000 [-]
	 SCS Same-Spin Energy      =      -0.1202124364485605 [Eh]
	 SCS Opposite-Spin Energy  =      -1.2747777808114611 [Eh]
	 SCS Correlation Energy    =      -1.3949902172600215 [Eh]
	 SCS Total Energy          =    -702.3145109978319169 [Eh]
	-----------------------------------------------------------

  Dipole Moment: [D]
     X:    -4.7213      Y:     1.8969      Z:    -0.0000     Total:     5.0882

*** Psi4 exiting successfully. Buy a developer a beer!
