                               Psi4 1.3.2 release

  ==> Input File <==

--------------------------------------------------------------------------
#psi4
#
memory 32 gb

molecule  {
-1 1
  S        0.5709232    -0.0016045    -0.0000007
  O        0.4874240    -0.8647860    -1.2512880
  O        1.5758940     1.0121500    -0.0000060
  O        0.4874170    -0.8647610     1.2513040
  C       -1.0236020     0.8530730    -0.0000110
  C       -2.2227860    -0.0817370     0.0000010
  H       -1.0143060     1.4942760     0.8867830
  H       -1.0143040     1.4942500    -0.8868250
  H       -3.1679310     0.4744510    -0.0000100
  H       -2.1864950    -0.7220660    -0.8842360
  H       -2.1864990    -0.7220390     0.8842580
units angstrom
no_reorient  #important for SAPT in psi4, default
symmetry c1  #important for SAPT in psi4, default
}

set PROPERTIES_ORIGIN ["COM"]
properties('MP2/aug-cc-pvtz', properties = ['dipole'])
--------------------------------------------------------------------------

    Molecular point group: c1
  Charge       = -1
  Multiplicity = 1
  Basis Set: AUG-CC-PVTZ
    Blend: AUG-CC-PVTZ
  Basis Set: (AUG-CC-PVTZ AUX)
    Blend: AUG-CC-PVTZ-JKFIT

    Orbital Energies [Eh]
    ---------------------

    Doubly Occupied:

       1A    -91.994188     2A    -20.353519     3A    -20.329678
       4A    -20.329655     5A    -11.097464     6A    -11.087068
       7A     -8.956548     8A     -6.641904     9A     -6.641650
      10A     -6.641055    11A     -1.264281    12A     -1.126470
      13A     -1.086828    14A     -0.901724    15A     -0.740453
      16A     -0.602867    17A     -0.497130    18A     -0.488742
      19A     -0.457890    20A     -0.444571    21A     -0.419691
      22A     -0.378885    23A     -0.360434    24A     -0.320190
      25A     -0.318132    26A     -0.283573    27A     -0.262623
      28A     -0.243865    29A     -0.232758

  @DF-RHF Final Energy:  -700.91438827481295

   => Energetics <=

    Nuclear Repulsion Energy =            346.2677660774056676
    One-Electron Energy =               -1665.3566362783462864
    Two-Electron Energy =                 618.1744819261276689
    Total Energy =                       -700.9143882748129499
  Basis Set: (AUG-CC-PVTZ AUX)
    Blend: AUG-CC-PVTZ-RI
    Molecular point group: c1

    Geometry (in Angstrom), charge = -1, multiplicity = 1:

       Center              X                  Y                   Z               Mass
    ------------   -----------------  -----------------  -----------------  -----------------
         S            0.475036024852     0.000554307132    -0.000000583793    31.972071174400
         O            0.391536824852    -0.862627192868    -1.251287883793    15.994914619570
         O            1.480006824852     1.014308807132    -0.000005883793    15.994914619570
         O            0.391529824852    -0.862602192868     1.251304116207    15.994914619570
         C           -1.119489175148     0.855231807132    -0.000010883793    12.000000000000
         C           -2.318673175148    -0.079578192868     0.000001116207    12.000000000000
         H           -1.110193175148     1.496434807132     0.886783116207     1.007825032230
         H           -1.110191175148     1.496408807132    -0.886824883793     1.007825032230
         H           -3.263818175148     0.476609807132    -0.000009883793     1.007825032230
         H           -2.282382175148    -0.719907192868    -0.884235883793     1.007825032230
         H           -2.282386175148    -0.719880192868     0.884258116207     1.007825032230

  Basis Set: AUG-CC-PVTZ
    Blend: AUG-CC-PVTZ
  Basis Set: (AUG-CC-PVTZ AUX)
    Blend: AUG-CC-PVTZ-JKFIT
	 Reference Energy          =    -700.9143882748129499 [Eh]
	 Singles Energy            =      -0.0000000000000000 [Eh]
	 Same-Spin Energy          =      -0.3607823638974617 [Eh]
	 Opposite-Spin Energy      =      -1.0628332410834618 [Eh]
	 Correlation Energy        =      -1.4236156049809234 [Eh]
	 Total Energy              =    -702.3380038797938596 [Eh]

	 ================> DF-SCS-MP2 Energies <==================
	-----------------------------------------------------------
	 SCS Same-Spin Scale       =       0.3333333333333333 [-]
	 SCS Opposite-Spin Scale   =       1.2000000000000000 [-]
	 SCS Same-Spin Energy      =      -0.1202607879658205 [Eh]
	 SCS Opposite-Spin Energy  =      -1.2753998893001541 [Eh]
	 SCS Correlation Energy    =      -1.3956606772659748 [Eh]
	 SCS Total Energy          =    -702.3100489520788869 [Eh]
	-----------------------------------------------------------

  Dipole Moment: [D]
     X:    -4.0414      Y:     2.2868      Z:    -0.0000     Total:     4.6435

*** Psi4 exiting successfully. Buy a developer a beer!
