                               Psi4 1.3.2 release

  ==> Input File <==

--------------------------------------------------------------------------
#psi4
#
memory 32 gb

molecule  {
-1 1
  S        0.5222423    -0.0852741     0.0534155
  O        0.4874240    -0.8647860    -1.2512880
  O        1.5758940     1.0121500    -0.0000060
  O        0.4874170    -0.8647610     1.2513040
  C       -1.0236020     0.8530730    -0.0000110
  C       -2.2227860    -0.0817370     0.0000010
  H       -1.0143060     1.4942760     0.8867830
  H       -1.0143040     1.4942500    -0.8868250
  H       -3.1679310     0.4744510    -0.0000100
  H       -2.1864950    -0.7220660    -0.8842360
  H       -2.1864990    -0.7220390     0.8842580
units angstrom
no_reorient  #important for SAPT in psi4, default
symmetry c1  #important for SAPT in psi4, default
}

set PROPERTIES_ORIGIN ["COM"]
properties('MP2/aug-cc-pvtz', properties = ['dipole'])
--------------------------------------------------------------------------

    Molecular point group: c1
  Charge       = -1
  Multiplicity = 1
  Basis Set: AUG-CC-PVTZ
    Blend: AUG-CC-PVTZ
  Basis Set: (AUG-CC-PVTZ AUX)
    Blend: AUG-CC-PVTZ-JKFIT

    Orbital Energies [Eh]
    ---------------------

    Doubly Occupied:

       1A    -91.994022     2A    -20.353181     3A    -20.330074
       4A    -20.329169     5A    -11.097211     6A    -11.088947
       7A     -8.956398     8A     -6.641766     9A     -6.641469
      10A     -6.640909    11A     -1.263930    12A     -1.125875
      13A     -1.087186    14A     -0.904530    15A     -0.738467
      16A     -0.605024    17A     -0.500817    18A     -0.489494
      19A     -0.456832    20A     -0.446579    21A     -0.414206
      22A     -0.384010    23A     -0.363442    24A     -0.319134
      25A     -0.317338    26A     -0.283872    27A     -0.262665
      28A     -0.243499    29A     -0.232858

  @DF-RHF Final Energy:  -700.91430464306484

   => Energetics <=

    Nuclear Repulsion Energy =            346.6691018820552586
    One-Electron Energy =               -1666.1410014218636206
    Two-Electron Energy =                 618.5575948967435806
    Total Energy =                       -700.9143046430648383
  Basis Set: (AUG-CC-PVTZ AUX)
    Blend: AUG-CC-PVTZ-RI
    Molecular point group: c1

    Geometry (in Angstrom), charge = -1, multiplicity = 1:

       Center              X                  Y                   Z               Mass
    ------------   -----------------  -----------------  -----------------  -----------------
         S            0.440634823681    -0.058572264921     0.037746899140    31.972071174400
         O            0.405816523681    -0.838084164921    -1.266956600860    15.994914619570
         O            1.494286523681     1.038851835079    -0.015674600860    15.994914619570
         O            0.405809523681    -0.838059164921     1.235635399140    15.994914619570
         C           -1.105209476319     0.879774835079    -0.015679600860    12.000000000000
         C           -2.304393476319    -0.055035164921    -0.015667600860    12.000000000000
         H           -1.095913476319     1.520977835079     0.871114399140     1.007825032230
         H           -1.095911476319     1.520951835079    -0.902493600860     1.007825032230
         H           -3.249538476319     0.501152835079    -0.015678600860     1.007825032230
         H           -2.268102476319    -0.695364164921    -0.899904600860     1.007825032230
         H           -2.268106476319    -0.695337164921     0.868589399140     1.007825032230

  Basis Set: AUG-CC-PVTZ
    Blend: AUG-CC-PVTZ
  Basis Set: (AUG-CC-PVTZ AUX)
    Blend: AUG-CC-PVTZ-JKFIT
	 Reference Energy          =    -700.9143046430648383 [Eh]
	 Singles Energy            =      -0.0000000000000000 [Eh]
	 Same-Spin Energy          =      -0.3608051925320587 [Eh]
	 Opposite-Spin Energy      =      -1.0628683554001279 [Eh]
	 Correlation Energy        =      -1.4236735479321867 [Eh]
	 Total Energy              =    -702.3379781909969779 [Eh]

	 ================> DF-SCS-MP2 Energies <==================
	-----------------------------------------------------------
	 SCS Same-Spin Scale       =       0.3333333333333333 [-]
	 SCS Opposite-Spin Scale   =       1.2000000000000000 [-]
	 SCS Same-Spin Energy      =      -0.1202683975106862 [Eh]
	 SCS Opposite-Spin Energy  =      -1.2754420264801534 [Eh]
	 SCS Correlation Energy    =      -1.3957104239908396 [Eh]
	 SCS Total Energy          =    -702.3100150670557014 [Eh]
	-----------------------------------------------------------

  Dipole Moment: [D]
     X:    -4.6410      Y:     1.3221      Z:     0.6157     Total:     4.8647

*** Psi4 exiting successfully. Buy a developer a beer!
