                               Psi4 1.3.2 release

  ==> Input File <==

--------------------------------------------------------------------------
#psi4
#
memory 32 gb

molecule  {
-1 1
  S        0.5401240    -0.0567320     0.0000000
  O        0.4874240    -0.8647860    -1.2512880
  O        1.4988095     1.0817979    -0.0000067
  O        0.4874170    -0.8647610     1.2513040
  C       -1.0236020     0.8530730    -0.0000110
  C       -2.2227860    -0.0817370     0.0000010
  H       -1.0143060     1.4942760     0.8867830
  H       -1.0143040     1.4942500    -0.8868250
  H       -3.1679310     0.4744510    -0.0000100
  H       -2.1864950    -0.7220660    -0.8842360
  H       -2.1864990    -0.7220390     0.8842580
units angstrom
no_reorient  #important for SAPT in psi4, default
symmetry c1  #important for SAPT in psi4, default
}

set PROPERTIES_ORIGIN ["COM"]
properties('MP2/aug-cc-pvtz', properties = ['dipole'])
--------------------------------------------------------------------------

    Molecular point group: c1
  Charge       = -1
  Multiplicity = 1
  Basis Set: AUG-CC-PVTZ
    Blend: AUG-CC-PVTZ
  Basis Set: (AUG-CC-PVTZ AUX)
    Blend: AUG-CC-PVTZ-JKFIT

    Orbital Energies [Eh]
    ---------------------

    Doubly Occupied:

       1A    -91.996137     2A    -20.340939     3A    -20.340916
       4A    -20.338649     5A    -11.091465     6A    -11.084875
       7A     -8.957855     8A     -6.643227     9A     -6.642733
      10A     -6.642665    11A     -1.255587    12A     -1.114884
      13A     -1.113161    14A     -0.899441    15A     -0.734890
      16A     -0.603771    17A     -0.496432    18A     -0.486780
      19A     -0.456211    20A     -0.444609    21A     -0.413313
      22A     -0.379373    23A     -0.359017    24A     -0.321106
      25A     -0.319036    26A     -0.277294    27A     -0.276774
      28A     -0.242449    29A     -0.240086

  @DF-RHF Final Energy:  -700.91838729297865

   => Energetics <=

    Nuclear Repulsion Energy =            346.7586154616492422
    One-Electron Energy =               -1666.3266611835322237
    Two-Electron Energy =                 618.6496584289043312
    Total Energy =                       -700.9183872929786503
  Basis Set: (AUG-CC-PVTZ AUX)
    Blend: AUG-CC-PVTZ-RI
    Molecular point group: c1

    Geometry (in Angstrom), charge = -1, multiplicity = 1:

       Center              X                  Y                   Z               Mass
    ------------   -----------------  -----------------  -----------------  -----------------
         S            0.464583217631    -0.048623171807     0.000000013597    31.972071174400
         O            0.411883217631    -0.856677171807    -1.251287986403    15.994914619570
         O            1.423268717631     1.089906728193    -0.000006686403    15.994914619570
         O            0.411876217631    -0.856652171807     1.251304013597    15.994914619570
         C           -1.099142782369     0.861181828193    -0.000010986403    12.000000000000
         C           -2.298326782369    -0.073628171807     0.000001013597    12.000000000000
         H           -1.089846782369     1.502384828193     0.886783013597     1.007825032230
         H           -1.089844782369     1.502358828193    -0.886824986403     1.007825032230
         H           -3.243471782369     0.482559828193    -0.000009986403     1.007825032230
         H           -2.262035782369    -0.713957171807    -0.884235986403     1.007825032230
         H           -2.262039782369    -0.713930171807     0.884258013597     1.007825032230

  Basis Set: AUG-CC-PVTZ
    Blend: AUG-CC-PVTZ
  Basis Set: (AUG-CC-PVTZ AUX)
    Blend: AUG-CC-PVTZ-JKFIT
	 Reference Energy          =    -700.9183872929786503 [Eh]
	 Singles Energy            =      -0.0000000000000000 [Eh]
	 Same-Spin Energy          =      -0.3611073736204093 [Eh]
	 Opposite-Spin Energy      =      -1.0633596580393101 [Eh]
	 Correlation Energy        =      -1.4244670316597194 [Eh]
	 Total Energy              =    -702.3428543246383242 [Eh]

	 ================> DF-SCS-MP2 Energies <==================
	-----------------------------------------------------------
	 SCS Same-Spin Scale       =       0.3333333333333333 [-]
	 SCS Opposite-Spin Scale   =       1.2000000000000000 [-]
	 SCS Same-Spin Energy      =      -0.1203691245401364 [Eh]
	 SCS Opposite-Spin Energy  =      -1.2760315896471721 [Eh]
	 SCS Correlation Energy    =      -1.3964007141873085 [Eh]
	 SCS Total Energy          =    -702.3147880071659301 [Eh]
	-----------------------------------------------------------

  Dipole Moment: [D]
     X:    -4.1930      Y:     1.4983      Z:    -0.0000     Total:     4.4527

*** Psi4 exiting successfully. Buy a developer a beer!
