                               Psi4 1.3.2 release

  ==> Input File <==

--------------------------------------------------------------------------
#psi4
#
memory 32 gb

molecule  {
-1 1
  S        0.5074197    -0.1107510     0.0000007
  O        0.4874240    -0.8647860    -1.2512880
  O        1.5758940     1.0121500    -0.0000060
  O        0.4874170    -0.8647610     1.2513040
  C       -1.0236020     0.8530730    -0.0000110
  C       -2.2227860    -0.0817370     0.0000010
  H       -1.0143060     1.4942760     0.8867830
  H       -1.0143040     1.4942500    -0.8868250
  H       -3.1679310     0.4744510    -0.0000100
  H       -2.1864950    -0.7220660    -0.8842360
  H       -2.1864990    -0.7220390     0.8842580
units angstrom
no_reorient  #important for SAPT in psi4, default
symmetry c1  #important for SAPT in psi4, default
}

set PROPERTIES_ORIGIN ["COM"]
properties('MP2/aug-cc-pvtz', properties = ['dipole'])
--------------------------------------------------------------------------

    Molecular point group: c1
  Charge       = -1
  Multiplicity = 1
  Basis Set: AUG-CC-PVTZ
    Blend: AUG-CC-PVTZ
  Basis Set: (AUG-CC-PVTZ AUX)
    Blend: AUG-CC-PVTZ-JKFIT

    Orbital Energies [Eh]
    ---------------------

    Doubly Occupied:

       1A    -91.994088     2A    -20.345259     3A    -20.345236
       4A    -20.321843     5A    -11.097140     6A    -11.089529
       7A     -8.956382     8A     -6.641664     9A     -6.641488
      10A     -6.640961    11A     -1.260652    12A     -1.133971
      13A     -1.082051    14A     -0.905429    15A     -0.737834
      16A     -0.605612    17A     -0.500761    18A     -0.490252
      19A     -0.454911    20A     -0.448632    21A     -0.412233
      22A     -0.384690    23A     -0.364660    24A     -0.320768
      25A     -0.316022    26A     -0.285703    27A     -0.264060
      28A     -0.241271    29A     -0.232455

  @DF-RHF Final Energy:  -700.91495901231929

   => Energetics <=

    Nuclear Repulsion Energy =            346.7849835496946298
    One-Electron Energy =               -1666.3687701777603252
    Two-Electron Energy =                 618.6688276157465225
    Total Energy =                       -700.9149590123192866
  Basis Set: (AUG-CC-PVTZ AUX)
    Blend: AUG-CC-PVTZ-RI
    Molecular point group: c1

    Geometry (in Angstrom), charge = -1, multiplicity = 1:

       Center              X                  Y                   Z               Mass
    ------------   -----------------  -----------------  -----------------  -----------------
         S            0.430160176654    -0.076575957582     0.000000405541    31.972071174400
         O            0.410164476654    -0.830610957582    -1.251288294459    15.994914619570
         O            1.498634476654     1.046325042418    -0.000006294459    15.994914619570
         O            0.410157476654    -0.830585957582     1.251303705541    15.994914619570
         C           -1.100861523346     0.887248042418    -0.000011294459    12.000000000000
         C           -2.300045523346    -0.047561957582     0.000000705541    12.000000000000
         H           -1.091565523346     1.528451042418     0.886782705541     1.007825032230
         H           -1.091563523346     1.528425042418    -0.886825294459     1.007825032230
         H           -3.245190523346     0.508626042418    -0.000010294459     1.007825032230
         H           -2.263754523346    -0.687890957582    -0.884236294459     1.007825032230
         H           -2.263758523346    -0.687863957582     0.884257705541     1.007825032230

  Basis Set: AUG-CC-PVTZ
    Blend: AUG-CC-PVTZ
  Basis Set: (AUG-CC-PVTZ AUX)
    Blend: AUG-CC-PVTZ-JKFIT
	 Reference Energy          =    -700.9149590123192866 [Eh]
	 Singles Energy            =      -0.0000000000000000 [Eh]
	 Same-Spin Energy          =      -0.3608263851366358 [Eh]
	 Opposite-Spin Energy      =      -1.0629094999180733 [Eh]
	 Correlation Energy        =      -1.4237358850547090 [Eh]
	 Total Energy              =    -702.3386948973740118 [Eh]

	 ================> DF-SCS-MP2 Energies <==================
	-----------------------------------------------------------
	 SCS Same-Spin Scale       =       0.3333333333333333 [-]
	 SCS Opposite-Spin Scale   =       1.2000000000000000 [-]
	 SCS Same-Spin Energy      =      -0.1202754617122119 [Eh]
	 SCS Opposite-Spin Energy  =      -1.2754913999016879 [Eh]
	 SCS Correlation Energy    =      -1.3957668616138998 [Eh]
	 SCS Total Energy          =    -702.3107258739331655 [Eh]
	-----------------------------------------------------------

  Dipole Moment: [D]
     X:    -4.8309      Y:     1.0168      Z:    -0.0000     Total:     4.9367

*** Psi4 exiting successfully. Buy a developer a beer!
