                               Psi4 1.3.2 release

  ==> Input File <==

--------------------------------------------------------------------------
#psi4
#
memory 32 gb

molecule  {
-1 1
  S        0.5024772    -0.1126729     0.1067660
  O        0.4874240    -0.8647860    -1.2512880
  O        1.5758940     1.0121500    -0.0000060
  O        0.4874170    -0.8647610     1.2513040
  C       -1.0236020     0.8530730    -0.0000110
  C       -2.2227860    -0.0817370     0.0000010
  H       -1.0143060     1.4942760     0.8867830
  H       -1.0143040     1.4942500    -0.8868250
  H       -3.1679310     0.4744510    -0.0000100
  H       -2.1864950    -0.7220660    -0.8842360
  H       -2.1864990    -0.7220390     0.8842580
units angstrom
no_reorient  #important for SAPT in psi4, default
symmetry c1  #important for SAPT in psi4, default
}

set PROPERTIES_ORIGIN ["COM"]
properties('MP2/aug-cc-pvtz', properties = ['dipole'])
--------------------------------------------------------------------------

    Molecular point group: c1
  Charge       = -1
  Multiplicity = 1
  Basis Set: AUG-CC-PVTZ
    Blend: AUG-CC-PVTZ
  Basis Set: (AUG-CC-PVTZ AUX)
    Blend: AUG-CC-PVTZ-JKFIT

    Orbital Energies [Eh]
    ---------------------

    Doubly Occupied:

       1A    -91.990907     2A    -20.368518     3A    -20.322698
       4A    -20.320770     5A    -11.097725     6A    -11.089829
       7A     -8.955192     8A     -6.640990     9A     -6.639974
      10A     -6.639190    11A     -1.293886    12A     -1.123104
      13A     -1.063303    14A     -0.905800    15A     -0.738324
      16A     -0.607829    17A     -0.510070    18A     -0.490986
      19A     -0.464359    20A     -0.452144    21A     -0.417903
      22A     -0.386921    23A     -0.365262    24A     -0.321919
      25A     -0.314435    26A     -0.284983    27A     -0.250800
      28A     -0.236743    29A     -0.223614

  @DF-RHF Final Energy:  -700.89328403529703

   => Energetics <=

    Nuclear Repulsion Energy =            346.9427076616537420
    One-Electron Energy =               -1666.6356274675576969
    Two-Electron Energy =                 618.7996357706069830
    Total Energy =                       -700.8932840352970288
  Basis Set: (AUG-CC-PVTZ AUX)
    Blend: AUG-CC-PVTZ-RI
    Molecular point group: c1

    Geometry (in Angstrom), charge = -1, multiplicity = 1:

       Center              X                  Y                   Z               Mass
    ------------   -----------------  -----------------  -----------------  -----------------
         S            0.426667473422    -0.077934101506     0.075447954031    31.972071174400
         O            0.411614273422    -0.830047201506    -1.282606045969    15.994914619570
         O            1.500084273422     1.046888798494    -0.031324045969    15.994914619570
         O            0.411607273422    -0.830022201506     1.219985954031    15.994914619570
         C           -1.099411726578     0.887811798494    -0.031329045969    12.000000000000
         C           -2.298595726578    -0.046998201506    -0.031317045969    12.000000000000
         H           -1.090115726578     1.529014798494     0.855464954031     1.007825032230
         H           -1.090113726578     1.528988798494    -0.918143045969     1.007825032230
         H           -3.243740726578     0.509189798494    -0.031328045969     1.007825032230
         H           -2.262304726578    -0.687327201506    -0.915554045969     1.007825032230
         H           -2.262308726578    -0.687300201506     0.852939954031     1.007825032230

  Basis Set: AUG-CC-PVTZ
    Blend: AUG-CC-PVTZ
  Basis Set: (AUG-CC-PVTZ AUX)
    Blend: AUG-CC-PVTZ-JKFIT
	 Reference Energy          =    -700.8932840352970288 [Eh]
	 Singles Energy            =      -0.0000000000000000 [Eh]
	 Same-Spin Energy          =      -0.3607242039135578 [Eh]
	 Opposite-Spin Energy      =      -1.0631715518937090 [Eh]
	 Correlation Energy        =      -1.4238957558072669 [Eh]
	 Total Energy              =    -702.3171797911043086 [Eh]

	 ================> DF-SCS-MP2 Energies <==================
	-----------------------------------------------------------
	 SCS Same-Spin Scale       =       0.3333333333333333 [-]
	 SCS Opposite-Spin Scale   =       1.2000000000000000 [-]
	 SCS Same-Spin Energy      =      -0.1202414013045193 [Eh]
	 SCS Opposite-Spin Energy  =      -1.2758058622724509 [Eh]
	 SCS Correlation Energy    =      -1.3960472635769701 [Eh]
	 SCS Total Energy          =    -702.2893312988740036 [Eh]
	-----------------------------------------------------------

  Dipole Moment: [D]
     X:    -4.8883      Y:     1.0124      Z:     1.2146     Total:     5.1377

*** Psi4 exiting successfully. Buy a developer a beer!
