                               Psi4 1.3.2 release

  ==> Input File <==

--------------------------------------------------------------------------
#psi4
#
memory 32 gb

molecule  {
-1 1
  S        0.5401240    -0.0567320     0.0000000
  O        0.4874240    -0.8647860    -1.2512880
  O        1.5758940     1.0121500    -0.0000060
  O        0.4874170    -0.8647610     1.2513040
  C       -1.1964716     0.9536518    -0.0000122
  C       -2.2227860    -0.0817370     0.0000010
  H       -1.0143060     1.4942760     0.8867830
  H       -1.0143040     1.4942500    -0.8868250
  H       -3.1679310     0.4744510    -0.0000100
  H       -2.1864950    -0.7220660    -0.8842360
  H       -2.1864990    -0.7220390     0.8842580
units angstrom
no_reorient  #important for SAPT in psi4, default
symmetry c1  #important for SAPT in psi4, default
}

set PROPERTIES_ORIGIN ["COM"]
properties('MP2/aug-cc-pvtz', properties = ['dipole'])
--------------------------------------------------------------------------

    Molecular point group: c1
  Charge       = -1
  Multiplicity = 1
  Basis Set: AUG-CC-PVTZ
    Blend: AUG-CC-PVTZ
  Basis Set: (AUG-CC-PVTZ AUX)
    Blend: AUG-CC-PVTZ-JKFIT

    Orbital Energies [Eh]
    ---------------------

    Doubly Occupied:

       1A    -91.991482     2A    -20.339479     3A    -20.339457
       4A    -20.339292     5A    -11.095973     6A    -11.085698
       7A     -8.953038     8A     -6.638019     9A     -6.637706
      10A     -6.637697    11A     -1.250041    12A     -1.110664
      13A     -1.110129    14A     -0.911782    15A     -0.724447
      16A     -0.601873    17A     -0.501394    18A     -0.488573
      19A     -0.451502    20A     -0.445479    21A     -0.415551
      22A     -0.404659    23A     -0.372112    24A     -0.318375
      25A     -0.317175    26A     -0.276620    27A     -0.276591
      28A     -0.237747    29A     -0.204600

  @DF-RHF Final Energy:  -700.89484907379574

   => Energetics <=

    Nuclear Repulsion Energy =            342.7989243045724947
    One-Electron Energy =               -1658.4332362124139308
    Two-Electron Energy =                 614.7394628340457530
    Total Energy =                       -700.8948490737957400
  Basis Set: (AUG-CC-PVTZ AUX)
    Blend: AUG-CC-PVTZ-RI
    Molecular point group: c1

    Geometry (in Angstrom), charge = -1, multiplicity = 1:

       Center              X                  Y                   Z               Mass
    ------------   -----------------  -----------------  -----------------  -----------------
         S            0.472303461178    -0.049475803436     0.000000042989    31.972071174400
         O            0.419603461178    -0.857529803436    -1.251287957011    15.994914619570
         O            1.508073461178     1.019406196564    -0.000005957011    15.994914619570
         O            0.419596461178    -0.857504803436     1.251304042989    15.994914619570
         C           -1.264292138822     0.960907996564    -0.000012157011    12.000000000000
         C           -2.290606538822    -0.074480803436     0.000001042989    12.000000000000
         H           -1.082126538822     1.501532196564     0.886783042989     1.007825032230
         H           -1.082124538822     1.501506196564    -0.886824957011     1.007825032230
         H           -3.235751538822     0.481707196564    -0.000009957011     1.007825032230
         H           -2.254315538822    -0.714809803436    -0.884235957011     1.007825032230
         H           -2.254319538822    -0.714782803436     0.884258042989     1.007825032230

  Basis Set: AUG-CC-PVTZ
    Blend: AUG-CC-PVTZ
  Basis Set: (AUG-CC-PVTZ AUX)
    Blend: AUG-CC-PVTZ-JKFIT
	 Reference Energy          =    -700.8948490737957400 [Eh]
	 Singles Energy            =      -0.0000000000000000 [Eh]
	 Same-Spin Energy          =      -0.3628523264055308 [Eh]
	 Opposite-Spin Energy      =      -1.0667954577263568 [Eh]
	 Correlation Energy        =      -1.4296477841318875 [Eh]
	 Total Energy              =    -702.3244968579276701 [Eh]

	 ================> DF-SCS-MP2 Energies <==================
	-----------------------------------------------------------
	 SCS Same-Spin Scale       =       0.3333333333333333 [-]
	 SCS Opposite-Spin Scale   =       1.2000000000000000 [-]
	 SCS Same-Spin Energy      =      -0.1209507754685103 [Eh]
	 SCS Opposite-Spin Energy  =      -1.2801545492716280 [Eh]
	 SCS Correlation Energy    =      -1.4011053247401382 [Eh]
	 SCS Total Energy          =    -702.2959543985358550 [Eh]
	-----------------------------------------------------------

  Dipole Moment: [D]
     X:    -4.1696      Y:     1.4648      Z:    -0.0000     Total:     4.4194

*** Psi4 exiting successfully. Buy a developer a beer!
