                               Psi4 1.3.2 release

  ==> Input File <==

--------------------------------------------------------------------------
#psi4
#
memory 32 gb

molecule  {
-1 1
  S        0.5401240    -0.0567320     0.0000000
  O        0.4874240    -0.8647860    -1.2512880
  O        1.5685253     1.0189746    -0.0239630
  O        0.4874170    -0.8647610     1.2513040
  C       -1.0236020     0.8530730    -0.0000110
  C       -2.2227860    -0.0817370     0.0000010
  H       -1.0143060     1.4942760     0.8867830
  H       -1.0143040     1.4942500    -0.8868250
  H       -3.1679310     0.4744510    -0.0000100
  H       -2.1864950    -0.7220660    -0.8842360
  H       -2.1864990    -0.7220390     0.8842580
units angstrom
no_reorient  #important for SAPT in psi4, default
symmetry c1  #important for SAPT in psi4, default
}

set PROPERTIES_ORIGIN ["COM"]
properties('MP2/aug-cc-pvtz', properties = ['dipole'])
--------------------------------------------------------------------------

    Molecular point group: c1
  Charge       = -1
  Multiplicity = 1
  Basis Set: AUG-CC-PVTZ
    Blend: AUG-CC-PVTZ
  Basis Set: (AUG-CC-PVTZ AUX)
    Blend: AUG-CC-PVTZ-JKFIT

    Orbital Energies [Eh]
    ---------------------

    Doubly Occupied:

       1A    -91.995149     2A    -20.339220     3A    -20.337749
       4A    -20.336414     5A    -11.096565     6A    -11.087904
       7A     -8.956937     8A     -6.642286     9A     -6.641815
      10A     -6.641772    11A     -1.254336    12A     -1.112674
      13A     -1.109772    14A     -0.903076    15A     -0.738602
      16A     -0.603629    17A     -0.497064    18A     -0.488733
      19A     -0.454974    20A     -0.444127    21A     -0.414609
      22A     -0.381558    23A     -0.361753    24A     -0.318802
      25A     -0.317727    26A     -0.275524    27A     -0.273627
      28A     -0.246302    29A     -0.236952

  @DF-RHF Final Energy:  -700.92053366166863

   => Energetics <=

    Nuclear Repulsion Energy =            346.5157275241720072
    One-Electron Energy =               -1665.8532152402233351
    Two-Electron Energy =                 618.4169540543826997
    Total Energy =                       -700.9205336616686282
  Basis Set: (AUG-CC-PVTZ AUX)
    Blend: AUG-CC-PVTZ-RI
    Molecular point group: c1

    Geometry (in Angstrom), charge = -1, multiplicity = 1:

       Center              X                  Y                   Z               Mass
    ------------   -----------------  -----------------  -----------------  -----------------
         S            0.454352577236    -0.039403990635     0.003515547960    31.972071174400
         O            0.401652577236    -0.847457990635    -1.247772452040    15.994914619570
         O            1.482753877236     1.036302609365    -0.020447452040    15.994914619570
         O            0.401645577236    -0.847432990635     1.254819547960    15.994914619570
         C           -1.109373422764     0.870401009365     0.003504547960    12.000000000000
         C           -2.308557422764    -0.064408990635     0.003516547960    12.000000000000
         H           -1.100077422764     1.511604009365     0.890298547960     1.007825032230
         H           -1.100075422764     1.511578009365    -0.883309452040     1.007825032230
         H           -3.253702422764     0.491779009365     0.003505547960     1.007825032230
         H           -2.272266422764    -0.704737990635    -0.880720452040     1.007825032230
         H           -2.272270422764    -0.704710990635     0.887773547960     1.007825032230

  Basis Set: AUG-CC-PVTZ
    Blend: AUG-CC-PVTZ
  Basis Set: (AUG-CC-PVTZ AUX)
    Blend: AUG-CC-PVTZ-JKFIT
	 Reference Energy          =    -700.9205336616686282 [Eh]
	 Singles Energy            =      -0.0000000000000000 [Eh]
	 Same-Spin Energy          =      -0.3608494902758846 [Eh]
	 Opposite-Spin Energy      =      -1.0628038771256441 [Eh]
	 Correlation Energy        =      -1.4236533674015286 [Eh]
	 Total Energy              =    -702.3441870290702127 [Eh]

	 ================> DF-SCS-MP2 Energies <==================
	-----------------------------------------------------------
	 SCS Same-Spin Scale       =       0.3333333333333333 [-]
	 SCS Opposite-Spin Scale   =       1.2000000000000000 [-]
	 SCS Same-Spin Energy      =      -0.1202831634252949 [Eh]
	 SCS Opposite-Spin Energy  =      -1.2753646525507729 [Eh]
	 SCS Correlation Energy    =      -1.3956478159760679 [Eh]
	 SCS Total Energy          =    -702.3161814776447045 [Eh]
	-----------------------------------------------------------

  Dipole Moment: [D]
     X:    -4.3967      Y:     1.6366      Z:     0.0547     Total:     4.6917

*** Psi4 exiting successfully. Buy a developer a beer!
