                               Psi4 1.4a3.dev225

  ==> Input File <==

--------------------------------------------------------------------------
#psi4
#
memory 32 gb

molecule  {
-1 1
  S       -0.5251900    -0.0446130     0.0000000
  O       -0.5231630    -0.8666190     1.2464430
  O       -1.5690800     1.0220300    -0.0000010
  O       -0.5231620    -0.8666200    -1.2464420
  C        1.0531468     0.8448349     0.0000000
  C        2.2383420    -0.0963210     0.0000000
  H        1.0305470     1.4783680    -0.8845630
  H        1.0305460     1.4783690     0.8845620
  H        3.1657760     0.4824540     0.0000000
  H        2.2275090    -0.7339400     0.8865020
  H        2.2275090    -0.7339410    -0.8865010
units angstrom
no_reorient  #important for SAPT in psi4, default
symmetry c1  #important for SAPT in psi4, default
}

set PROPERTIES_ORIGIN ["COM"]
properties('MP2/aug-cc-pvtz', properties = ['dipole'])
--------------------------------------------------------------------------

    Molecular point group: c1
  Charge       = -1
  Multiplicity = 1
  Basis Set: AUG-CC-PVTZ
    Blend: AUG-CC-PVTZ
  Basis Set: (AUG-CC-PVTZ AUX)
    Blend: AUG-CC-PVTZ-JKFIT

    Orbital Energies [Eh]
    ---------------------

    Doubly Occupied:

       1A    -91.993556     2A    -20.334860     3A    -20.334837
       4A    -20.334196     5A    -11.102003     6A    -11.092268
       7A     -8.955457     8A     -6.640743     9A     -6.640283
      10A     -6.640278    11A     -1.250318    12A     -1.105914
      13A     -1.105582    14A     -0.910714    15A     -0.745063
      16A     -0.604388    17A     -0.496290    18A     -0.494804
      19A     -0.453074    20A     -0.441797    21A     -0.414895
      22A     -0.390230    23A     -0.368450    24A     -0.314578
      25A     -0.314560    26A     -0.270465    27A     -0.270313
      28A     -0.248347    29A     -0.232502

  @DF-RHF Final Energy:  -700.92036357151494

   => Energetics <=

    Nuclear Repulsion Energy =            345.7226637372627920
    One-Electron Energy =               -1664.2845265580428986
    Two-Electron Energy =                 617.6414992492651663
    Total Energy =                       -700.9203635715149403
  Basis Set: (AUG-CC-PVTZ AUX)
    Blend: AUG-CC-PVTZ-RI
    Molecular point group: c1

    Geometry (in Angstrom), charge = -1, multiplicity = 1:

       Center              X                  Y                   Z               Mass
    ------------   -----------------  -----------------  -----------------  -----------------
         S           -0.439231953892    -0.027794071924    -0.000000000000    31.972071174400
         O           -0.437204953892    -0.849800071924     1.246443000000    15.994914619570
         O           -1.483121953892     1.038848928076    -0.000001000000    15.994914619570
         O           -0.437203953892    -0.849801071924    -1.246442000000    15.994914619570
         C            1.139104846108     0.861653828076    -0.000000000000    12.000000000000
         C            2.324300046108    -0.079502071924    -0.000000000000    12.000000000000
         H            1.116505046108     1.495186928076    -0.884563000000     1.007825032230
         H            1.116504046108     1.495187928076     0.884562000000     1.007825032230
         H            3.251734046108     0.499272928076    -0.000000000000     1.007825032230
         H            2.313467046108    -0.717121071924     0.886502000000     1.007825032230
         H            2.313467046108    -0.717122071924    -0.886501000000     1.007825032230

  Basis Set: AUG-CC-PVTZ
    Blend: AUG-CC-PVTZ
  Basis Set: (AUG-CC-PVTZ AUX)
    Blend: AUG-CC-PVTZ-JKFIT
	 Reference Energy          =    -700.9203635715149403 [Eh]
	 Singles Energy            =      -0.0000000000000000 [Eh]
	 Same-Spin Energy          =      -0.3607333677822777 [Eh]
	 Opposite-Spin Energy      =      -1.0625819262258545 [Eh]
	 Correlation Energy        =      -1.4233152940081322 [Eh]
	 Total Energy              =    -702.3436788655230885 [Eh]

	 ================> DF-SCS-MP2 Energies <==================
	-----------------------------------------------------------
	 SCS Same-Spin Scale       =       0.3333333333333333 [-]
	 SCS Opposite-Spin Scale   =       1.2000000000000000 [-]
	 SCS Same-Spin Energy      =      -0.1202444559274259 [Eh]
	 SCS Opposite-Spin Energy  =      -1.2750983114710253 [Eh]
	 SCS Correlation Energy    =      -1.3953427673984511 [Eh]
	 SCS Total Energy          =    -702.3157063389134009 [Eh]
	-----------------------------------------------------------

  Dipole Moment: [D]
     X:     4.7732      Y:     1.7216      Z:    -0.0000     Total:     5.0741

*** Psi4 exiting successfully. Buy a developer a beer!
