                               Psi4 1.4a3.dev225

  ==> Input File <==

--------------------------------------------------------------------------
#psi4
#
memory 32 gb

molecule  {
-1 1
  S       -0.5251900    -0.0446130     0.0000000
  O       -0.5231630    -0.8666190     1.2464430
  O       -1.5690800     1.0220300    -0.0000010
  O       -0.5231620    -0.8666200    -1.2464420
  C        0.9921635     0.8104687     0.0000000
  C        2.2383420    -0.0963210     0.0000000
  H        1.0305470     1.4783680    -0.8845630
  H        1.0305460     1.4783690     0.8845620
  H        3.1657760     0.4824540     0.0000000
  H        2.2275090    -0.7339400     0.8865020
  H        2.2275090    -0.7339410    -0.8865010
units angstrom
no_reorient  #important for SAPT in psi4, default
symmetry c1  #important for SAPT in psi4, default
}

set PROPERTIES_ORIGIN ["COM"]
properties('MP2/aug-cc-pvtz', properties = ['dipole'])
--------------------------------------------------------------------------

    Molecular point group: c1
  Charge       = -1
  Multiplicity = 1
  Basis Set: AUG-CC-PVTZ
    Blend: AUG-CC-PVTZ
  Basis Set: (AUG-CC-PVTZ AUX)
    Blend: AUG-CC-PVTZ-JKFIT

    Orbital Energies [Eh]
    ---------------------

    Doubly Occupied:

       1A    -91.993625     2A    -20.334229     3A    -20.334206
       4A    -20.333401     5A    -11.104073     6A    -11.094463
       7A     -8.956174     8A     -6.641648     9A     -6.640991
      10A     -6.640988    11A     -1.252454    12A     -1.106177
      13A     -1.105757    14A     -0.909039    15A     -0.753048
      16A     -0.604876    17A     -0.499650    18A     -0.490459
      19A     -0.455104    20A     -0.441232    21A     -0.417080
      22A     -0.379436    23A     -0.363761    24A     -0.314787
      25A     -0.314241    26A     -0.269070    27A     -0.269016
      28A     -0.260030    29A     -0.232132

  @DF-RHF Final Energy:  -700.91792583572953

   => Energetics <=

    Nuclear Repulsion Energy =            347.1188591518489943
    One-Electron Energy =               -1667.0512789041326869
    Two-Electron Energy =                 619.0144939165542155
    Total Energy =                       -700.9179258357295339
  Basis Set: (AUG-CC-PVTZ AUX)
    Blend: AUG-CC-PVTZ-RI
    Molecular point group: c1

    Geometry (in Angstrom), charge = -1, multiplicity = 1:

       Center              X                  Y                   Z               Mass
    ------------   -----------------  -----------------  -----------------  -----------------
         S           -0.432517946024    -0.024010496139    -0.000000000000    31.972071174400
         O           -0.430490946024    -0.846016496139     1.246443000000    15.994914619570
         O           -1.476407946024     1.042632503861    -0.000001000000    15.994914619570
         O           -0.430489946024    -0.846017496139    -1.246442000000    15.994914619570
         C            1.084835553976     0.831071203861    -0.000000000000    12.000000000000
         C            2.331014053976    -0.075718496139    -0.000000000000    12.000000000000
         H            1.123219053976     1.498970503861    -0.884563000000     1.007825032230
         H            1.123218053976     1.498971503861     0.884562000000     1.007825032230
         H            3.258448053976     0.503056503861    -0.000000000000     1.007825032230
         H            2.320181053976    -0.713337496139     0.886502000000     1.007825032230
         H            2.320181053976    -0.713338496139    -0.886501000000     1.007825032230

  Basis Set: AUG-CC-PVTZ
    Blend: AUG-CC-PVTZ
  Basis Set: (AUG-CC-PVTZ AUX)
    Blend: AUG-CC-PVTZ-JKFIT
	 Reference Energy          =    -700.9179258357295339 [Eh]
	 Singles Energy            =      -0.0000000000000000 [Eh]
	 Same-Spin Energy          =      -0.3606941638058320 [Eh]
	 Opposite-Spin Energy      =      -1.0623543870645733 [Eh]
	 Correlation Energy        =      -1.4230485508704054 [Eh]
	 Total Energy              =    -702.3409743865998962 [Eh]

	 ================> DF-SCS-MP2 Energies <==================
	-----------------------------------------------------------
	 SCS Same-Spin Scale       =       0.3333333333333333 [-]
	 SCS Opposite-Spin Scale   =       1.2000000000000000 [-]
	 SCS Same-Spin Energy      =      -0.1202313879352773 [Eh]
	 SCS Opposite-Spin Energy  =      -1.2748252644774880 [Eh]
	 SCS Correlation Energy    =      -1.3950566524127654 [Eh]
	 SCS Total Energy          =    -702.3129824881423247 [Eh]
	-----------------------------------------------------------

  Dipole Moment: [D]
     X:     4.8324      Y:     1.7638      Z:    -0.0000     Total:     5.1442

*** Psi4 exiting successfully. Buy a developer a beer!
