                               Psi4 1.3.2 release

  ==> Input File <==

--------------------------------------------------------------------------
#psi4
#
memory 32 gb

molecule  {
-1 1
  S        0.5401240    -0.0567320     0.0000000
  O        0.4874240    -0.8647860    -1.2512880
  O        1.6021927     0.9816179     0.0957490
  O        0.4874170    -0.8647610     1.2513040
  C       -1.0236020     0.8530730    -0.0000110
  C       -2.2227860    -0.0817370     0.0000010
  H       -1.0143060     1.4942760     0.8867830
  H       -1.0143040     1.4942500    -0.8868250
  H       -3.1679310     0.4744510    -0.0000100
  H       -2.1864950    -0.7220660    -0.8842360
  H       -2.1864990    -0.7220390     0.8842580
units angstrom
no_reorient  #important for SAPT in psi4, default
symmetry c1  #important for SAPT in psi4, default
}

set PROPERTIES_ORIGIN ["COM"]
properties('MP2/aug-cc-pvtz', properties = ['dipole'])
--------------------------------------------------------------------------

    Molecular point group: c1
  Charge       = -1
  Multiplicity = 1
  Basis Set: AUG-CC-PVTZ
    Blend: AUG-CC-PVTZ
  Basis Set: (AUG-CC-PVTZ AUX)
    Blend: AUG-CC-PVTZ-JKFIT

    Orbital Energies [Eh]
    ---------------------

    Doubly Occupied:

       1A    -91.994503     2A    -20.341693     3A    -20.336968
       4A    -20.330322     5A    -11.099223     6A    -11.089407
       7A     -8.956370     8A     -6.641710     9A     -6.641310
      10A     -6.641129    11A     -1.253740    12A     -1.115175
      13A     -1.103755    14A     -0.904903    15A     -0.740481
      16A     -0.603652    17A     -0.497306    18A     -0.489789
      19A     -0.454423    20A     -0.443534    21A     -0.415129
      22A     -0.382703    23A     -0.363167    24A     -0.319432
      25A     -0.315052    26A     -0.276807    27A     -0.269204
      28A     -0.247959    29A     -0.234387

  @DF-RHF Final Energy:  -700.91966587118225

   => Energetics <=

    Nuclear Repulsion Energy =            346.4366428024614493
    One-Electron Energy =               -1665.7061512100242453
    Two-Electron Energy =                 618.3498425363806064
    Total Energy =                       -700.9196658711822465
  Basis Set: (AUG-CC-PVTZ AUX)
    Blend: AUG-CC-PVTZ-RI
    Molecular point group: c1

    Geometry (in Angstrom), charge = -1, multiplicity = 1:

       Center              X                  Y                   Z               Mass
    ------------   -----------------  -----------------  -----------------  -----------------
         S            0.449411960296    -0.033921977031    -0.014051924880    31.972071174400
         O            0.396711960296    -0.841975977031    -1.265339924880    15.994914619570
         O            1.511480660296     1.004427922969     0.081697075120    15.994914619570
         O            0.396704960296    -0.841950977031     1.237252075120    15.994914619570
         C           -1.114314039704     0.875883022969    -0.014062924880    12.000000000000
         C           -2.313498039704    -0.058926977031    -0.014050924880    12.000000000000
         H           -1.105018039704     1.517086022969     0.872731075120     1.007825032230
         H           -1.105016039704     1.517060022969    -0.900876924880     1.007825032230
         H           -3.258643039704     0.497261022969    -0.014061924880     1.007825032230
         H           -2.277207039704    -0.699255977031    -0.898287924880     1.007825032230
         H           -2.277211039704    -0.699228977031     0.870206075120     1.007825032230

  Basis Set: AUG-CC-PVTZ
    Blend: AUG-CC-PVTZ
  Basis Set: (AUG-CC-PVTZ AUX)
    Blend: AUG-CC-PVTZ-JKFIT
	 Reference Energy          =    -700.9196658711822465 [Eh]
	 Singles Energy            =      -0.0000000000000000 [Eh]
	 Same-Spin Energy          =      -0.3608064377904371 [Eh]
	 Opposite-Spin Energy      =      -1.0626950130479973 [Eh]
	 Correlation Energy        =      -1.4235014508384345 [Eh]
	 Total Energy              =    -702.3431673220206903 [Eh]

	 ================> DF-SCS-MP2 Energies <==================
	-----------------------------------------------------------
	 SCS Same-Spin Scale       =       0.3333333333333333 [-]
	 SCS Opposite-Spin Scale   =       1.2000000000000000 [-]
	 SCS Same-Spin Energy      =      -0.1202688125968124 [Eh]
	 SCS Opposite-Spin Energy  =      -1.2752340156575968 [Eh]
	 SCS Correlation Energy    =      -1.3955028282544091 [Eh]
	 SCS Total Energy          =    -702.3151686994366401 [Eh]
	-----------------------------------------------------------

  Dipole Moment: [D]
     X:    -4.4964      Y:     1.7176      Z:    -0.2195     Total:     4.8183

*** Psi4 exiting successfully. Buy a developer a beer!
