                               Psi4 1.3.2 release

  ==> Input File <==

--------------------------------------------------------------------------
#psi4
#
memory 32 gb

molecule  {
-1 1
  S        0.5822627     0.0353992    -0.1599865
  O        0.4874240    -0.8647860    -1.2512880
  O        1.5758940     1.0121500    -0.0000060
  O        0.4874170    -0.8647610     1.2513040
  C       -1.0236020     0.8530730    -0.0000110
  C       -2.2227860    -0.0817370     0.0000010
  H       -1.0143060     1.4942760     0.8867830
  H       -1.0143040     1.4942500    -0.8868250
  H       -3.1679310     0.4744510    -0.0000100
  H       -2.1864950    -0.7220660    -0.8842360
  H       -2.1864990    -0.7220390     0.8842580
units angstrom
no_reorient  #important for SAPT in psi4, default
symmetry c1  #important for SAPT in psi4, default
}

set PROPERTIES_ORIGIN ["COM"]
properties('MP2/aug-cc-pvtz', properties = ['dipole'])
--------------------------------------------------------------------------

    Molecular point group: c1
  Charge       = -1
  Multiplicity = 1
  Basis Set: AUG-CC-PVTZ
    Blend: AUG-CC-PVTZ
  Basis Set: (AUG-CC-PVTZ AUX)
    Blend: AUG-CC-PVTZ-JKFIT

    Orbital Energies [Eh]
    ---------------------

    Doubly Occupied:

       1A    -91.989740     2A    -20.362529     3A    -20.359157
       4A    -20.291923     5A    -11.099436     6A    -11.087025
       7A     -8.954935     8A     -6.640505     9A     -6.639815
      10A     -6.638991    11A     -1.290913    12A     -1.177906
      13A     -1.015478    14A     -0.901156    15A     -0.742648
      16A     -0.605744    17A     -0.507204    18A     -0.489694
      19A     -0.472852    20A     -0.450007    21A     -0.425210
      22A     -0.381436    23A     -0.361040    24A     -0.337522
      25A     -0.316299    26A     -0.310639    27A     -0.237854
      28A     -0.211732    29A     -0.207164

  @DF-RHF Final Energy:  -700.87573531928729

   => Energetics <=

    Nuclear Repulsion Energy =            346.1819473940589091
    One-Electron Energy =               -1665.1022569711826691
    Two-Electron Energy =                 618.0445742578365298
    Total Energy =                       -700.8757353192872870
  Basis Set: (AUG-CC-PVTZ AUX)
    Blend: AUG-CC-PVTZ-RI
    Molecular point group: c1

    Geometry (in Angstrom), charge = -1, multiplicity = 1:

       Center              X                  Y                   Z               Mass
    ------------   -----------------  -----------------  -----------------  -----------------
         S            0.483049278934     0.026703612666    -0.113057320423    31.972071174400
         O            0.388210578934    -0.873481587334    -1.204358820423    15.994914619570
         O            1.476680578934     1.003454412666     0.046923179577    15.994914619570
         O            0.388203578934    -0.873456587334     1.298233179577    15.994914619570
         C           -1.122815421066     0.844377412666     0.046918179577    12.000000000000
         C           -2.321999421066    -0.090432587334     0.046930179577    12.000000000000
         H           -1.113519421066     1.485580412666     0.933712179577     1.007825032230
         H           -1.113517421066     1.485554412666    -0.839895820423     1.007825032230
         H           -3.267144421066     0.465755412666     0.046919179577     1.007825032230
         H           -2.285708421066    -0.730761587334    -0.837306820423     1.007825032230
         H           -2.285712421066    -0.730734587334     0.931187179577     1.007825032230

  Basis Set: AUG-CC-PVTZ
    Blend: AUG-CC-PVTZ
  Basis Set: (AUG-CC-PVTZ AUX)
    Blend: AUG-CC-PVTZ-JKFIT
	 Reference Energy          =    -700.8757353192872870 [Eh]
	 Singles Energy            =      -0.0000000000000000 [Eh]
	 Same-Spin Energy          =      -0.3609548194490651 [Eh]
	 Opposite-Spin Energy      =      -1.0643682322272798 [Eh]
	 Correlation Energy        =      -1.4253230516763449 [Eh]
	 Total Energy              =    -702.3010583709636876 [Eh]

	 ================> DF-SCS-MP2 Energies <==================
	-----------------------------------------------------------
	 SCS Same-Spin Scale       =       0.3333333333333333 [-]
	 SCS Opposite-Spin Scale   =       1.2000000000000000 [-]
	 SCS Same-Spin Energy      =      -0.1203182731496884 [Eh]
	 SCS Opposite-Spin Energy  =      -1.2772418786727358 [Eh]
	 SCS Correlation Energy    =      -1.3975601518224241 [Eh]
	 SCS Total Energy          =    -702.2732954711096909 [Eh]
	-----------------------------------------------------------

  Dipole Moment: [D]
     X:    -3.9004      Y:     2.7381      Z:    -1.9143     Total:     5.1357

*** Psi4 exiting successfully. Buy a developer a beer!
