                               Psi4 1.3.2 release

  ==> Input File <==

--------------------------------------------------------------------------
#psi4
#
memory 32 gb

molecule  {
-1 1
  S        0.5401240    -0.0567320     0.0000000
  O        0.4874240    -0.8647860    -1.2512880
  O        1.5379596     1.0476467    -0.0000064
  O        0.4874170    -0.8647610     1.2513040
  C       -1.0236020     0.8530730    -0.0000110
  C       -2.2227860    -0.0817370     0.0000010
  H       -1.0143060     1.4942760     0.8867830
  H       -1.0143040     1.4942500    -0.8868250
  H       -3.1679310     0.4744510    -0.0000100
  H       -2.1864950    -0.7220660    -0.8842360
  H       -2.1864990    -0.7220390     0.8842580
units angstrom
no_reorient  #important for SAPT in psi4, default
symmetry c1  #important for SAPT in psi4, default
}

set PROPERTIES_ORIGIN ["COM"]
properties('MP2/aug-cc-pvtz', properties = ['dipole'])
--------------------------------------------------------------------------

    Molecular point group: c1
  Charge       = -1
  Multiplicity = 1
  Basis Set: AUG-CC-PVTZ
    Blend: AUG-CC-PVTZ
  Basis Set: (AUG-CC-PVTZ AUX)
    Blend: AUG-CC-PVTZ-JKFIT

    Orbital Energies [Eh]
    ---------------------

    Doubly Occupied:

       1A    -91.995603     2A    -20.339225     3A    -20.339203
       4A    -20.338188     5A    -11.094312     6A    -11.086584
       7A     -8.957354     8A     -6.642712     9A     -6.642221
      10A     -6.642195    11A     -1.254884    12A     -1.113091
      13A     -1.111894    14A     -0.901486    15A     -0.736976
      16A     -0.603669    17A     -0.496805    18A     -0.487848
      19A     -0.455523    20A     -0.444386    21A     -0.414053
      22A     -0.380583    23A     -0.360539    24A     -0.319605
      25A     -0.318584    26A     -0.275953    27A     -0.275474
      28A     -0.244680    29A     -0.238399

  @DF-RHF Final Energy:  -700.91988439840804

   => Energetics <=

    Nuclear Repulsion Energy =            346.6157657112505035
    One-Electron Energy =               -1666.0472437820083087
    Two-Electron Energy =                 618.5115936723497043
    Total Energy =                       -700.9198843984080440
  Basis Set: (AUG-CC-PVTZ AUX)
    Blend: AUG-CC-PVTZ-RI
    Molecular point group: c1

    Geometry (in Angstrom), charge = -1, multiplicity = 1:

       Center              X                  Y                   Z               Mass
    ------------   -----------------  -----------------  -----------------  -----------------
         S            0.458838026519    -0.043611558281    -0.000000030427    31.972071174400
         O            0.406138026519    -0.851665558281    -1.251288030427    15.994914619570
         O            1.456673626519     1.060767141719    -0.000006430427    15.994914619570
         O            0.406131026519    -0.851640558281     1.251303969573    15.994914619570
         C           -1.104887973481     0.866193441719    -0.000011030427    12.000000000000
         C           -2.304071973481    -0.068616558281     0.000000969573    12.000000000000
         H           -1.095591973481     1.507396441719     0.886782969573     1.007825032230
         H           -1.095589973481     1.507370441719    -0.886825030427     1.007825032230
         H           -3.249216973481     0.487571441719    -0.000010030427     1.007825032230
         H           -2.267780973481    -0.708945558281    -0.884236030427     1.007825032230
         H           -2.267784973481    -0.708918558281     0.884257969573     1.007825032230

  Basis Set: AUG-CC-PVTZ
    Blend: AUG-CC-PVTZ
  Basis Set: (AUG-CC-PVTZ AUX)
    Blend: AUG-CC-PVTZ-JKFIT
	 Reference Energy          =    -700.9198843984080440 [Eh]
	 Singles Energy            =      -0.0000000000000000 [Eh]
	 Same-Spin Energy          =      -0.3609493869220584 [Eh]
	 Opposite-Spin Energy      =      -1.0630214499562249 [Eh]
	 Correlation Energy        =      -1.4239708368782833 [Eh]
	 Total Energy              =    -702.3438552352863553 [Eh]

	 ================> DF-SCS-MP2 Energies <==================
	-----------------------------------------------------------
	 SCS Same-Spin Scale       =       0.3333333333333333 [-]
	 SCS Opposite-Spin Scale   =       1.2000000000000000 [-]
	 SCS Same-Spin Energy      =      -0.1203164623073528 [Eh]
	 SCS Opposite-Spin Energy  =      -1.2756257399474700 [Eh]
	 SCS Correlation Energy    =      -1.3959422022548227 [Eh]
	 SCS Total Energy          =    -702.3158266006628310 [Eh]
	-----------------------------------------------------------

  Dipole Moment: [D]
     X:    -4.3077      Y:     1.5737      Z:    -0.0000     Total:     4.5861

*** Psi4 exiting successfully. Buy a developer a beer!
