                               Psi4 1.3.2 release

  ==> Input File <==

--------------------------------------------------------------------------
#psi4
#
memory 32 gb

molecule  {
-1 1
  S        0.4808528    -0.1388952     0.1599864
  O        0.4874240    -0.8647860    -1.2512880
  O        1.5758940     1.0121500    -0.0000060
  O        0.4874170    -0.8647610     1.2513040
  C       -1.0236020     0.8530730    -0.0000110
  C       -2.2227860    -0.0817370     0.0000010
  H       -1.0143060     1.4942760     0.8867830
  H       -1.0143040     1.4942500    -0.8868250
  H       -3.1679310     0.4744510    -0.0000100
  H       -2.1864950    -0.7220660    -0.8842360
  H       -2.1864990    -0.7220390     0.8842580
units angstrom
no_reorient  #important for SAPT in psi4, default
symmetry c1  #important for SAPT in psi4, default
}

set PROPERTIES_ORIGIN ["COM"]
properties('MP2/aug-cc-pvtz', properties = ['dipole'])
--------------------------------------------------------------------------

    Molecular point group: c1
  Charge       = -1
  Multiplicity = 1
  Basis Set: AUG-CC-PVTZ
    Blend: AUG-CC-PVTZ
  Basis Set: (AUG-CC-PVTZ AUX)
    Blend: AUG-CC-PVTZ-JKFIT

    Orbital Energies [Eh]
    ---------------------

    Doubly Occupied:

       1A    -91.985615     2A    -20.383112     3A    -20.315497
       4A    -20.312594     5A    -11.098647     6A    -11.090857
       7A     -8.953397     8A     -6.639925     9A     -6.637499
      10A     -6.636629    11A     -1.336891    12A     -1.109127
      13A     -1.039950    14A     -0.907271    15A     -0.738583
      16A     -0.612148    17A     -0.524809    18A     -0.495736
      19A     -0.478449    20A     -0.459611    21A     -0.425125
      22A     -0.389461    23A     -0.367616    24A     -0.323491
      25A     -0.306363    26A     -0.278601    27A     -0.238862
      28A     -0.228292    29A     -0.211953

  @DF-RHF Final Energy:  -700.85423405258462

   => Energetics <=

    Nuclear Repulsion Energy =            347.3422402136657183
    One-Electron Energy =               -1667.3407277787855492
    Two-Electron Energy =                 619.1442535125352151
    Total Energy =                       -700.8542340525846157
  Basis Set: (AUG-CC-PVTZ AUX)
    Blend: AUG-CC-PVTZ-RI
    Molecular point group: c1

    Geometry (in Angstrom), charge = -1, multiplicity = 1:

       Center              X                  Y                   Z               Mass
    ------------   -----------------  -----------------  -----------------  -----------------
         S            0.411386216613    -0.096464543988     0.113057071504    31.972071174400
         O            0.417957416613    -0.822355343988    -1.298217328496    15.994914619570
         O            1.506427416613     1.054580656012    -0.046935328496    15.994914619570
         O            0.417950416613    -0.822330343988     1.204374671504    15.994914619570
         C           -1.093068583387     0.895503656012    -0.046940328496    12.000000000000
         C           -2.292252583387    -0.039306343988    -0.046928328496    12.000000000000
         H           -1.083772583387     1.536706656012     0.839853671504     1.007825032230
         H           -1.083770583387     1.536680656012    -0.933754328496     1.007825032230
         H           -3.237397583387     0.516881656012    -0.046939328496     1.007825032230
         H           -2.255961583387    -0.679635343988    -0.931165328496     1.007825032230
         H           -2.255965583387    -0.679608343988     0.837328671504     1.007825032230

  Basis Set: AUG-CC-PVTZ
    Blend: AUG-CC-PVTZ
  Basis Set: (AUG-CC-PVTZ AUX)
    Blend: AUG-CC-PVTZ-JKFIT
	 Reference Energy          =    -700.8542340525846157 [Eh]
	 Singles Energy            =      -0.0000000000000000 [Eh]
	 Same-Spin Energy          =      -0.3605970713284651 [Eh]
	 Opposite-Spin Energy      =      -1.0636590442807821 [Eh]
	 Correlation Energy        =      -1.4242561156092473 [Eh]
	 Total Energy              =    -702.2784901681939118 [Eh]

	 ================> DF-SCS-MP2 Energies <==================
	-----------------------------------------------------------
	 SCS Same-Spin Scale       =       0.3333333333333333 [-]
	 SCS Opposite-Spin Scale   =       1.2000000000000000 [-]
	 SCS Same-Spin Energy      =      -0.1201990237761550 [Eh]
	 SCS Opposite-Spin Energy  =      -1.2763908531369383 [Eh]
	 SCS Correlation Energy    =      -1.3965898769130933 [Eh]
	 SCS Total Energy          =    -702.2508239294977557 [Eh]
	-----------------------------------------------------------

  Dipole Moment: [D]
     X:    -5.1585      Y:     0.7230      Z:     1.7950     Total:     5.5095

*** Psi4 exiting successfully. Buy a developer a beer!
