                               Psi4 1.3.2 release

  ==> Input File <==

--------------------------------------------------------------------------
#psi4
#
memory 32 gb

molecule  {
-1 1
  S        0.5401240    -0.0567320     0.0000000
  O        0.4874240    -0.8647860    -1.2512880
  O        1.4584914     1.1145620    -0.0000071
  O        0.4874170    -0.8647610     1.2513040
  C       -1.0236020     0.8530730    -0.0000110
  C       -2.2227860    -0.0817370     0.0000010
  H       -1.0143060     1.4942760     0.8867830
  H       -1.0143040     1.4942500    -0.8868250
  H       -3.1679310     0.4744510    -0.0000100
  H       -2.1864950    -0.7220660    -0.8842360
  H       -2.1864990    -0.7220390     0.8842580
units angstrom
no_reorient  #important for SAPT in psi4, default
symmetry c1  #important for SAPT in psi4, default
}

set PROPERTIES_ORIGIN ["COM"]
properties('MP2/aug-cc-pvtz', properties = ['dipole'])
--------------------------------------------------------------------------

    Molecular point group: c1
  Charge       = -1
  Multiplicity = 1
  Basis Set: AUG-CC-PVTZ
    Blend: AUG-CC-PVTZ
  Basis Set: (AUG-CC-PVTZ AUX)
    Blend: AUG-CC-PVTZ-JKFIT

    Orbital Energies [Eh]
    ---------------------

    Doubly Occupied:

       1A    -91.996646     2A    -20.342644     3A    -20.342621
       4A    -20.339034     5A    -11.088561     6A    -11.083083
       7A     -8.958343     8A     -6.643732     9A     -6.643230
      10A     -6.643119    11A     -1.256314    12A     -1.116638
      13A     -1.114416    14A     -0.897314    15A     -0.732725
      16A     -0.603937    17A     -0.496005    18A     -0.485761
      19A     -0.456894    20A     -0.444734    21A     -0.412531
      22A     -0.378175    23A     -0.357490    24A     -0.322524
      25A     -0.319439    26A     -0.278505    27A     -0.278021
      28A     -0.241736    29A     -0.239971

  @DF-RHF Final Energy:  -700.91620397733368

   => Energetics <=

    Nuclear Repulsion Energy =            346.9202917082463955
    One-Electron Energy =               -1666.6447019242534680
    Two-Electron Energy =                 618.8082062386733924
    Total Energy =                       -700.9162039773336801
  Basis Set: (AUG-CC-PVTZ AUX)
    Blend: AUG-CC-PVTZ-RI
    Molecular point group: c1

    Geometry (in Angstrom), charge = -1, multiplicity = 1:

       Center              X                  Y                   Z               Mass
    ------------   -----------------  -----------------  -----------------  -----------------
         S            0.470499810175    -0.053431231457     0.000000072296    31.972071174400
         O            0.417799810175    -0.861485231457    -1.251287927704    15.994914619570
         O            1.388867210175     1.117862768543    -0.000007027704    15.994914619570
         O            0.417792810175    -0.861460231457     1.251304072296    15.994914619570
         C           -1.093226189825     0.856373768543    -0.000010927704    12.000000000000
         C           -2.292410189825    -0.078436231457     0.000001072296    12.000000000000
         H           -1.083930189825     1.497576768543     0.886783072296     1.007825032230
         H           -1.083928189825     1.497550768543    -0.886824927704     1.007825032230
         H           -3.237555189825     0.477751768543    -0.000009927704     1.007825032230
         H           -2.256119189825    -0.718765231457    -0.884235927704     1.007825032230
         H           -2.256123189825    -0.718738231457     0.884258072296     1.007825032230

  Basis Set: AUG-CC-PVTZ
    Blend: AUG-CC-PVTZ
  Basis Set: (AUG-CC-PVTZ AUX)
    Blend: AUG-CC-PVTZ-JKFIT
	 Reference Energy          =    -700.9162039773336801 [Eh]
	 Singles Energy            =      -0.0000000000000000 [Eh]
	 Same-Spin Energy          =      -0.3612995856734193 [Eh]
	 Opposite-Spin Energy      =      -1.0637660098465722 [Eh]
	 Correlation Energy        =      -1.4250655955199916 [Eh]
	 Total Energy              =    -702.3412695728536619 [Eh]

	 ================> DF-SCS-MP2 Energies <==================
	-----------------------------------------------------------
	 SCS Same-Spin Scale       =       0.3333333333333333 [-]
	 SCS Opposite-Spin Scale   =       1.2000000000000000 [-]
	 SCS Same-Spin Energy      =      -0.1204331952244731 [Eh]
	 SCS Opposite-Spin Energy  =      -1.2765192118158866 [Eh]
	 SCS Correlation Energy    =      -1.3969524070403596 [Eh]
	 SCS Total Energy          =    -702.3131563843739968 [Eh]
	-----------------------------------------------------------

  Dipole Moment: [D]
     X:    -4.0741      Y:     1.4256      Z:    -0.0000     Total:     4.3163

*** Psi4 exiting successfully. Buy a developer a beer!
