                               Psi4 1.3.2 release

  ==> Input File <==

--------------------------------------------------------------------------
#psi4
#
memory 32 gb

molecule  {
-1 1
  S        0.5401240    -0.0567320     0.0000000
  O        0.4874240    -0.8647860    -1.2512880
  O        1.6454836     1.0839643    -0.0000064
  O        0.4874170    -0.8647610     1.2513040
  C       -1.0236020     0.8530730    -0.0000110
  C       -2.2227860    -0.0817370     0.0000010
  H       -1.0143060     1.4942760     0.8867830
  H       -1.0143040     1.4942500    -0.8868250
  H       -3.1679310     0.4744510    -0.0000100
  H       -2.1864950    -0.7220660    -0.8842360
  H       -2.1864990    -0.7220390     0.8842580
units angstrom
no_reorient  #important for SAPT in psi4, default
symmetry c1  #important for SAPT in psi4, default
}

set PROPERTIES_ORIGIN ["COM"]
properties('MP2/aug-cc-pvtz', properties = ['dipole'])
--------------------------------------------------------------------------

    Molecular point group: c1
  Charge       = -1
  Multiplicity = 1
  Basis Set: AUG-CC-PVTZ
    Blend: AUG-CC-PVTZ
  Basis Set: (AUG-CC-PVTZ AUX)
    Blend: AUG-CC-PVTZ-JKFIT

    Orbital Energies [Eh]
    ---------------------

    Doubly Occupied:

       1A    -92.002614     2A    -20.345990     3A    -20.345967
       4A    -20.337899     5A    -11.103592     6A    -11.092700
       7A     -8.963971     8A     -6.649213     9A     -6.648755
      10A     -6.648247    11A     -1.242458    12A     -1.117131
      13A     -1.077468    14A     -0.908284    15A     -0.744661
      16A     -0.610678    17A     -0.497199    18A     -0.492463
      19A     -0.452713    20A     -0.441778    21A     -0.412191
      22A     -0.385650    23A     -0.366188    24A     -0.312845
      25A     -0.311071    26A     -0.278457    27A     -0.264685
      28A     -0.246834    29A     -0.237194

  @DF-RHF Final Energy:  -700.90406447251894

   => Energetics <=

    Nuclear Repulsion Energy =            342.2178942319371231
    One-Electron Energy =               -1657.1661261498318254
    Two-Electron Energy =                 614.0441674453757059
    Total Energy =                       -700.9040644725189395
  Basis Set: (AUG-CC-PVTZ AUX)
    Blend: AUG-CC-PVTZ-RI
    Molecular point group: c1

    Geometry (in Angstrom), charge = -1, multiplicity = 1:

       Center              X                  Y                   Z               Mass
    ------------   -----------------  -----------------  -----------------  -----------------
         S            0.443059115887    -0.048941086244    -0.000000030427    31.972071174400
         O            0.390359115887    -0.856995086244    -1.251288030427    15.994914619570
         O            1.548418715887     1.091755213756    -0.000006430427    15.994914619570
         O            0.390352115887    -0.856970086244     1.251303969573    15.994914619570
         C           -1.120666884113     0.860863913756    -0.000011030427    12.000000000000
         C           -2.319850884113    -0.073946086244     0.000000969573    12.000000000000
         H           -1.111370884113     1.502066913756     0.886782969573     1.007825032230
         H           -1.111368884113     1.502040913756    -0.886825030427     1.007825032230
         H           -3.264995884113     0.482241913756    -0.000010030427     1.007825032230
         H           -2.283559884113    -0.714275086244    -0.884236030427     1.007825032230
         H           -2.283563884113    -0.714248086244     0.884257969573     1.007825032230

  Basis Set: AUG-CC-PVTZ
    Blend: AUG-CC-PVTZ
  Basis Set: (AUG-CC-PVTZ AUX)
    Blend: AUG-CC-PVTZ-JKFIT
	 Reference Energy          =    -700.9040644725189395 [Eh]
	 Singles Energy            =      -0.0000000000000000 [Eh]
	 Same-Spin Energy          =      -0.3624242147931260 [Eh]
	 Opposite-Spin Energy      =      -1.0675742573241158 [Eh]
	 Correlation Energy        =      -1.4299984721172418 [Eh]
	 Total Energy              =    -702.3340629446362300 [Eh]

	 ================> DF-SCS-MP2 Energies <==================
	-----------------------------------------------------------
	 SCS Same-Spin Scale       =       0.3333333333333333 [-]
	 SCS Opposite-Spin Scale   =       1.2000000000000000 [-]
	 SCS Same-Spin Energy      =      -0.1208080715977087 [Eh]
	 SCS Opposite-Spin Energy  =      -1.2810891087889389 [Eh]
	 SCS Correlation Energy    =      -1.4018971803866476 [Eh]
	 SCS Total Energy          =    -702.3059616529055802 [Eh]
	-----------------------------------------------------------

  Dipole Moment: [D]
     X:    -4.9593      Y:     1.2061      Z:    -0.0000     Total:     5.1039

*** Psi4 exiting successfully. Buy a developer a beer!
