                               Psi4 1.3.2 release

  ==> Input File <==

--------------------------------------------------------------------------
#psi4
#
memory 32 gb

molecule  {
-1 1
  S        0.5401240    -0.0567320     0.0000000
  O        0.4874240    -0.8647860    -1.2512880
  O        1.5445491     1.0374747    -0.0957610
  O        0.4874170    -0.8647610     1.2513040
  C       -1.0236020     0.8530730    -0.0000110
  C       -2.2227860    -0.0817370     0.0000010
  H       -1.0143060     1.4942760     0.8867830
  H       -1.0143040     1.4942500    -0.8868250
  H       -3.1679310     0.4744510    -0.0000100
  H       -2.1864950    -0.7220660    -0.8842360
  H       -2.1864990    -0.7220390     0.8842580
units angstrom
no_reorient  #important for SAPT in psi4, default
symmetry c1  #important for SAPT in psi4, default
}

set PROPERTIES_ORIGIN ["COM"]
properties('MP2/aug-cc-pvtz', properties = ['dipole'])
--------------------------------------------------------------------------

    Molecular point group: c1
  Charge       = -1
  Multiplicity = 1
  Basis Set: AUG-CC-PVTZ
    Blend: AUG-CC-PVTZ
  Basis Set: (AUG-CC-PVTZ AUX)
    Blend: AUG-CC-PVTZ-JKFIT

    Orbital Energies [Eh]
    ---------------------

    Doubly Occupied:

       1A    -91.995386     2A    -20.344242     3A    -20.337855
       4A    -20.333110     5A    -11.094966     6A    -11.086950
       7A     -8.957172     8A     -6.642527     9A     -6.642101
      10A     -6.641937    11A     -1.254767    12A     -1.117487
      13A     -1.106312    14A     -0.901929    15A     -0.737438
      16A     -0.603682    17A     -0.496861    18A     -0.488065
      19A     -0.455460    20A     -0.444081    21A     -0.414118
      22A     -0.380854    23A     -0.360871    24A     -0.321039
      25A     -0.316715    26A     -0.278865    27A     -0.271563
      28A     -0.245079    29A     -0.237128

  @DF-RHF Final Energy:  -700.91889717821221

   => Energetics <=

    Nuclear Repulsion Energy =            346.6147698956704062
    One-Electron Energy =               -1666.0502116130344348
    Two-Electron Energy =                 618.5165445391518233
    Total Energy =                       -700.9188971782122053
  Basis Set: (AUG-CC-PVTZ AUX)
    Blend: AUG-CC-PVTZ-RI
    Molecular point group: c1

    Geometry (in Angstrom), charge = -1, multiplicity = 1:

       Center              X                  Y                   Z               Mass
    ------------   -----------------  -----------------  -----------------  -----------------
         S            0.457871031879    -0.042118839642     0.014051746627    31.972071174400
         O            0.405171031879    -0.850172839642    -1.237236253373    15.994914619570
         O            1.462296131879     1.052087860358    -0.081709253373    15.994914619570
         O            0.405164031879    -0.850147839642     1.265355746627    15.994914619570
         C           -1.105854968121     0.867686160358     0.014040746627    12.000000000000
         C           -2.305038968121    -0.067123839642     0.014052746627    12.000000000000
         H           -1.096558968121     1.508889160358     0.900834746627     1.007825032230
         H           -1.096556968121     1.508863160358    -0.872773253373     1.007825032230
         H           -3.250183968121     0.489064160358     0.014041746627     1.007825032230
         H           -2.268747968121    -0.707452839642    -0.870184253373     1.007825032230
         H           -2.268751968121    -0.707425839642     0.898309746627     1.007825032230

  Basis Set: AUG-CC-PVTZ
    Blend: AUG-CC-PVTZ
  Basis Set: (AUG-CC-PVTZ AUX)
    Blend: AUG-CC-PVTZ-JKFIT
	 Reference Energy          =    -700.9188971782122053 [Eh]
	 Singles Energy            =      -0.0000000000000000 [Eh]
	 Same-Spin Energy          =      -0.3609732029615609 [Eh]
	 Opposite-Spin Energy      =      -1.0630645025793450 [Eh]
	 Correlation Energy        =      -1.4240377055409059 [Eh]
	 Total Energy              =    -702.3429348837530597 [Eh]

	 ================> DF-SCS-MP2 Energies <==================
	-----------------------------------------------------------
	 SCS Same-Spin Scale       =       0.3333333333333333 [-]
	 SCS Opposite-Spin Scale   =       1.2000000000000000 [-]
	 SCS Same-Spin Energy      =      -0.1203244009871870 [Eh]
	 SCS Opposite-Spin Energy  =      -1.2756774030952140 [Eh]
	 SCS Correlation Energy    =      -1.3960018040824009 [Eh]
	 SCS Total Energy          =    -702.3148989822946078 [Eh]
	-----------------------------------------------------------

  Dipole Moment: [D]
     X:    -4.3297      Y:     1.5957      Z:     0.2180     Total:     4.6196

*** Psi4 exiting successfully. Buy a developer a beer!
