                               Psi4 1.3.2 release

  ==> Input File <==

--------------------------------------------------------------------------
#psi4
#
memory 32 gb

molecule  {
-1 1
  S        0.5401240    -0.0567320     0.0000000
  O        0.4874240    -0.8647860    -1.2512880
  O        1.7150732     1.1557785    -0.0000068
  O        0.4874170    -0.8647610     1.2513040
  C       -1.0236020     0.8530730    -0.0000110
  C       -2.2227860    -0.0817370     0.0000010
  H       -1.0143060     1.4942760     0.8867830
  H       -1.0143040     1.4942500    -0.8868250
  H       -3.1679310     0.4744510    -0.0000100
  H       -2.1864950    -0.7220660    -0.8842360
  H       -2.1864990    -0.7220390     0.8842580
units angstrom
no_reorient  #important for SAPT in psi4, default
symmetry c1  #important for SAPT in psi4, default
}

set PROPERTIES_ORIGIN ["COM"]
properties('MP2/aug-cc-pvtz', properties = ['dipole'])
--------------------------------------------------------------------------

    Molecular point group: c1
  Charge       = -1
  Multiplicity = 1
  Basis Set: AUG-CC-PVTZ
    Blend: AUG-CC-PVTZ
  Basis Set: (AUG-CC-PVTZ AUX)
    Blend: AUG-CC-PVTZ-JKFIT

    Orbital Energies [Eh]
    ---------------------

    Doubly Occupied:

       1A    -92.005422     2A    -20.352688     3A    -20.352666
       4A    -20.340010     5A    -11.108757     6A    -11.096373
       7A     -8.967543     8A     -6.652521     9A     -6.652087
      10A     -6.651399    11A     -1.239236    12A     -1.122292
      13A     -1.044475    14A     -0.912279    15A     -0.749818
      16A     -0.616915    17A     -0.498626    18A     -0.495737
      19A     -0.452751    20A     -0.441615    21A     -0.411062
      22A     -0.388566    23A     -0.369682    24A     -0.310675
      25A     -0.304934    26A     -0.281541    27A     -0.255143
      28A     -0.244298    29A     -0.236655

  @DF-RHF Final Energy:  -700.87963073840547

   => Energetics <=

    Nuclear Repulsion Energy =            338.3456869243066762
    One-Electron Energy =               -1649.3391036536690990
    Two-Electron Energy =                 610.1137859909570125
    Total Energy =                       -700.8796307384054671
  Basis Set: (AUG-CC-PVTZ AUX)
    Blend: AUG-CC-PVTZ-RI
    Molecular point group: c1

    Geometry (in Angstrom), charge = -1, multiplicity = 1:

       Center              X                  Y                   Z               Mass
    ------------   -----------------  -----------------  -----------------  -----------------
         S            0.432846995064    -0.059479662226     0.000000028272    31.972071174400
         O            0.380146995064    -0.867533662226    -1.251287971728    15.994914619570
         O            1.607796195064     1.153030837774    -0.000006771728    15.994914619570
         O            0.380139995064    -0.867508662226     1.251304028272    15.994914619570
         C           -1.130879004936     0.850325337774    -0.000010971728    12.000000000000
         C           -2.330063004936    -0.084484662226     0.000001028272    12.000000000000
         H           -1.121583004936     1.491528337774     0.886783028272     1.007825032230
         H           -1.121581004936     1.491502337774    -0.886824971728     1.007825032230
         H           -3.275208004936     0.471703337774    -0.000009971728     1.007825032230
         H           -2.293772004936    -0.724813662226    -0.884235971728     1.007825032230
         H           -2.293776004936    -0.724786662226     0.884258028272     1.007825032230

  Basis Set: AUG-CC-PVTZ
    Blend: AUG-CC-PVTZ
  Basis Set: (AUG-CC-PVTZ AUX)
    Blend: AUG-CC-PVTZ-JKFIT
	 Reference Energy          =    -700.8796307384054671 [Eh]
	 Singles Energy            =      -0.0000000000000000 [Eh]
	 Same-Spin Energy          =      -0.3632969874697688 [Eh]
	 Opposite-Spin Energy      =      -1.0714767308861517 [Eh]
	 Correlation Energy        =      -1.4347737183559204 [Eh]
	 Total Energy              =    -702.3144044567613946 [Eh]

	 ================> DF-SCS-MP2 Energies <==================
	-----------------------------------------------------------
	 SCS Same-Spin Scale       =       0.3333333333333333 [-]
	 SCS Opposite-Spin Scale   =       1.2000000000000000 [-]
	 SCS Same-Spin Energy      =      -0.1210989958232563 [Eh]
	 SCS Opposite-Spin Energy  =      -1.2857720770633820 [Eh]
	 SCS Correlation Energy    =      -1.4068710728866383 [Eh]
	 SCS Total Energy          =    -702.2865018112920552 [Eh]
	-----------------------------------------------------------

  Dipole Moment: [D]
     X:    -5.5083      Y:     0.7475      Z:    -0.0000     Total:     5.5588

*** Psi4 exiting successfully. Buy a developer a beer!
