                               Psi4 1.3.2 release

  ==> Input File <==

--------------------------------------------------------------------------
#psi4
#
memory 32 gb

molecule  {
-1 1
  S        0.5997796     0.0545643    -0.0000014
  O        0.4874240    -0.8647860    -1.2512880
  O        1.5758940     1.0121500    -0.0000060
  O        0.4874170    -0.8647610     1.2513040
  C       -1.0236020     0.8530730    -0.0000110
  C       -2.2227860    -0.0817370     0.0000010
  H       -1.0143060     1.4942760     0.8867830
  H       -1.0143040     1.4942500    -0.8868250
  H       -3.1679310     0.4744510    -0.0000100
  H       -2.1864950    -0.7220660    -0.8842360
  H       -2.1864990    -0.7220390     0.8842580
units angstrom
no_reorient  #important for SAPT in psi4, default
symmetry c1  #important for SAPT in psi4, default
}

set PROPERTIES_ORIGIN ["COM"]
properties('MP2/aug-cc-pvtz', properties = ['dipole'])
--------------------------------------------------------------------------

    Molecular point group: c1
  Charge       = -1
  Multiplicity = 1
  Basis Set: AUG-CC-PVTZ
    Blend: AUG-CC-PVTZ
  Basis Set: (AUG-CC-PVTZ AUX)
    Blend: AUG-CC-PVTZ-JKFIT

    Orbital Energies [Eh]
    ---------------------

    Doubly Occupied:

       1A    -91.991211     2A    -20.369033     3A    -20.321907
       4A    -20.321884     5A    -11.098229     6A    -11.086107
       7A     -8.955482     8A     -6.641286     9A     -6.640286
      10A     -6.639477    11A     -1.294769    12A     -1.123572
      13A     -1.063114    14A     -0.900275    15A     -0.742287
      16A     -0.603739    17A     -0.501999    18A     -0.490634
      19A     -0.464803    20A     -0.452043    21A     -0.424877
      22A     -0.377059    23A     -0.360800    24A     -0.323690
      25A     -0.315230    26A     -0.284805    27A     -0.250841
      28A     -0.237240    29A     -0.223490

  @DF-RHF Final Energy:  -700.89326894518570

   => Energetics <=

    Nuclear Repulsion Energy =            346.1479588116609420
    One-Electron Energy =               -1665.0821249488265039
    Two-Electron Energy =                 618.0408971919797523
    Total Energy =                       -700.8932689451856959
  Basis Set: (AUG-CC-PVTZ AUX)
    Blend: AUG-CC-PVTZ-RI
    Molecular point group: c1

    Geometry (in Angstrom), charge = -1, multiplicity = 1:

       Center              X                  Y                   Z               Mass
    ------------   -----------------  -----------------  -----------------  -----------------
         S            0.495427899724     0.040246962533    -0.000001078460    31.972071174400
         O            0.383072299724    -0.879103337467    -1.251287678460    15.994914619570
         O            1.471542299724     0.997832662533    -0.000005678460    15.994914619570
         O            0.383065299724    -0.879078337467     1.251304321540    15.994914619570
         C           -1.127953700276     0.838755662533    -0.000010678460    12.000000000000
         C           -2.327137700276    -0.096054337467     0.000001321540    12.000000000000
         H           -1.118657700276     1.479958662533     0.886783321540     1.007825032230
         H           -1.118655700276     1.479932662533    -0.886824678460     1.007825032230
         H           -3.272282700276     0.460133662533    -0.000009678460     1.007825032230
         H           -2.290846700276    -0.736383337467    -0.884235678460     1.007825032230
         H           -2.290850700276    -0.736356337467     0.884258321540     1.007825032230

  Basis Set: AUG-CC-PVTZ
    Blend: AUG-CC-PVTZ
  Basis Set: (AUG-CC-PVTZ AUX)
    Blend: AUG-CC-PVTZ-JKFIT
	 Reference Energy          =    -700.8932689451856959 [Eh]
	 Singles Energy            =      -0.0000000000000000 [Eh]
	 Same-Spin Energy          =      -0.3606805964740406 [Eh]
	 Opposite-Spin Energy      =      -1.0631065597025617 [Eh]
	 Correlation Energy        =      -1.4237871561766022 [Eh]
	 Total Energy              =    -702.3170561013622546 [Eh]

	 ================> DF-SCS-MP2 Energies <==================
	-----------------------------------------------------------
	 SCS Same-Spin Scale       =       0.3333333333333333 [-]
	 SCS Opposite-Spin Scale   =       1.2000000000000000 [-]
	 SCS Same-Spin Energy      =      -0.1202268654913469 [Eh]
	 SCS Opposite-Spin Energy  =      -1.2757278716430740 [Eh]
	 SCS Correlation Energy    =      -1.3959547371344208 [Eh]
	 SCS Total Energy          =    -702.2892236823200847 [Eh]
	-----------------------------------------------------------

  Dipole Moment: [D]
     X:    -3.7029      Y:     2.9199      Z:    -0.0000     Total:     4.7156

*** Psi4 exiting successfully. Buy a developer a beer!
