                               Psi4 1.3.2 release

  ==> Input File <==

--------------------------------------------------------------------------
#psi4
#
memory 32 gb

molecule  {
-1 1
  S        0.5401240    -0.0567320     0.0000000
  O        0.4874240    -0.8647860    -1.2512880
  O        1.5758940     1.0121500    -0.0000060
  O        0.4874170    -0.8647610     1.2513040
  C       -1.1100368     0.9033624    -0.0000116
  C       -2.2227860    -0.0817370     0.0000010
  H       -1.0143060     1.4942760     0.8867830
  H       -1.0143040     1.4942500    -0.8868250
  H       -3.1679310     0.4744510    -0.0000100
  H       -2.1864950    -0.7220660    -0.8842360
  H       -2.1864990    -0.7220390     0.8842580
units angstrom
no_reorient  #important for SAPT in psi4, default
symmetry c1  #important for SAPT in psi4, default
}

set PROPERTIES_ORIGIN ["COM"]
properties('MP2/aug-cc-pvtz', properties = ['dipole'])
--------------------------------------------------------------------------

    Molecular point group: c1
  Charge       = -1
  Multiplicity = 1
  Basis Set: AUG-CC-PVTZ
    Blend: AUG-CC-PVTZ
  Basis Set: (AUG-CC-PVTZ AUX)
    Blend: AUG-CC-PVTZ-JKFIT

    Orbital Energies [Eh]
    ---------------------

    Doubly Occupied:

       1A    -91.993808     2A    -20.338561     3A    -20.338416
       4A    -20.338391     5A    -11.095235     6A    -11.086284
       7A     -8.955224     8A     -6.640366     9A     -6.640022
      10A     -6.640012    11A     -1.251755    12A     -1.110920
      13A     -1.110261    14A     -0.907106    15A     -0.730327
      16A     -0.602839    17A     -0.495361    18A     -0.492278
      19A     -0.452677    20A     -0.444989    21A     -0.412445
      22A     -0.396470    23A     -0.367896    24A     -0.318261
      25A     -0.317619    26A     -0.275847    27A     -0.275631
      28A     -0.237162    29A     -0.226638

  @DF-RHF Final Energy:  -700.91343704276835

   => Energetics <=

    Nuclear Repulsion Energy =            344.5949137087736744
    One-Electron Energy =               -1662.0310969215759087
    Two-Electron Energy =                 616.5227461700338836
    Total Energy =                       -700.9134370427683507
  Basis Set: (AUG-CC-PVTZ AUX)
    Blend: AUG-CC-PVTZ-RI
    Molecular point group: c1

    Geometry (in Angstrom), charge = -1, multiplicity = 1:

       Center              X                  Y                   Z               Mass
    ------------   -----------------  -----------------  -----------------  -----------------
         S            0.462787348944    -0.043939149512    -0.000000023069    31.972071174400
         O            0.410087348944    -0.851993149512    -1.251288023069    15.994914619570
         O            1.498557348944     1.024942850488    -0.000006023069    15.994914619570
         O            0.410080348944    -0.851968149512     1.251303976931    15.994914619570
         C           -1.187373451056     0.916155250488    -0.000011623069    12.000000000000
         C           -2.300122651056    -0.068944149512     0.000000976931    12.000000000000
         H           -1.091642651056     1.507068850488     0.886782976931     1.007825032230
         H           -1.091640651056     1.507042850488    -0.886825023069     1.007825032230
         H           -3.245267651056     0.487243850488    -0.000010023069     1.007825032230
         H           -2.263831651056    -0.709273149512    -0.884236023069     1.007825032230
         H           -2.263835651056    -0.709246149512     0.884257976931     1.007825032230

  Basis Set: AUG-CC-PVTZ
    Blend: AUG-CC-PVTZ
  Basis Set: (AUG-CC-PVTZ AUX)
    Blend: AUG-CC-PVTZ-JKFIT
	 Reference Energy          =    -700.9134370427683507 [Eh]
	 Singles Energy            =      -0.0000000000000000 [Eh]
	 Same-Spin Energy          =      -0.3614763356765355 [Eh]
	 Opposite-Spin Energy      =      -1.0641066292851309 [Eh]
	 Correlation Energy        =      -1.4255829649616665 [Eh]
	 Total Energy              =    -702.3390200077300278 [Eh]

	 ================> DF-SCS-MP2 Energies <==================
	-----------------------------------------------------------
	 SCS Same-Spin Scale       =       0.3333333333333333 [-]
	 SCS Opposite-Spin Scale   =       1.2000000000000000 [-]
	 SCS Same-Spin Energy      =      -0.1204921118921785 [Eh]
	 SCS Opposite-Spin Energy  =      -1.2769279551421571 [Eh]
	 SCS Correlation Energy    =      -1.3974200670343355 [Eh]
	 SCS Total Energy          =    -702.3108571098026687 [Eh]
	-----------------------------------------------------------

  Dipole Moment: [D]
     X:    -4.3142      Y:     1.5747      Z:    -0.0000     Total:     4.5926

*** Psi4 exiting successfully. Buy a developer a beer!
