                               Psi4 1.4a3.dev225

  ==> Input File <==

--------------------------------------------------------------------------
#psi4
#
memory 32 gb

molecule  {
-1 1
  S       -0.5251900    -0.0446130     0.0000000
  O       -0.5231630    -0.8666190     1.2464430
  O       -1.5550911     1.0077362    -0.0000010
  O       -0.5231620    -0.8666200    -1.2464420
  C        1.0357230     0.8350160     0.0000000
  C        2.2383420    -0.0963210     0.0000000
  H        1.0305470     1.4783680    -0.8845630
  H        1.0305460     1.4783690     0.8845620
  H        3.1657760     0.4824540     0.0000000
  H        2.2275090    -0.7339400     0.8865020
  H        2.2275090    -0.7339410    -0.8865010
units angstrom
no_reorient  #important for SAPT in psi4, default
symmetry c1  #important for SAPT in psi4, default
}

set PROPERTIES_ORIGIN ["COM"]
properties('MP2/aug-cc-pvtz', properties = ['dipole'])
--------------------------------------------------------------------------

    Molecular point group: c1
  Charge       = -1
  Multiplicity = 1
  Basis Set: AUG-CC-PVTZ
    Blend: AUG-CC-PVTZ
  Basis Set: (AUG-CC-PVTZ AUX)
    Blend: AUG-CC-PVTZ-JKFIT

    Orbital Energies [Eh]
    ---------------------

    Doubly Occupied:

       1A    -91.991550     2A    -20.334034     3A    -20.332803
       4A    -20.332780     5A    -11.101118     6A    -11.091868
       7A     -8.953885     8A     -6.639216     9A     -6.638854
      10A     -6.638689    11A     -1.255075    12A     -1.111545
      13A     -1.104567    14A     -0.909097    15A     -0.746027
      16A     -0.603128    17A     -0.497518    18A     -0.492815
      19A     -0.454250    20A     -0.442604    21A     -0.416173
      22A     -0.386386    23A     -0.366366    24A     -0.315965
      25A     -0.315858    26A     -0.271877    27A     -0.269096
      28A     -0.251603    29A     -0.232002

  @DF-RHF Final Energy:  -700.92227317614856

   => Energetics <=

    Nuclear Repulsion Energy =            347.0203902614658205
    One-Electron Energy =               -1666.8918322451331733
    Two-Electron Energy =                 618.9491688075188449
    Total Energy =                       -700.9222731761485647
  Basis Set: (AUG-CC-PVTZ AUX)
    Blend: AUG-CC-PVTZ-RI
    Molecular point group: c1

    Geometry (in Angstrom), charge = -1, multiplicity = 1:

       Center              X                  Y                   Z               Mass
    ------------   -----------------  -----------------  -----------------  -----------------
         S           -0.439366506253    -0.024615468116    -0.000000000000    31.972071174400
         O           -0.437339506253    -0.846621468116     1.246443000000    15.994914619570
         O           -1.469267606253     1.027733731884    -0.000001000000    15.994914619570
         O           -0.437338506253    -0.846622468116    -1.246442000000    15.994914619570
         C            1.121546493747     0.855013531884    -0.000000000000    12.000000000000
         C            2.324165493747    -0.076323468116    -0.000000000000    12.000000000000
         H            1.116370493747     1.498365531884    -0.884563000000     1.007825032230
         H            1.116369493747     1.498366531884     0.884562000000     1.007825032230
         H            3.251599493747     0.502451531884    -0.000000000000     1.007825032230
         H            2.313332493747    -0.713942468116     0.886502000000     1.007825032230
         H            2.313332493747    -0.713943468116    -0.886501000000     1.007825032230

  Basis Set: AUG-CC-PVTZ
    Blend: AUG-CC-PVTZ
  Basis Set: (AUG-CC-PVTZ AUX)
    Blend: AUG-CC-PVTZ-JKFIT
	 Reference Energy          =    -700.9222731761485647 [Eh]
	 Singles Energy            =      -0.0000000000000000 [Eh]
	 Same-Spin Energy          =      -0.3603026191934106 [Eh]
	 Opposite-Spin Energy      =      -1.0614196024772702 [Eh]
	 Correlation Energy        =      -1.4217222216706809 [Eh]
	 Total Energy              =    -702.3439953978192989 [Eh]

	 ================> DF-SCS-MP2 Energies <==================
	-----------------------------------------------------------
	 SCS Same-Spin Scale       =       0.3333333333333333 [-]
	 SCS Opposite-Spin Scale   =       1.2000000000000000 [-]
	 SCS Same-Spin Energy      =      -0.1201008730644702 [Eh]
	 SCS Opposite-Spin Energy  =      -1.2737035229727243 [Eh]
	 SCS Correlation Energy    =      -1.3938043960371944 [Eh]
	 SCS Total Energy          =    -702.3160775721858045 [Eh]
	-----------------------------------------------------------

  Dipole Moment: [D]
     X:     4.6844      Y:     1.8258      Z:    -0.0000     Total:     5.0276

*** Psi4 exiting successfully. Buy a developer a beer!
