                               Psi4 1.3.2 release

  ==> Input File <==

--------------------------------------------------------------------------
#psi4
#
memory 32 gb

molecule  {
-1 1
  S        0.5401240    -0.0567320     0.0000000
  O        0.4874240    -0.8647860    -1.2512880
  O        1.5943908     0.9939105    -0.0000058
  O        0.4874170    -0.8647610     1.2513040
  C       -1.0236020     0.8530730    -0.0000110
  C       -2.2227860    -0.0817370     0.0000010
  H       -1.0143060     1.4942760     0.8867830
  H       -1.0143040     1.4942500    -0.8868250
  H       -3.1679310     0.4744510    -0.0000100
  H       -2.1864950    -0.7220660    -0.8842360
  H       -2.1864990    -0.7220390     0.8842580
units angstrom
no_reorient  #important for SAPT in psi4, default
symmetry c1  #important for SAPT in psi4, default
}

set PROPERTIES_ORIGIN ["COM"]
properties('MP2/aug-cc-pvtz', properties = ['dipole'])
--------------------------------------------------------------------------

    Molecular point group: c1
  Charge       = -1
  Multiplicity = 1
  Basis Set: AUG-CC-PVTZ
    Blend: AUG-CC-PVTZ
  Basis Set: (AUG-CC-PVTZ AUX)
    Blend: AUG-CC-PVTZ-JKFIT

    Orbital Energies [Eh]
    ---------------------

    Doubly Occupied:

       1A    -91.994756     2A    -20.337358     3A    -20.336641
       4A    -20.336617     5A    -11.098467     6A    -11.089000
       7A     -8.956580     8A     -6.641923     9A     -6.641449
      10A     -6.641423    11A     -1.253873    12A     -1.110312
      13A     -1.109977    14A     -0.904402    15A     -0.739959
      16A     -0.603618    17A     -0.497259    18A     -0.489510
      19A     -0.454493    20A     -0.443893    21A     -0.415069
      22A     -0.382389    23A     -0.362782    24A     -0.317845
      25A     -0.317199    26A     -0.273727    27A     -0.273431
      28A     -0.247586    29A     -0.235792

  @DF-RHF Final Energy:  -700.92090432531745

   => Energetics <=

    Nuclear Repulsion Energy =            346.4357427666633953
    One-Electron Energy =               -1665.6986284511522172
    Two-Electron Energy =                 618.3419813591713137
    Total Energy =                       -700.9209043253174514
  Basis Set: (AUG-CC-PVTZ AUX)
    Blend: AUG-CC-PVTZ-RI
    Molecular point group: c1

    Geometry (in Angstrom), charge = -1, multiplicity = 1:

       Center              X                  Y                   Z               Mass
    ------------   -----------------  -----------------  -----------------  -----------------
         S            0.450556871970    -0.035725889058    -0.000000118476    31.972071174400
         O            0.397856871970    -0.843779889058    -1.251288118476    15.994914619570
         O            1.504823671970     1.014916610942    -0.000005918476    15.994914619570
         O            0.397849871970    -0.843754889058     1.251303881524    15.994914619570
         C           -1.113169128030     0.874079110942    -0.000011118476    12.000000000000
         C           -2.312353128030    -0.060730889058     0.000000881524    12.000000000000
         H           -1.103873128030     1.515282110942     0.886782881524     1.007825032230
         H           -1.103871128030     1.515256110942    -0.886825118476     1.007825032230
         H           -3.257498128030     0.495457110942    -0.000010118476     1.007825032230
         H           -2.276062128030    -0.701059889058    -0.884236118476     1.007825032230
         H           -2.276066128030    -0.701032889058     0.884257881524     1.007825032230

  Basis Set: AUG-CC-PVTZ
    Blend: AUG-CC-PVTZ
  Basis Set: (AUG-CC-PVTZ AUX)
    Blend: AUG-CC-PVTZ-JKFIT
	 Reference Energy          =    -700.9209043253174514 [Eh]
	 Singles Energy            =      -0.0000000000000000 [Eh]
	 Same-Spin Energy          =      -0.3607738870977525 [Eh]
	 Opposite-Spin Energy      =      -1.0626377965652753 [Eh]
	 Correlation Energy        =      -1.4234116836630277 [Eh]
	 Total Energy              =    -702.3443160089805133 [Eh]

	 ================> DF-SCS-MP2 Energies <==================
	-----------------------------------------------------------
	 SCS Same-Spin Scale       =       0.3333333333333333 [-]
	 SCS Opposite-Spin Scale   =       1.2000000000000000 [-]
	 SCS Same-Spin Energy      =      -0.1202579623659175 [Eh]
	 SCS Opposite-Spin Energy  =      -1.2751653558783305 [Eh]
	 SCS Correlation Energy    =      -1.3954233182442479 [Eh]
	 SCS Total Energy          =    -702.3163276435617490 [Eh]
	-----------------------------------------------------------

  Dipole Moment: [D]
     X:    -4.4713      Y:     1.6912      Z:    -0.0000     Total:     4.7805

*** Psi4 exiting successfully. Buy a developer a beer!
