                               Psi4 1.3.2 release

  ==> Input File <==

--------------------------------------------------------------------------
#psi4
#
memory 32 gb

molecule  {
-1 1
  S        0.6266583     0.1117059    -0.0000021
  O        0.4874240    -0.8647860    -1.2512880
  O        1.5758940     1.0121500    -0.0000060
  O        0.4874170    -0.8647610     1.2513040
  C       -1.0236020     0.8530730    -0.0000110
  C       -2.2227860    -0.0817370     0.0000010
  H       -1.0143060     1.4942760     0.8867830
  H       -1.0143040     1.4942500    -0.8868250
  H       -3.1679310     0.4744510    -0.0000100
  H       -2.1864950    -0.7220660    -0.8842360
  H       -2.1864990    -0.7220390     0.8842580
units angstrom
no_reorient  #important for SAPT in psi4, default
symmetry c1  #important for SAPT in psi4, default
}

set PROPERTIES_ORIGIN ["COM"]
properties('MP2/aug-cc-pvtz', properties = ['dipole'])
--------------------------------------------------------------------------

    Molecular point group: c1
  Charge       = -1
  Multiplicity = 1
  Basis Set: AUG-CC-PVTZ
    Blend: AUG-CC-PVTZ
  Basis Set: (AUG-CC-PVTZ AUX)
    Blend: AUG-CC-PVTZ-JKFIT

    Orbital Energies [Eh]
    ---------------------

    Doubly Occupied:

       1A    -91.986040     2A    -20.383803     3A    -20.314326
       4A    -20.314303     5A    -11.099398     6A    -11.085358
       7A     -8.953831     8A     -6.640383     9A     -6.637946
      10A     -6.637054    11A     -1.338299    12A     -1.109429
      13A     -1.039959    14A     -0.899122    15A     -0.744543
      16A     -0.606598    17A     -0.512173    18A     -0.498250
      19A     -0.476361    20A     -0.463920    21A     -0.428092
      22A     -0.377526    23A     -0.362337    24A     -0.325295
      25A     -0.306596    26A     -0.278809    27A     -0.238872
      28A     -0.228962    29A     -0.211880

  @DF-RHF Final Energy:  -700.85386638709770

   => Energetics <=

    Nuclear Repulsion Energy =            346.1616458959327929
    One-Electron Energy =               -1665.0320936748846634
    Two-Electron Energy =                 618.0165813918542881
    Total Energy =                       -700.8538663870976961
  Basis Set: (AUG-CC-PVTZ AUX)
    Blend: AUG-CC-PVTZ-RI
    Molecular point group: c1

    Geometry (in Angstrom), charge = -1, multiplicity = 1:

       Center              X                  Y                   Z               Mass
    ------------   -----------------  -----------------  -----------------  -----------------
         S            0.514422198635     0.080627063903    -0.000001573128    31.972071174400
         O            0.375187898635    -0.895864836097    -1.251287473128    15.994914619570
         O            1.463657898635     0.981071163903    -0.000005473128    15.994914619570
         O            0.375180898635    -0.895839836097     1.251304526872    15.994914619570
         C           -1.135838101365     0.821994163903    -0.000010473128    12.000000000000
         C           -2.335022101365    -0.112815836097     0.000001526872    12.000000000000
         H           -1.126542101365     1.463197163903     0.886783526872     1.007825032230
         H           -1.126540101365     1.463171163903    -0.886824473128     1.007825032230
         H           -3.280167101365     0.443372163903    -0.000009473128     1.007825032230
         H           -2.298731101365    -0.753144836097    -0.884235473128     1.007825032230
         H           -2.298735101365    -0.753117836097     0.884258526872     1.007825032230

  Basis Set: AUG-CC-PVTZ
    Blend: AUG-CC-PVTZ
  Basis Set: (AUG-CC-PVTZ AUX)
    Blend: AUG-CC-PVTZ-JKFIT
	 Reference Energy          =    -700.8538663870976961 [Eh]
	 Singles Energy            =      -0.0000000000000000 [Eh]
	 Same-Spin Energy          =      -0.3605379130372238 [Eh]
	 Opposite-Spin Energy      =      -1.0635758312897770 [Eh]
	 Correlation Energy        =      -1.4241137443270007 [Eh]
	 Total Energy              =    -702.2779801314246697 [Eh]

	 ================> DF-SCS-MP2 Energies <==================
	-----------------------------------------------------------
	 SCS Same-Spin Scale       =       0.3333333333333333 [-]
	 SCS Opposite-Spin Scale   =       1.2000000000000000 [-]
	 SCS Same-Spin Energy      =      -0.1201793043457413 [Eh]
	 SCS Opposite-Spin Energy  =      -1.2762909975477323 [Eh]
	 SCS Correlation Energy    =      -1.3964703018934737 [Eh]
	 SCS Total Energy          =    -702.2503366889911831 [Eh]
	-----------------------------------------------------------

  Dipole Moment: [D]
     X:    -3.4026      Y:     3.5486      Z:    -0.0001     Total:     4.9163

*** Psi4 exiting successfully. Buy a developer a beer!
