                               Psi4 1.3.2 release

  ==> Input File <==

--------------------------------------------------------------------------
#psi4
#
memory 32 gb

molecule  {
-1 1
  S        0.5401240    -0.0567320     0.0000000
  O        0.4874240    -0.8647860    -1.2512880
  O        1.4367148     0.8685215    -0.0000052
  O        0.4874170    -0.8647610     1.2513040
  C       -1.0236020     0.8530730    -0.0000110
  C       -2.2227860    -0.0817370     0.0000010
  H       -1.0143060     1.4942760     0.8867830
  H       -1.0143040     1.4942500    -0.8868250
  H       -3.1679310     0.4744510    -0.0000100
  H       -2.1864950    -0.7220660    -0.8842360
  H       -2.1864990    -0.7220390     0.8842580
units angstrom
no_reorient  #important for SAPT in psi4, default
symmetry c1  #important for SAPT in psi4, default
}

set PROPERTIES_ORIGIN ["COM"]
properties('MP2/aug-cc-pvtz', properties = ['dipole'])
--------------------------------------------------------------------------

    Molecular point group: c1
  Charge       = -1
  Multiplicity = 1
  Basis Set: AUG-CC-PVTZ
    Blend: AUG-CC-PVTZ
  Basis Set: (AUG-CC-PVTZ AUX)
    Blend: AUG-CC-PVTZ-JKFIT

    Orbital Energies [Eh]
    ---------------------

    Doubly Occupied:

       1A    -91.963967     2A    -20.338653     3A    -20.317537
       4A    -20.317514     5A    -11.081642     6A    -11.078057
       7A     -8.934018     8A     -6.621541     9A     -6.618053
      10A     -6.617505    11A     -1.337852    12A     -1.144658
      13A     -1.095937    14A     -0.892762    15A     -0.728360
      16A     -0.590164    17A     -0.511478    18A     -0.492650
      19A     -0.470362    20A     -0.460025    21A     -0.421984
      22A     -0.372443    23A     -0.353902    24A     -0.331664
      25A     -0.328951    26A     -0.289348    27A     -0.262152
      28A     -0.237827    29A     -0.228706

  @DF-RHF Final Energy:  -700.88380987215965

   => Energetics <=

    Nuclear Repulsion Energy =            356.5653877993641458
    One-Electron Energy =               -1686.0189691141370076
    Two-Electron Energy =                 628.5697714426132734
    Total Energy =                       -700.8838098721596452
  Basis Set: (AUG-CC-PVTZ AUX)
    Blend: AUG-CC-PVTZ-RI
    Molecular point group: c1

    Geometry (in Angstrom), charge = -1, multiplicity = 1:

       Center              X                  Y                   Z               Mass
    ------------   -----------------  -----------------  -----------------  -----------------
         S            0.473695478354    -0.017325328949    -0.000000206524    31.972071174400
         O            0.420995478354    -0.825379328949    -1.251288206524    15.994914619570
         O            1.370286278354     0.907928171051    -0.000005406524    15.994914619570
         O            0.420988478354    -0.825354328949     1.251303793476    15.994914619570
         C           -1.090030521646     0.892479671051    -0.000011206524    12.000000000000
         C           -2.289214521646    -0.042330328949     0.000000793476    12.000000000000
         H           -1.080734521646     1.533682671051     0.886782793476     1.007825032230
         H           -1.080732521646     1.533656671051    -0.886825206524     1.007825032230
         H           -3.234359521646     0.513857671051    -0.000010206524     1.007825032230
         H           -2.252923521646    -0.682659328949    -0.884236206524     1.007825032230
         H           -2.252927521646    -0.682632328949     0.884257793476     1.007825032230

  Basis Set: AUG-CC-PVTZ
    Blend: AUG-CC-PVTZ
  Basis Set: (AUG-CC-PVTZ AUX)
    Blend: AUG-CC-PVTZ-JKFIT
	 Reference Energy          =    -700.8838098721596452 [Eh]
	 Singles Energy            =      -0.0000000000000000 [Eh]
	 Same-Spin Energy          =      -0.3566632629562153 [Eh]
	 Opposite-Spin Energy      =      -1.0522648570569386 [Eh]
	 Correlation Energy        =      -1.4089281200131538 [Eh]
	 Total Energy              =    -702.2927379921727606 [Eh]

	 ================> DF-SCS-MP2 Energies <==================
	-----------------------------------------------------------
	 SCS Same-Spin Scale       =       0.3333333333333333 [-]
	 SCS Opposite-Spin Scale   =       1.2000000000000000 [-]
	 SCS Same-Spin Energy      =      -0.1188877543187384 [Eh]
	 SCS Opposite-Spin Energy  =      -1.2627178284683263 [Eh]
	 SCS Correlation Energy    =      -1.3816055827870646 [Eh]
	 SCS Total Energy          =    -702.2654154549467194 [Eh]
	-----------------------------------------------------------

  Dipole Moment: [D]
     X:    -3.3302      Y:     2.5253      Z:    -0.0000     Total:     4.1794

*** Psi4 exiting successfully. Buy a developer a beer!
