                               Psi4 1.3.2 release

  ==> Input File <==

--------------------------------------------------------------------------
#psi4
#
memory 32 gb

molecule  {
-1 1
  S        0.5557641    -0.0293027    -0.0000003
  O        0.4874240    -0.8647860    -1.2512880
  O        1.5758940     1.0121500    -0.0000060
  O        0.4874170    -0.8647610     1.2513040
  C       -1.0236020     0.8530730    -0.0000110
  C       -2.2227860    -0.0817370     0.0000010
  H       -1.0143060     1.4942760     0.8867830
  H       -1.0143040     1.4942500    -0.8868250
  H       -3.1679310     0.4744510    -0.0000100
  H       -2.1864950    -0.7220660    -0.8842360
  H       -2.1864990    -0.7220390     0.8842580
units angstrom
no_reorient  #important for SAPT in psi4, default
symmetry c1  #important for SAPT in psi4, default
}

set PROPERTIES_ORIGIN ["COM"]
properties('MP2/aug-cc-pvtz', properties = ['dipole'])
--------------------------------------------------------------------------

    Molecular point group: c1
  Charge       = -1
  Multiplicity = 1
  Basis Set: AUG-CC-PVTZ
    Blend: AUG-CC-PVTZ
  Basis Set: (AUG-CC-PVTZ AUX)
    Blend: AUG-CC-PVTZ-JKFIT

    Orbital Energies [Eh]
    ---------------------

    Doubly Occupied:

       1A    -91.994867     2A    -20.345604     3A    -20.333593
       4A    -20.333570     5A    -11.097231     6A    -11.087619
       7A     -8.956795     8A     -6.642129     9A     -6.641807
      10A     -6.641490    11A     -1.256608    12A     -1.121188
      13A     -1.098745    14A     -0.902554    15A     -0.739676
      16A     -0.603067    17A     -0.496578    18A     -0.488675
      19A     -0.455946    20A     -0.443526    21A     -0.417020
      22A     -0.380288    23A     -0.361032    24A     -0.318973
      25A     -0.318099    26A     -0.279704    27A     -0.268394
      28A     -0.245971    29A     -0.235614

  @DF-RHF Final Energy:  -700.91921886406635

   => Energetics <=

    Nuclear Repulsion Energy =            346.3685693803472532
    One-Electron Energy =               -1665.5628459448762442
    Two-Electron Energy =                 618.2750577004626393
    Total Energy =                       -700.9192188640663517
  Basis Set: (AUG-CC-PVTZ AUX)
    Blend: AUG-CC-PVTZ-RI
    Molecular point group: c1

    Geometry (in Angstrom), charge = -1, multiplicity = 1:

       Center              X                  Y                   Z               Mass
    ------------   -----------------  -----------------  -----------------  -----------------
         S            0.464323584271    -0.019019105649    -0.000000301126    31.972071174400
         O            0.395983484271    -0.854502405649    -1.251288001126    15.994914619570
         O            1.484453484271     1.022433594351    -0.000006001126    15.994914619570
         O            0.395976484271    -0.854477405649     1.251303998874    15.994914619570
         C           -1.115042515729     0.863356594351    -0.000011001126    12.000000000000
         C           -2.314226515729    -0.071453405649     0.000000998874    12.000000000000
         H           -1.105746515729     1.504559594351     0.886782998874     1.007825032230
         H           -1.105744515729     1.504533594351    -0.886825001126     1.007825032230
         H           -3.259371515729     0.484734594351    -0.000010001126     1.007825032230
         H           -2.277935515729    -0.711782405649    -0.884236001126     1.007825032230
         H           -2.277939515729    -0.711755405649     0.884257998874     1.007825032230

  Basis Set: AUG-CC-PVTZ
    Blend: AUG-CC-PVTZ
  Basis Set: (AUG-CC-PVTZ AUX)
    Blend: AUG-CC-PVTZ-JKFIT
	 Reference Energy          =    -700.9192188640663517 [Eh]
	 Singles Energy            =      -0.0000000000000000 [Eh]
	 Same-Spin Energy          =      -0.3608106422102079 [Eh]
	 Opposite-Spin Energy      =      -1.0627658224645851 [Eh]
	 Correlation Energy        =      -1.4235764646747930 [Eh]
	 Total Energy              =    -702.3427953287410901 [Eh]

	 ================> DF-SCS-MP2 Energies <==================
	-----------------------------------------------------------
	 SCS Same-Spin Scale       =       0.3333333333333333 [-]
	 SCS Opposite-Spin Scale   =       1.2000000000000000 [-]
	 SCS Same-Spin Energy      =      -0.1202702140700693 [Eh]
	 SCS Opposite-Spin Energy  =      -1.2753189869575021 [Eh]
	 SCS Correlation Energy    =      -1.3955892010275714 [Eh]
	 SCS Total Energy          =    -702.3148080650938709 [Eh]
	-----------------------------------------------------------

  Dipole Moment: [D]
     X:    -4.2249      Y:     1.9692      Z:    -0.0000     Total:     4.6613

*** Psi4 exiting successfully. Buy a developer a beer!
