                               Psi4 1.3.2 release

  ==> Input File <==

--------------------------------------------------------------------------
#psi4
#
memory 32 gb

molecule  {
-1 1
  S        0.5401240    -0.0567320     0.0000000
  O        0.4874240    -0.8647860    -1.2512880
  O        1.5570817     1.0300639    -0.0000062
  O        0.4874170    -0.8647610     1.2513040
  C       -1.0236020     0.8530730    -0.0000110
  C       -2.2227860    -0.0817370     0.0000010
  H       -1.0143060     1.4942760     0.8867830
  H       -1.0143040     1.4942500    -0.8868250
  H       -3.1679310     0.4744510    -0.0000100
  H       -2.1864950    -0.7220660    -0.8842360
  H       -2.1864990    -0.7220390     0.8842580
units angstrom
no_reorient  #important for SAPT in psi4, default
symmetry c1  #important for SAPT in psi4, default
}

set PROPERTIES_ORIGIN ["COM"]
properties('MP2/aug-cc-pvtz', properties = ['dipole'])
--------------------------------------------------------------------------

    Molecular point group: c1
  Charge       = -1
  Multiplicity = 1
  Basis Set: AUG-CC-PVTZ
    Blend: AUG-CC-PVTZ
  Basis Set: (AUG-CC-PVTZ AUX)
    Blend: AUG-CC-PVTZ-JKFIT

    Orbital Energies [Eh]
    ---------------------

    Doubly Occupied:

       1A    -91.995327     2A    -20.338366     3A    -20.338343
       4A    -20.337930     5A    -11.095712     6A    -11.087409
       7A     -8.957100     8A     -6.642451     9A     -6.641959
      10A     -6.641952    11A     -1.254541    12A     -1.112178
      13A     -1.111257    14A     -0.902478    15A     -0.737990
      16A     -0.603639    17A     -0.496970    18A     -0.488395
      19A     -0.455179    20A     -0.444242    21A     -0.414405
      22A     -0.381188    23A     -0.361294    24A     -0.318823
      25A     -0.318345    26A     -0.275237    27A     -0.274805
      28A     -0.245706    29A     -0.237540

  @DF-RHF Final Energy:  -700.92038464177369

   => Energetics <=

    Nuclear Repulsion Energy =            346.5512461741265611
    One-Electron Energy =               -1665.9217380356872127
    Two-Electron Energy =                 618.4501072197869007
    Total Energy =                       -700.9203846417736941
  Basis Set: (AUG-CC-PVTZ AUX)
    Blend: AUG-CC-PVTZ-RI
    Molecular point group: c1

    Geometry (in Angstrom), charge = -1, multiplicity = 1:

       Center              X                  Y                   Z               Mass
    ------------   -----------------  -----------------  -----------------  -----------------
         S            0.456031900379    -0.041031321033    -0.000000059777    31.972071174400
         O            0.403331900379    -0.849085321033    -1.251288059777    15.994914619570
         O            1.472989600379     1.045764578967    -0.000006259777    15.994914619570
         O            0.403324900379    -0.849060321033     1.251303940223    15.994914619570
         C           -1.107694099621     0.868773678967    -0.000011059777    12.000000000000
         C           -2.306878099621    -0.066036321033     0.000000940223    12.000000000000
         H           -1.098398099621     1.509976678967     0.886782940223     1.007825032230
         H           -1.098396099621     1.509950678967    -0.886825059777     1.007825032230
         H           -3.252023099621     0.490151678967    -0.000010059777     1.007825032230
         H           -2.270587099621    -0.706365321033    -0.884236059777     1.007825032230
         H           -2.270591099621    -0.706338321033     0.884257940223     1.007825032230

  Basis Set: AUG-CC-PVTZ
    Blend: AUG-CC-PVTZ
  Basis Set: (AUG-CC-PVTZ AUX)
    Blend: AUG-CC-PVTZ-JKFIT
	 Reference Energy          =    -700.9203846417736941 [Eh]
	 Singles Energy            =      -0.0000000000000000 [Eh]
	 Same-Spin Energy          =      -0.3608828288916807 [Eh]
	 Opposite-Spin Energy      =      -1.0628772987091111 [Eh]
	 Correlation Energy        =      -1.4237601276007918 [Eh]
	 Total Energy              =    -702.3441447693744522 [Eh]

	 ================> DF-SCS-MP2 Energies <==================
	-----------------------------------------------------------
	 SCS Same-Spin Scale       =       0.3333333333333333 [-]
	 SCS Opposite-Spin Scale   =       1.2000000000000000 [-]
	 SCS Same-Spin Energy      =      -0.1202942762972269 [Eh]
	 SCS Opposite-Spin Energy  =      -1.2754527584509332 [Eh]
	 SCS Correlation Energy    =      -1.3957470347481600 [Eh]
	 SCS Total Energy          =    -702.3161316765218771 [Eh]
	-----------------------------------------------------------

  Dipole Moment: [D]
     X:    -4.3633      Y:     1.6123      Z:    -0.0000     Total:     4.6517

*** Psi4 exiting successfully. Buy a developer a beer!
