                               Psi4 1.3.2 release

  ==> Input File <==

--------------------------------------------------------------------------
#psi4
#
memory 32 gb

molecule  {
-1 1
  S        0.5701525     0.0036414    -0.1067661
  O        0.4874240    -0.8647860    -1.2512880
  O        1.5758940     1.0121500    -0.0000060
  O        0.4874170    -0.8647610     1.2513040
  C       -1.0236020     0.8530730    -0.0000110
  C       -2.2227860    -0.0817370     0.0000010
  H       -1.0143060     1.4942760     0.8867830
  H       -1.0143040     1.4942500    -0.8868250
  H       -3.1679310     0.4744510    -0.0000100
  H       -2.1864950    -0.7220660    -0.8842360
  H       -2.1864990    -0.7220390     0.8842580
units angstrom
no_reorient  #important for SAPT in psi4, default
symmetry c1  #important for SAPT in psi4, default
}

set PROPERTIES_ORIGIN ["COM"]
properties('MP2/aug-cc-pvtz', properties = ['dipole'])
--------------------------------------------------------------------------

    Molecular point group: c1
  Charge       = -1
  Multiplicity = 1
  Basis Set: AUG-CC-PVTZ
    Blend: AUG-CC-PVTZ
  Basis Set: (AUG-CC-PVTZ AUX)
    Blend: AUG-CC-PVTZ-JKFIT

    Orbital Energies [Eh]
    ---------------------

    Doubly Occupied:

       1A    -91.992295     2A    -20.354388     3A    -20.352062
       4A    -20.306601     5A    -11.098146     6A    -11.087231
       7A     -8.955783     8A     -6.641129     9A     -6.640900
      10A     -6.640102    11A     -1.274752    12A     -1.156943
      13A     -1.048492    14A     -0.901794    15A     -0.741067
      16A     -0.604188    17A     -0.501932    18A     -0.488580
      19A     -0.464712    20A     -0.445977    21A     -0.421460
      22A     -0.380779    23A     -0.360752    24A     -0.328326
      25A     -0.316100    26A     -0.298551    27A     -0.252088
      28A     -0.228645    29A     -0.221506

  @DF-RHF Final Energy:  -700.89965245770611

   => Energetics <=

    Nuclear Repulsion Energy =            346.2848801574964455
    One-Electron Energy =               -1665.3585007563483487
    Two-Electron Energy =                 618.1739681411457923
    Total Energy =                       -700.8996524577061109
  Basis Set: (AUG-CC-PVTZ AUX)
    Blend: AUG-CC-PVTZ-RI
    Molecular point group: c1

    Geometry (in Angstrom), charge = -1, multiplicity = 1:

       Center              X                  Y                   Z               Mass
    ------------   -----------------  -----------------  -----------------  -----------------
         S            0.474491396348     0.004261413230    -0.075448202950    31.972071174400
         O            0.391762896348    -0.864165986770    -1.219970102950    15.994914619570
         O            1.480232896348     1.012770013230     0.031311897050    15.994914619570
         O            0.391755896348    -0.864140986770     1.282621897050    15.994914619570
         C           -1.119263103652     0.853693013230     0.031306897050    12.000000000000
         C           -2.318447103652    -0.081116986770     0.031318897050    12.000000000000
         H           -1.109967103652     1.494896013230     0.918100897050     1.007825032230
         H           -1.109965103652     1.494870013230    -0.855507102950     1.007825032230
         H           -3.263592103652     0.475071013230     0.031307897050     1.007825032230
         H           -2.282156103652    -0.721445986770    -0.852918102950     1.007825032230
         H           -2.282160103652    -0.721418986770     0.915575897050     1.007825032230

  Basis Set: AUG-CC-PVTZ
    Blend: AUG-CC-PVTZ
  Basis Set: (AUG-CC-PVTZ AUX)
    Blend: AUG-CC-PVTZ-JKFIT
	 Reference Energy          =    -700.8996524577061109 [Eh]
	 Singles Energy            =      -0.0000000000000000 [Eh]
	 Same-Spin Energy          =      -0.3608114596984103 [Eh]
	 Opposite-Spin Energy      =      -1.0633573919056372 [Eh]
	 Correlation Energy        =      -1.4241688516040476 [Eh]
	 Total Energy              =    -702.3238213093101194 [Eh]

	 ================> DF-SCS-MP2 Energies <==================
	-----------------------------------------------------------
	 SCS Same-Spin Scale       =       0.3333333333333333 [-]
	 SCS Opposite-Spin Scale   =       1.2000000000000000 [-]
	 SCS Same-Spin Energy      =      -0.1202704865661368 [Eh]
	 SCS Opposite-Spin Energy  =      -1.2760288702867646 [Eh]
	 SCS Correlation Energy    =      -1.3962993568529014 [Eh]
	 SCS Total Energy          =    -702.2959518145589755 [Eh]
	-----------------------------------------------------------

  Dipole Moment: [D]
     X:    -4.0474      Y:     2.3624      Z:    -1.2693     Total:     4.8552

*** Psi4 exiting successfully. Buy a developer a beer!
