                               Psi4 1.3.2 release

  ==> Input File <==

--------------------------------------------------------------------------
#psi4
#
memory 32 gb

molecule  {
-1 1
  S        0.5401240    -0.0567320     0.0000000
  O        0.4874240    -0.8647860    -1.2512880
  O        1.5829472     1.0049998     0.0239510
  O        0.4874170    -0.8647610     1.2513040
  C       -1.0236020     0.8530730    -0.0000110
  C       -2.2227860    -0.0817370     0.0000010
  H       -1.0143060     1.4942760     0.8867830
  H       -1.0143040     1.4942500    -0.8868250
  H       -3.1679310     0.4744510    -0.0000100
  H       -2.1864950    -0.7220660    -0.8842360
  H       -2.1864990    -0.7220390     0.8842580
units angstrom
no_reorient  #important for SAPT in psi4, default
symmetry c1  #important for SAPT in psi4, default
}

set PROPERTIES_ORIGIN ["COM"]
properties('MP2/aug-cc-pvtz', properties = ['dipole'])
--------------------------------------------------------------------------

    Molecular point group: c1
  Charge       = -1
  Multiplicity = 1
  Basis Set: AUG-CC-PVTZ
    Blend: AUG-CC-PVTZ
  Basis Set: (AUG-CC-PVTZ AUX)
    Blend: AUG-CC-PVTZ-JKFIT

    Orbital Energies [Eh]
    ---------------------

    Doubly Occupied:

       1A    -91.994928     2A    -20.338561     3A    -20.337527
       4A    -20.335739     5A    -11.097630     6A    -11.088519
       7A     -8.956737     8A     -6.642082     9A     -6.641616
      10A     -6.641570    11A     -1.254078    12A     -1.112051
      13A     -1.109179    14A     -0.903820    15A     -0.739363
      16A     -0.603621    17A     -0.497175    18A     -0.489164
      19A     -0.454709    20A     -0.443992    21A     -0.414865
      22A     -0.382022    23A     -0.362328    24A     -0.318408
      25A     -0.317301    26A     -0.274972    27A     -0.273065
      28A     -0.247028    29A     -0.236276

  @DF-RHF Final Energy:  -700.92073363112638

   => Energetics <=

    Nuclear Repulsion Energy =            346.4710906814882492
    One-Electron Energy =               -1665.7669931248831290
    Two-Electron Energy =                 618.3751688122684982
    Total Energy =                       -700.9207336311263816
  Basis Set: (AUG-CC-PVTZ AUX)
    Blend: AUG-CC-PVTZ-RI
    Molecular point group: c1

    Geometry (in Angstrom), charge = -1, multiplicity = 1:

       Center              X                  Y                   Z               Mass
    ------------   -----------------  -----------------  -----------------  -----------------
         S            0.452236195114    -0.037353219456    -0.003515726212    31.972071174400
         O            0.399536195114    -0.845407219456    -1.254803726212    15.994914619570
         O            1.495059395114     1.024378580544     0.020435273788    15.994914619570
         O            0.399529195114    -0.845382219456     1.247788273788    15.994914619570
         C           -1.111489804886     0.872451780544    -0.003526726212    12.000000000000
         C           -2.310673804886    -0.062358219456    -0.003514726212    12.000000000000
         H           -1.102193804886     1.513654780544     0.883267273788     1.007825032230
         H           -1.102191804886     1.513628780544    -0.890340726212     1.007825032230
         H           -3.255818804886     0.493829780544    -0.003525726212     1.007825032230
         H           -2.274382804886    -0.702687219456    -0.887751726212     1.007825032230
         H           -2.274386804886    -0.702660219456     0.880742273788     1.007825032230

  Basis Set: AUG-CC-PVTZ
    Blend: AUG-CC-PVTZ
  Basis Set: (AUG-CC-PVTZ AUX)
    Blend: AUG-CC-PVTZ-JKFIT
	 Reference Energy          =    -700.9207336311263816 [Eh]
	 Singles Energy            =      -0.0000000000000000 [Eh]
	 Same-Spin Energy          =      -0.3608074218500286 [Eh]
	 Opposite-Spin Energy      =      -1.0627113390697065 [Eh]
	 Correlation Energy        =      -1.4235187609197351 [Eh]
	 Total Energy              =    -702.3442523920460872 [Eh]

	 ================> DF-SCS-MP2 Energies <==================
	-----------------------------------------------------------
	 SCS Same-Spin Scale       =       0.3333333333333333 [-]
	 SCS Opposite-Spin Scale   =       1.2000000000000000 [-]
	 SCS Same-Spin Energy      =      -0.1202691406166762 [Eh]
	 SCS Opposite-Spin Energy  =      -1.2752536068836478 [Eh]
	 SCS Correlation Energy    =      -1.3955227475003240 [Eh]
	 SCS Total Energy          =    -702.3162563786266901 [Eh]
	-----------------------------------------------------------

  Dipole Moment: [D]
     X:    -4.4384      Y:     1.6671      Z:    -0.0548     Total:     4.7415

*** Psi4 exiting successfully. Buy a developer a beer!
