                               Psi4 1.3.2 release

  ==> Input File <==

--------------------------------------------------------------------------
#psi4
#
memory 32 gb

molecule  {
-1 1
  S        0.5401240    -0.0567320     0.0000000
  O        0.4874240    -0.8647860    -1.2512880
  O        1.5063044     0.9403357    -0.0000056
  O        0.4874170    -0.8647610     1.2513040
  C       -1.0236020     0.8530730    -0.0000110
  C       -2.2227860    -0.0817370     0.0000010
  H       -1.0143060     1.4942760     0.8867830
  H       -1.0143040     1.4942500    -0.8868250
  H       -3.1679310     0.4744510    -0.0000100
  H       -2.1864950    -0.7220660    -0.8842360
  H       -2.1864990    -0.7220390     0.8842580
units angstrom
no_reorient  #important for SAPT in psi4, default
symmetry c1  #important for SAPT in psi4, default
}

set PROPERTIES_ORIGIN ["COM"]
properties('MP2/aug-cc-pvtz', properties = ['dipole'])
--------------------------------------------------------------------------

    Molecular point group: c1
  Charge       = -1
  Multiplicity = 1
  Basis Set: AUG-CC-PVTZ
    Blend: AUG-CC-PVTZ
  Basis Set: (AUG-CC-PVTZ AUX)
    Blend: AUG-CC-PVTZ-JKFIT

    Orbital Energies [Eh]
    ---------------------

    Doubly Occupied:

       1A    -91.982265     2A    -20.338222     3A    -20.327814
       4A    -20.327791     5A    -11.089645     6A    -11.083228
       7A     -8.946549     8A     -6.632405     9A     -6.631583
      10A     -6.631084    11A     -1.284701    12A     -1.135415
      13A     -1.103334    14A     -0.898140    15A     -0.733326
      16A     -0.596496    17A     -0.500732    18A     -0.486834
      19A     -0.460561    20A     -0.450744    21A     -0.418488
      22A     -0.377255    23A     -0.357727    24A     -0.325611
      25A     -0.324240    26A     -0.283669    27A     -0.268568
      28A     -0.243242    29A     -0.233732

  @DF-RHF Final Energy:  -700.91968656543486

   => Energetics <=

    Nuclear Repulsion Energy =            351.2411635091873450
    One-Electron Energy =               -1675.3748993704205077
    Two-Electron Energy =                 623.2140492957983042
    Total Energy =                       -700.9196865654348585
  Basis Set: (AUG-CC-PVTZ AUX)
    Blend: AUG-CC-PVTZ-RI
    Molecular point group: c1

    Geometry (in Angstrom), charge = -1, multiplicity = 1:

       Center              X                  Y                   Z               Mass
    ------------   -----------------  -----------------  -----------------  -----------------
         S            0.463483357532    -0.027863904931    -0.000000147825    31.972071174400
         O            0.410783357532    -0.835917904931    -1.251288147825    15.994914619570
         O            1.429663757532     0.969203795069    -0.000005747825    15.994914619570
         O            0.410776357532    -0.835892904931     1.251303852175    15.994914619570
         C           -1.100242642468     0.881941095069    -0.000011147825    12.000000000000
         C           -2.299426642468    -0.052868904931     0.000000852175    12.000000000000
         H           -1.090946642468     1.523144095069     0.886782852175     1.007825032230
         H           -1.090944642468     1.523118095069    -0.886825147825     1.007825032230
         H           -3.244571642468     0.503319095069    -0.000010147825     1.007825032230
         H           -2.263135642468    -0.693197904931    -0.884236147825     1.007825032230
         H           -2.263139642468    -0.693170904931     0.884257852175     1.007825032230

  Basis Set: AUG-CC-PVTZ
    Blend: AUG-CC-PVTZ
  Basis Set: (AUG-CC-PVTZ AUX)
    Blend: AUG-CC-PVTZ-JKFIT
	 Reference Energy          =    -700.9196865654348585 [Eh]
	 Singles Energy            =      -0.0000000000000000 [Eh]
	 Same-Spin Energy          =      -0.3588132043712430 [Eh]
	 Opposite-Spin Energy      =      -1.0575065224175781 [Eh]
	 Correlation Energy        =      -1.4163197267888212 [Eh]
	 Total Energy              =    -702.3360062922237148 [Eh]

	 ================> DF-SCS-MP2 Energies <==================
	-----------------------------------------------------------
	 SCS Same-Spin Scale       =       0.3333333333333333 [-]
	 SCS Opposite-Spin Scale   =       1.2000000000000000 [-]
	 SCS Same-Spin Energy      =      -0.1196044014570810 [Eh]
	 SCS Opposite-Spin Energy  =      -1.2690078269010938 [Eh]
	 SCS Correlation Energy    =      -1.3886122283581748 [Eh]
	 SCS Total Energy          =    -702.3082987937930284 [Eh]
	-----------------------------------------------------------

  Dipole Moment: [D]
     X:    -3.8742      Y:     2.0917      Z:    -0.0000     Total:     4.4028

*** Psi4 exiting successfully. Buy a developer a beer!
