                               Psi4 1.3.2 release

  ==> Input File <==

--------------------------------------------------------------------------
#psi4
#
memory 32 gb

molecule  {
-1 1
  S        0.5401240    -0.0567320     0.0000000
  O        0.4874240    -0.8647860    -1.2512880
  O        1.5608434     1.0254716    -0.0479127
  O        0.4874170    -0.8647610     1.2513040
  C       -1.0236020     0.8530730    -0.0000110
  C       -2.2227860    -0.0817370     0.0000010
  H       -1.0143060     1.4942760     0.8867830
  H       -1.0143040     1.4942500    -0.8868250
  H       -3.1679310     0.4744510    -0.0000100
  H       -2.1864950    -0.7220660    -0.8842360
  H       -2.1864990    -0.7220390     0.8842580
units angstrom
no_reorient  #important for SAPT in psi4, default
symmetry c1  #important for SAPT in psi4, default
}

set PROPERTIES_ORIGIN ["COM"]
properties('MP2/aug-cc-pvtz', properties = ['dipole'])
--------------------------------------------------------------------------

    Molecular point group: c1
  Charge       = -1
  Multiplicity = 1
  Basis Set: AUG-CC-PVTZ
    Blend: AUG-CC-PVTZ
  Basis Set: (AUG-CC-PVTZ AUX)
    Blend: AUG-CC-PVTZ-JKFIT

    Orbital Energies [Eh]
    ---------------------

    Doubly Occupied:

       1A    -91.995241     2A    -20.340920     3A    -20.337814
       4A    -20.335324     5A    -11.096032     6A    -11.087591
       7A     -8.957025     8A     -6.642375     9A     -6.641921
      10A     -6.641837    11A     -1.254474    12A     -1.114309
      13A     -1.108651    14A     -0.902698    15A     -0.738217
      16A     -0.603641    17A     -0.497001    18A     -0.488513
      19A     -0.455126    20A     -0.444144    21A     -0.414458
      22A     -0.381324    23A     -0.361461    24A     -0.319550
      25A     -0.317390    26A     -0.276673    27A     -0.272959
      28A     -0.245911    29A     -0.237121

  @DF-RHF Final Energy:  -700.92016512357907

   => Energetics <=

    Nuclear Repulsion Energy =            346.5444775435093447
    One-Electron Energy =               -1665.9098877983749389
    Two-Electron Energy =                 618.4452451312864696
    Total Energy =                       -700.9201651235790678
  Basis Set: (AUG-CC-PVTZ AUX)
    Blend: AUG-CC-PVTZ-RI
    Molecular point group: c1

    Geometry (in Angstrom), charge = -1, multiplicity = 1:

       Center              X                  Y                   Z               Mass
    ------------   -----------------  -----------------  -----------------  -----------------
         S            0.455479879174    -0.040357411103     0.007030113786    31.972071174400
         O            0.402779879174    -0.848411411103    -1.244257886214    15.994914619570
         O            1.476199279174     1.041846188897    -0.040882586214    15.994914619570
         O            0.402772879174    -0.848386411103     1.258334113786    15.994914619570
         C           -1.108246120826     0.869447588897     0.007019113786    12.000000000000
         C           -2.307430120826    -0.065362411103     0.007031113786    12.000000000000
         H           -1.098950120826     1.510650588897     0.893813113786     1.007825032230
         H           -1.098948120826     1.510624588897    -0.879794886214     1.007825032230
         H           -3.252575120826     0.490825588897     0.007020113786     1.007825032230
         H           -2.271139120826    -0.705691411103    -0.877205886214     1.007825032230
         H           -2.271143120826    -0.705664411103     0.891288113786     1.007825032230

  Basis Set: AUG-CC-PVTZ
    Blend: AUG-CC-PVTZ
  Basis Set: (AUG-CC-PVTZ AUX)
    Blend: AUG-CC-PVTZ-JKFIT
	 Reference Energy          =    -700.9201651235790678 [Eh]
	 Singles Energy            =      -0.0000000000000000 [Eh]
	 Same-Spin Energy          =      -0.3608827102850308 [Eh]
	 Opposite-Spin Energy      =      -1.0628745093288241 [Eh]
	 Correlation Energy        =      -1.4237572196138548 [Eh]
	 Total Energy              =    -702.3439223431929577 [Eh]

	 ================> DF-SCS-MP2 Energies <==================
	-----------------------------------------------------------
	 SCS Same-Spin Scale       =       0.3333333333333333 [-]
	 SCS Opposite-Spin Scale   =       1.2000000000000000 [-]
	 SCS Same-Spin Energy      =      -0.1202942367616769 [Eh]
	 SCS Opposite-Spin Energy  =      -1.2754494111945889 [Eh]
	 SCS Correlation Energy    =      -1.3957436479562659 [Eh]
	 SCS Total Energy          =    -702.3159087715353053 [Eh]
	-----------------------------------------------------------

  Dipole Moment: [D]
     X:    -4.3749      Y:     1.6223      Z:     0.1093     Total:     4.6673

*** Psi4 exiting successfully. Buy a developer a beer!
