                               Psi4 1.3.2 release

  ==> Input File <==

--------------------------------------------------------------------------
#psi4
#
memory 32 gb

molecule  {
-1 1
  S        0.5401240    -0.0567320     0.0000000
  O        0.4874240    -0.8647860    -1.2512880
  O        1.5270312     1.0481446    -0.1434926
  O        0.4874170    -0.8647610     1.2513040
  C       -1.0236020     0.8530730    -0.0000110
  C       -2.2227860    -0.0817370     0.0000010
  H       -1.0143060     1.4942760     0.8867830
  H       -1.0143040     1.4942500    -0.8868250
  H       -3.1679310     0.4744510    -0.0000100
  H       -2.1864950    -0.7220660    -0.8842360
  H       -2.1864990    -0.7220390     0.8842580
units angstrom
no_reorient  #important for SAPT in psi4, default
symmetry c1  #important for SAPT in psi4, default
}

set PROPERTIES_ORIGIN ["COM"]
properties('MP2/aug-cc-pvtz', properties = ['dipole'])
--------------------------------------------------------------------------

    Molecular point group: c1
  Charge       = -1
  Multiplicity = 1
  Basis Set: AUG-CC-PVTZ
    Blend: AUG-CC-PVTZ
  Basis Set: (AUG-CC-PVTZ AUX)
    Blend: AUG-CC-PVTZ-JKFIT

    Orbital Energies [Eh]
    ---------------------

    Doubly Occupied:

       1A    -91.995481     2A    -20.347458     3A    -20.337777
       4A    -20.330854     5A    -11.093900     6A    -11.086295
       7A     -8.957283     8A     -6.642647     9A     -6.642235
      10A     -6.641999    11A     -1.255081    12A     -1.120521
      13A     -1.103869    14A     -0.901145    15A     -0.736649
      16A     -0.603745    17A     -0.496706    18A     -0.487605
      19A     -0.455820    20A     -0.443902    21A     -0.413728
      22A     -0.380385    23A     -0.360273    24A     -0.322515
      25A     -0.316040    26A     -0.280894    27A     -0.270101
      28A     -0.244186    29A     -0.236708

  @DF-RHF Final Energy:  -700.91692733578782

   => Energetics <=

    Nuclear Repulsion Energy =            346.7020139323212788
    One-Electron Energy =               -1666.2262830696176934
    Two-Electron Energy =                 618.6073418015085963
    Total Energy =                       -700.9169273357878183
  Basis Set: (AUG-CC-PVTZ AUX)
    Blend: AUG-CC-PVTZ-RI
    Molecular point group: c1

    Geometry (in Angstrom), charge = -1, multiplicity = 1:

       Center              X                  Y                   Z               Mass
    ------------   -----------------  -----------------  -----------------  -----------------
         S            0.460441745195    -0.043684624011     0.021056254000    31.972071174400
         O            0.407741745195    -0.851738624011    -1.230231746000    15.994914619570
         O            1.447348945195     1.061191975989    -0.122436346000    15.994914619570
         O            0.407734745195    -0.851713624011     1.272360254000    15.994914619570
         C           -1.103284254805     0.866120375989     0.021045254000    12.000000000000
         C           -2.302468254805    -0.068689624011     0.021057254000    12.000000000000
         H           -1.093988254805     1.507323375989     0.907839254000     1.007825032230
         H           -1.093986254805     1.507297375989    -0.865768746000     1.007825032230
         H           -3.247613254805     0.487498375989     0.021046254000     1.007825032230
         H           -2.266177254805    -0.709018624011    -0.863179746000     1.007825032230
         H           -2.266181254805    -0.708991624011     0.905314254000     1.007825032230

  Basis Set: AUG-CC-PVTZ
    Blend: AUG-CC-PVTZ
  Basis Set: (AUG-CC-PVTZ AUX)
    Blend: AUG-CC-PVTZ-JKFIT
	 Reference Energy          =    -700.9169273357878183 [Eh]
	 Singles Energy            =      -0.0000000000000000 [Eh]
	 Same-Spin Energy          =      -0.3610954552562506 [Eh]
	 Opposite-Spin Energy      =      -1.0633197287731464 [Eh]
	 Correlation Energy        =      -1.4244151840293970 [Eh]
	 Total Energy              =    -702.3413425198172035 [Eh]

	 ================> DF-SCS-MP2 Energies <==================
	-----------------------------------------------------------
	 SCS Same-Spin Scale       =       0.3333333333333333 [-]
	 SCS Opposite-Spin Scale   =       1.2000000000000000 [-]
	 SCS Same-Spin Energy      =      -0.1203651517520835 [Eh]
	 SCS Opposite-Spin Energy  =      -1.2759836745277757 [Eh]
	 SCS Correlation Energy    =      -1.3963488262798593 [Eh]
	 SCS Total Energy          =    -702.3132761620677229 [Eh]
	-----------------------------------------------------------

  Dipole Moment: [D]
     X:    -4.2824      Y:     1.5718      Z:     0.3258     Total:     4.5733

*** Psi4 exiting successfully. Buy a developer a beer!
