                               Psi4 1.3.2 release

  ==> Input File <==

--------------------------------------------------------------------------
#psi4
#
memory 32 gb

molecule  {
0 1
  C        0.7029120     0.3173470    -0.3805850
  C       -0.7029620    -0.3173540    -0.3804860
  C        0.9826470     1.1914400     0.8430940
  C        1.8037460    -0.7325620    -0.5400470
  C       -0.8477439    -1.2700444     0.8074127
  C       -1.8038160     0.7325530    -0.5398170
  H        0.7436150     0.9671320    -1.2674360
  H       -0.7437850    -0.9671540    -1.2673200
  H        1.0211370     0.5905480     1.7569780
  H        1.9518370     1.6894640     0.7370170
  H        0.2251830     1.9685050     0.9782860
  H        2.7795120    -0.2525090    -0.6673740
  H        1.8684660    -1.3795410     0.3401940
  H        1.6230310    -1.3663620    -1.4145870
  H       -0.2250570    -1.9684910     0.9783510
  H       -1.0209040    -0.5905180     1.7571240
  H       -1.9517420    -1.6894490     0.7373050
  H       -1.8684140     1.3795480     0.3404210
  H       -2.7795990     0.2525000    -0.6670030
  H       -1.6232180     1.3663380    -1.4143930
units angstrom
no_reorient  #important for SAPT in psi4, default
symmetry c1  #important for SAPT in psi4, default
}

set PROPERTIES_ORIGIN ["COM"]
properties('MP2/aug-cc-pvtz', properties = ['dipole'])
--------------------------------------------------------------------------

    Molecular point group: c1
  Charge       = 0
  Multiplicity = 1
  Basis Set: AUG-CC-PVTZ
    Blend: AUG-CC-PVTZ
  Basis Set: (AUG-CC-PVTZ AUX)
    Blend: AUG-CC-PVTZ-JKFIT

    Orbital Energies [Eh]
    ---------------------

    Doubly Occupied:

       1A    -11.222811     2A    -11.218989     3A    -11.211962
       4A    -11.211529     5A    -11.208062     6A    -11.206122
       7A     -1.102874     8A     -1.007510     9A     -0.936370
      10A     -0.921285    11A     -0.834896    12A     -0.734767
      13A     -0.637719    14A     -0.627111    15A     -0.605917
      16A     -0.564507    17A     -0.548365    18A     -0.533092
      19A     -0.522854    20A     -0.508676    21A     -0.497252
      22A     -0.479144    23A     -0.453048    24A     -0.434949
      25A     -0.426103

  @DF-RHF Final Energy:  -235.41428704448435

   => Energetics <=

    Nuclear Repulsion Energy =            264.3027250868550482
    One-Electron Energy =                -840.1221978136862845
    Two-Electron Energy =                 340.4051856823468825
    Total Energy =                       -235.4142870444843538
  Basis Set: (AUG-CC-PVTZ AUX)
    Blend: AUG-CC-PVTZ-RI
    Molecular point group: c1

    Geometry (in Angstrom), charge = 0, multiplicity = 1:

       Center              X                  Y                   Z               Mass
    ------------   -----------------  -----------------  -----------------  -----------------
         C            0.684128256772     0.328303202988    -0.364903599011    12.000000000000
         C           -0.721745743228    -0.306397797012    -0.364804599011    12.000000000000
         C            0.963863256772     1.202396202988     0.858775400989    12.000000000000
         C            1.784962256772    -0.721605797012    -0.524365599011    12.000000000000
         C           -0.866527643228    -1.259088197012     0.823094100989    12.000000000000
         C           -1.822599743228     0.743509202988    -0.524135599011    12.000000000000
         H            0.724831256772     0.978088202988    -1.251754599011     1.007825032230
         H           -0.762568743228    -0.956197797012    -1.251638599011     1.007825032230
         H            1.002353256772     0.601504202988     1.772659400989     1.007825032230
         H            1.933053256772     1.700420202988     0.752698400989     1.007825032230
         H            0.206399256772     1.979461202988     0.993967400989     1.007825032230
         H            2.760728256772    -0.241552797012    -0.651692599011     1.007825032230
         H            1.849682256772    -1.368584797012     0.355875400989     1.007825032230
         H            1.604247256772    -1.355405797012    -1.398905599011     1.007825032230
         H           -0.243840743228    -1.957534797012     0.994032400989     1.007825032230
         H           -1.039687743228    -0.579561797012     1.772805400989     1.007825032230
         H           -1.970525743228    -1.678492797012     0.752986400989     1.007825032230
         H           -1.887197743228     1.390504202988     0.356102400989     1.007825032230
         H           -2.798382743228     0.263456202988    -0.651321599011     1.007825032230
         H           -1.642001743228     1.377294202988    -1.398711599011     1.007825032230

  Basis Set: AUG-CC-PVTZ
    Blend: AUG-CC-PVTZ
  Basis Set: (AUG-CC-PVTZ AUX)
    Blend: AUG-CC-PVTZ-JKFIT
	 Reference Energy          =    -235.4142870444843538 [Eh]
	 Singles Energy            =      -0.0000000000000000 [Eh]
	 Same-Spin Energy          =      -0.2549963992918037 [Eh]
	 Opposite-Spin Energy      =      -0.9545075064487216 [Eh]
	 Correlation Energy        =      -1.2095039057405252 [Eh]
	 Total Energy              =    -236.6237909502248726 [Eh]

	 ================> DF-SCS-MP2 Energies <==================
	-----------------------------------------------------------
	 SCS Same-Spin Scale       =       0.3333333333333333 [-]
	 SCS Opposite-Spin Scale   =       1.2000000000000000 [-]
	 SCS Same-Spin Energy      =      -0.0849987997639346 [Eh]
	 SCS Opposite-Spin Energy  =      -1.1454090077384660 [Eh]
	 SCS Correlation Energy    =      -1.2304078075024005 [Eh]
	 SCS Total Energy          =    -236.6446948519867419 [Eh]
	-----------------------------------------------------------

  Dipole Moment: [D]
     X:     0.0050      Y:     0.0290      Z:    -0.2062     Total:     0.2083

*** Psi4 exiting successfully. Buy a developer a beer!
