                               Psi4 1.3.2 release

  ==> Input File <==

--------------------------------------------------------------------------
#psi4
#
memory 32 gb

molecule  {
0 1
  C        0.7029120     0.3173470    -0.3805850
  C       -0.7029620    -0.3173540    -0.3804860
  C        0.9826470     1.1914400     0.8430940
  C        1.8037460    -0.7325620    -0.5400470
  C       -1.0190922    -1.3057135     1.0032525
  C       -1.8038160     0.7325530    -0.5398170
  H        0.7436150     0.9671320    -1.2674360
  H       -0.7437850    -0.9671540    -1.2673200
  H        1.0211370     0.5905480     1.7569780
  H        1.9518370     1.6894640     0.7370170
  H        0.2251830     1.9685050     0.9782860
  H        2.7795120    -0.2525090    -0.6673740
  H        1.8684660    -1.3795410     0.3401940
  H        1.6230310    -1.3663620    -1.4145870
  H       -0.2250570    -1.9684910     0.9783510
  H       -1.0209040    -0.5905180     1.7571240
  H       -1.9517420    -1.6894490     0.7373050
  H       -1.8684140     1.3795480     0.3404210
  H       -2.7795990     0.2525000    -0.6670030
  H       -1.6232180     1.3663380    -1.4143930
units angstrom
no_reorient  #important for SAPT in psi4, default
symmetry c1  #important for SAPT in psi4, default
}

set PROPERTIES_ORIGIN ["COM"]
properties('MP2/aug-cc-pvtz', properties = ['dipole'])
--------------------------------------------------------------------------

    Molecular point group: c1
  Charge       = 0
  Multiplicity = 1
  Basis Set: AUG-CC-PVTZ
    Blend: AUG-CC-PVTZ
  Basis Set: (AUG-CC-PVTZ AUX)
    Blend: AUG-CC-PVTZ-JKFIT

    Orbital Energies [Eh]
    ---------------------

    Doubly Occupied:

       1A    -11.228362     2A    -11.220793     3A    -11.208089
       4A    -11.207904     5A    -11.207467     6A    -11.202805
       7A     -1.091274     8A     -1.000360     9A     -0.931419
      10A     -0.922644    11A     -0.835800    12A     -0.728833
      13A     -0.637352    14A     -0.609931    15A     -0.601951
      16A     -0.564954    17A     -0.563086    18A     -0.547173
      19A     -0.528293    20A     -0.524021    21A     -0.494999
      22A     -0.477735    23A     -0.448399    24A     -0.441398
      25A     -0.401470

  @DF-RHF Final Energy:  -235.42033865888845

   => Energetics <=

    Nuclear Repulsion Energy =            261.2355881540080986
    One-Electron Energy =                -834.0588286652213128
    Two-Electron Energy =                 337.4029018523248169
    Total Energy =                       -235.4203386588884541
  Basis Set: (AUG-CC-PVTZ AUX)
    Blend: AUG-CC-PVTZ-RI
    Molecular point group: c1

    Geometry (in Angstrom), charge = 0, multiplicity = 1:

       Center              X                  Y                   Z               Mass
    ------------   -----------------  -----------------  -----------------  -----------------
         C            0.708006904253     0.333273954754    -0.392195317382    12.000000000000
         C           -0.697867095747    -0.301427045246    -0.392096317382    12.000000000000
         C            0.987741904253     1.207366954754     0.831483682618    12.000000000000
         C            1.808840904253    -0.716635045246    -0.551657317382    12.000000000000
         C           -1.013997295747    -1.289786545246     0.991642182618    12.000000000000
         C           -1.798721095747     0.748479954754    -0.551427317382    12.000000000000
         H            0.748709904253     0.983058954754    -1.279046317382     1.007825032230
         H           -0.738690095747    -0.951227045246    -1.278930317382     1.007825032230
         H            1.026231904253     0.606474954754     1.745367682618     1.007825032230
         H            1.956931904253     1.705390954754     0.725406682618     1.007825032230
         H            0.230277904253     1.984431954754     0.966675682618     1.007825032230
         H            2.784606904253    -0.236582045246    -0.678984317382     1.007825032230
         H            1.873560904253    -1.363614045246     0.328583682618     1.007825032230
         H            1.628125904253    -1.350435045246    -1.426197317382     1.007825032230
         H           -0.219962095747    -1.952564045246     0.966740682618     1.007825032230
         H           -1.015809095747    -0.574591045246     1.745513682618     1.007825032230
         H           -1.946647095747    -1.673522045246     0.725694682618     1.007825032230
         H           -1.863319095747     1.395474954754     0.328810682618     1.007825032230
         H           -2.774504095747     0.268426954754    -0.678613317382     1.007825032230
         H           -1.618123095747     1.382264954754    -1.426003317382     1.007825032230

  Basis Set: AUG-CC-PVTZ
    Blend: AUG-CC-PVTZ
  Basis Set: (AUG-CC-PVTZ AUX)
    Blend: AUG-CC-PVTZ-JKFIT
	 Reference Energy          =    -235.4203386588884541 [Eh]
	 Singles Energy            =      -0.0000000000000000 [Eh]
	 Same-Spin Energy          =      -0.2542374853945588 [Eh]
	 Opposite-Spin Energy      =      -0.9540865453278877 [Eh]
	 Correlation Energy        =      -1.2083240307224465 [Eh]
	 Total Energy              =    -236.6286626896109055 [Eh]

	 ================> DF-SCS-MP2 Energies <==================
	-----------------------------------------------------------
	 SCS Same-Spin Scale       =       0.3333333333333333 [-]
	 SCS Opposite-Spin Scale   =       1.2000000000000000 [-]
	 SCS Same-Spin Energy      =      -0.0847458284648529 [Eh]
	 SCS Opposite-Spin Energy  =      -1.1449038543934653 [Eh]
	 SCS Correlation Energy    =      -1.2296496828583183 [Eh]
	 SCS Total Energy          =    -236.6499883417467629 [Eh]
	-----------------------------------------------------------

  Dipole Moment: [D]
     X:     0.0284      Y:     0.0863      Z:    -0.2376     Total:     0.2544

*** Psi4 exiting successfully. Buy a developer a beer!
