                               Psi4 1.3.2 release

  ==> Input File <==

--------------------------------------------------------------------------
#psi4
#
memory 32 gb

molecule  {
0 1
  C        0.7029120     0.3173470    -0.3805850
  C       -0.7029620    -0.3173540    -0.3804860
  C        0.9826470     1.1914400     0.8430940
  C        1.8037460    -0.7325620    -0.5400470
  C       -0.9459818    -1.0771385     0.6832395
  C       -1.8038160     0.7325530    -0.5398170
  H        0.7436150     0.9671320    -1.2674360
  H       -0.7437850    -0.9671540    -1.2673200
  H        1.0211370     0.5905480     1.7569780
  H        1.9518370     1.6894640     0.7370170
  H        0.2251830     1.9685050     0.9782860
  H        2.7795120    -0.2525090    -0.6673740
  H        1.8684660    -1.3795410     0.3401940
  H        1.6230310    -1.3663620    -1.4145870
  H       -0.2250570    -1.9684910     0.9783510
  H       -1.0209040    -0.5905180     1.7571240
  H       -1.9517420    -1.6894490     0.7373050
  H       -1.8684140     1.3795480     0.3404210
  H       -2.7795990     0.2525000    -0.6670030
  H       -1.6232180     1.3663380    -1.4143930
units angstrom
no_reorient  #important for SAPT in psi4, default
symmetry c1  #important for SAPT in psi4, default
}

set PROPERTIES_ORIGIN ["COM"]
properties('MP2/aug-cc-pvtz', properties = ['dipole'])
--------------------------------------------------------------------------

    Molecular point group: c1
  Charge       = 0
  Multiplicity = 1
  Basis Set: AUG-CC-PVTZ
    Blend: AUG-CC-PVTZ
  Basis Set: (AUG-CC-PVTZ AUX)
    Blend: AUG-CC-PVTZ-JKFIT

    Orbital Energies [Eh]
    ---------------------

    Doubly Occupied:

       1A    -11.222227     2A    -11.221994     3A    -11.209994
       4A    -11.209196     5A    -11.207721     6A    -11.207368
       7A     -1.127994     8A     -1.023851     9A     -0.931254
      10A     -0.918836    11A     -0.830604    12A     -0.735630
      13A     -0.649531    14A     -0.620385    15A     -0.609761
      16A     -0.566554    17A     -0.549396    18A     -0.538074
      19A     -0.521863    20A     -0.511546    21A     -0.491423
      22A     -0.470772    23A     -0.460193    24A     -0.426434
      25A     -0.420425

  @DF-RHF Final Energy:  -235.39642076186993

   => Energetics <=

    Nuclear Repulsion Energy =            267.2405012060997933
    One-Electron Energy =                -845.9077968247313493
    Two-Electron Energy =                 343.2708748567616226
    Total Energy =                       -235.3964207618699334
  Basis Set: (AUG-CC-PVTZ AUX)
    Blend: AUG-CC-PVTZ-RI
    Molecular point group: c1

    Geometry (in Angstrom), charge = 0, multiplicity = 1:

       Center              X                  Y                   Z               Mass
    ------------   -----------------  -----------------  -----------------  -----------------
         C            0.697818431600     0.301420345188    -0.347599149130    12.000000000000
         C           -0.708055568400    -0.333280654812    -0.347500149130    12.000000000000
         C            0.977553431600     1.175513345188     0.876079850870    12.000000000000
         C            1.798652431600    -0.748488654812    -0.507061149130    12.000000000000
         C           -0.951075368400    -1.093065154812     0.716225350870    12.000000000000
         C           -1.808909568400     0.716626345188    -0.506831149130    12.000000000000
         H            0.738521431600     0.951205345188    -1.234450149130     1.007825032230
         H           -0.748878568400    -0.983080654812    -1.234334149130     1.007825032230
         H            1.016043431600     0.574621345188     1.789963850870     1.007825032230
         H            1.946743431600     1.673537345188     0.770002850870     1.007825032230
         H            0.220089431600     1.952578345188     1.011271850870     1.007825032230
         H            2.774418431600    -0.268435654812    -0.634388149130     1.007825032230
         H            1.863372431600    -1.395467654812     0.373179850870     1.007825032230
         H            1.617937431600    -1.382288654812    -1.381601149130     1.007825032230
         H           -0.230150568400    -1.984417654812     1.011336850870     1.007825032230
         H           -1.025997568400    -0.606444654812     1.790109850870     1.007825032230
         H           -1.956835568400    -1.705375654812     0.770290850870     1.007825032230
         H           -1.873507568400     1.363621345188     0.373406850870     1.007825032230
         H           -2.784692568400     0.236573345188    -0.634017149130     1.007825032230
         H           -1.628311568400     1.350411345188    -1.381407149130     1.007825032230

  Basis Set: AUG-CC-PVTZ
    Blend: AUG-CC-PVTZ
  Basis Set: (AUG-CC-PVTZ AUX)
    Blend: AUG-CC-PVTZ-JKFIT
	 Reference Energy          =    -235.3964207618699334 [Eh]
	 Singles Energy            =      -0.0000000000000000 [Eh]
	 Same-Spin Energy          =      -0.2577099077095548 [Eh]
	 Opposite-Spin Energy      =      -0.9573181936423645 [Eh]
	 Correlation Energy        =      -1.2150281013519193 [Eh]
	 Total Energy              =    -236.6114488632218524 [Eh]

	 ================> DF-SCS-MP2 Energies <==================
	-----------------------------------------------------------
	 SCS Same-Spin Scale       =       0.3333333333333333 [-]
	 SCS Opposite-Spin Scale   =       1.2000000000000000 [-]
	 SCS Same-Spin Energy      =      -0.0859033025698516 [Eh]
	 SCS Opposite-Spin Energy  =      -1.1487818323708374 [Eh]
	 SCS Correlation Energy    =      -1.2346851349406891 [Eh]
	 SCS Total Energy          =    -236.6311058968106238 [Eh]
	-----------------------------------------------------------

  Dipole Moment: [D]
     X:     0.0197      Y:     0.0332      Z:    -0.1907     Total:     0.1946

*** Psi4 exiting successfully. Buy a developer a beer!
