                               Psi4 1.3.2 release

  ==> Input File <==

--------------------------------------------------------------------------
#psi4
#
memory 32 gb

molecule  {
0 1
  C        0.7029120     0.3173470    -0.3805850
  C       -0.7263869    -0.3248268    -0.3908841
  C        0.9826470     1.1914400     0.8430940
  C        1.8037460    -0.7325620    -0.5400470
  C       -0.9825370    -1.1914260     0.8432460
  C       -1.8038160     0.7325530    -0.5398170
  H        0.7436150     0.9671320    -1.2674360
  H       -0.7437850    -0.9671540    -1.2673200
  H        1.0211370     0.5905480     1.7569780
  H        1.9518370     1.6894640     0.7370170
  H        0.2251830     1.9685050     0.9782860
  H        2.7795120    -0.2525090    -0.6673740
  H        1.8684660    -1.3795410     0.3401940
  H        1.6230310    -1.3663620    -1.4145870
  H       -0.2250570    -1.9684910     0.9783510
  H       -1.0209040    -0.5905180     1.7571240
  H       -1.9517420    -1.6894490     0.7373050
  H       -1.8684140     1.3795480     0.3404210
  H       -2.7795990     0.2525000    -0.6670030
  H       -1.6232180     1.3663380    -1.4143930
units angstrom
no_reorient  #important for SAPT in psi4, default
symmetry c1  #important for SAPT in psi4, default
}

set PROPERTIES_ORIGIN ["COM"]
properties('MP2/aug-cc-pvtz', properties = ['dipole'])
--------------------------------------------------------------------------

    Molecular point group: c1
  Charge       = 0
  Multiplicity = 1
  Basis Set: AUG-CC-PVTZ
    Blend: AUG-CC-PVTZ
  Basis Set: (AUG-CC-PVTZ AUX)
    Blend: AUG-CC-PVTZ-JKFIT

    Orbital Energies [Eh]
    ---------------------

    Doubly Occupied:

       1A    -11.220791     2A    -11.219594     3A    -11.207245
       4A    -11.207129     5A    -11.206999     6A    -11.206910
       7A     -1.099614     8A     -1.010717     9A     -0.929497
      10A     -0.919950    11A     -0.831519    12A     -0.733632
      13A     -0.638888    14A     -0.608309    15A     -0.604703
      16A     -0.561078    17A     -0.550862    18A     -0.536520
      19A     -0.520362    20A     -0.520187    21A     -0.487604
      22A     -0.486546    23A     -0.449342    24A     -0.447108
      25A     -0.428066

  @DF-RHF Final Energy:  -235.44595175166148

   => Energetics <=

    Nuclear Repulsion Energy =            263.8356688387506779
    One-Electron Energy =                -839.2968970538446456
    Two-Electron Energy =                 340.0152764634325422
    Total Energy =                       -235.4459517516614824
  Basis Set: (AUG-CC-PVTZ AUX)
    Blend: AUG-CC-PVTZ-RI
    Molecular point group: c1

    Geometry (in Angstrom), charge = 0, multiplicity = 1:

       Center              X                  Y                   Z               Mass
    ------------   -----------------  -----------------  -----------------  -----------------
         C            0.706177100252     0.318388539684    -0.368448181446    12.000000000000
         C           -0.723121799748    -0.323785260316    -0.378747281446    12.000000000000
         C            0.985912100252     1.192481539684     0.855230818554    12.000000000000
         C            1.807011100252    -0.731520460316    -0.527910181446    12.000000000000
         C           -0.979271899748    -1.190384460316     0.855382818554    12.000000000000
         C           -1.800550899748     0.733594539684    -0.527680181446    12.000000000000
         H            0.746880100252     0.968173539684    -1.255299181446     1.007825032230
         H           -0.740519899748    -0.966112460316    -1.255183181446     1.007825032230
         H            1.024402100252     0.591589539684     1.769114818554     1.007825032230
         H            1.955102100252     1.690505539684     0.749153818554     1.007825032230
         H            0.228448100252     1.969546539684     0.990422818554     1.007825032230
         H            2.782777100252    -0.251467460316    -0.655237181446     1.007825032230
         H            1.871731100252    -1.378499460316     0.352330818554     1.007825032230
         H            1.626296100252    -1.365320460316    -1.402450181446     1.007825032230
         H           -0.221791899748    -1.967449460316     0.990487818554     1.007825032230
         H           -1.017638899748    -0.589476460316     1.769260818554     1.007825032230
         H           -1.948476899748    -1.688407460316     0.749441818554     1.007825032230
         H           -1.865148899748     1.380589539684     0.352557818554     1.007825032230
         H           -2.776333899748     0.253541539684    -0.654866181446     1.007825032230
         H           -1.619952899748     1.367379539684    -1.402256181446     1.007825032230

  Basis Set: AUG-CC-PVTZ
    Blend: AUG-CC-PVTZ
  Basis Set: (AUG-CC-PVTZ AUX)
    Blend: AUG-CC-PVTZ-JKFIT
	 Reference Energy          =    -235.4459517516614824 [Eh]
	 Singles Energy            =      -0.0000000000000000 [Eh]
	 Same-Spin Energy          =      -0.2543449462892817 [Eh]
	 Opposite-Spin Energy      =      -0.9528722847289208 [Eh]
	 Correlation Energy        =      -1.2072172310182026 [Eh]
	 Total Energy              =    -236.6531689826796878 [Eh]

	 ================> DF-SCS-MP2 Energies <==================
	-----------------------------------------------------------
	 SCS Same-Spin Scale       =       0.3333333333333333 [-]
	 SCS Opposite-Spin Scale   =       1.2000000000000000 [-]
	 SCS Same-Spin Energy      =      -0.0847816487630939 [Eh]
	 SCS Opposite-Spin Energy  =      -1.1434467416747049 [Eh]
	 SCS Correlation Energy    =      -1.2282283904377989 [Eh]
	 SCS Total Energy          =    -236.6741801420992886 [Eh]
	-----------------------------------------------------------

  Dipole Moment: [D]
     X:    -0.0129      Y:    -0.0003      Z:    -0.1504     Total:     0.1509

*** Psi4 exiting successfully. Buy a developer a beer!
