                               Psi4 1.3.2 release

  ==> Input File <==

--------------------------------------------------------------------------
#psi4
#
memory 32 gb

molecule  {
0 1
  C        0.7029120     0.3173470    -0.3805850
  C       -0.6101848    -0.2901469    -0.3351995
  C        0.9826470     1.1914400     0.8430940
  C        1.8037460    -0.7325620    -0.5400470
  C       -0.9825370    -1.1914260     0.8432460
  C       -1.8038160     0.7325530    -0.5398170
  H        0.7436150     0.9671320    -1.2674360
  H       -0.7437850    -0.9671540    -1.2673200
  H        1.0211370     0.5905480     1.7569780
  H        1.9518370     1.6894640     0.7370170
  H        0.2251830     1.9685050     0.9782860
  H        2.7795120    -0.2525090    -0.6673740
  H        1.8684660    -1.3795410     0.3401940
  H        1.6230310    -1.3663620    -1.4145870
  H       -0.2250570    -1.9684910     0.9783510
  H       -1.0209040    -0.5905180     1.7571240
  H       -1.9517420    -1.6894490     0.7373050
  H       -1.8684140     1.3795480     0.3404210
  H       -2.7795990     0.2525000    -0.6670030
  H       -1.6232180     1.3663380    -1.4143930
units angstrom
no_reorient  #important for SAPT in psi4, default
symmetry c1  #important for SAPT in psi4, default
}

set PROPERTIES_ORIGIN ["COM"]
properties('MP2/aug-cc-pvtz', properties = ['dipole'])
--------------------------------------------------------------------------

    Molecular point group: c1
  Charge       = 0
  Multiplicity = 1
  Basis Set: AUG-CC-PVTZ
    Blend: AUG-CC-PVTZ
  Basis Set: (AUG-CC-PVTZ AUX)
    Blend: AUG-CC-PVTZ-JKFIT

    Orbital Energies [Eh]
    ---------------------

    Doubly Occupied:

       1A    -11.224478     2A    -11.217827     3A    -11.209198
       4A    -11.208453     5A    -11.208299     6A    -11.207965
       7A     -1.112451     8A     -1.004064     9A     -0.929876
      10A     -0.918427    11A     -0.847069    12A     -0.725036
      13A     -0.645394    14A     -0.609789    15A     -0.602569
      16A     -0.560205    17A     -0.549466    18A     -0.539598
      19A     -0.521910    20A     -0.519510    21A     -0.489262
      22A     -0.484686    23A     -0.464456    24A     -0.434784
      25A     -0.421826

  @DF-RHF Final Energy:  -235.43375896468353

   => Energetics <=

    Nuclear Repulsion Energy =            264.9443594072076280
    One-Electron Energy =                -841.4430422754661549
    Two-Electron Energy =                 341.0649239035750497
    Total Energy =                       -235.4337589646835340
  Basis Set: (AUG-CC-PVTZ AUX)
    Blend: AUG-CC-PVTZ-RI
    Molecular point group: c1

    Geometry (in Angstrom), charge = 0, multiplicity = 1:

       Center              X                  Y                   Z               Mass
    ------------   -----------------  -----------------  -----------------  -----------------
         C            0.689983481859     0.313555640222    -0.376208240539    12.000000000000
         C           -0.623113318141    -0.293938259778    -0.330822740539    12.000000000000
         C            0.969718481859     1.187648640222     0.847470759461    12.000000000000
         C            1.790817481859    -0.736353359778    -0.535670240539    12.000000000000
         C           -0.995465518141    -1.195217359778     0.847622759461    12.000000000000
         C           -1.816744518141     0.728761640222    -0.535440240539    12.000000000000
         H            0.730686481859     0.963340640222    -1.263059240539     1.007825032230
         H           -0.756713518141    -0.970945359778    -1.262943240539     1.007825032230
         H            1.008208481859     0.586756640222     1.761354759461     1.007825032230
         H            1.938908481859     1.685672640222     0.741393759461     1.007825032230
         H            0.212254481859     1.964713640222     0.982662759461     1.007825032230
         H            2.766583481859    -0.256300359778    -0.662997240539     1.007825032230
         H            1.855537481859    -1.383332359778     0.344570759461     1.007825032230
         H            1.610102481859    -1.370153359778    -1.410210240539     1.007825032230
         H           -0.237985518141    -1.972282359778     0.982727759461     1.007825032230
         H           -1.033832518141    -0.594309359778     1.761500759461     1.007825032230
         H           -1.964670518141    -1.693240359778     0.741681759461     1.007825032230
         H           -1.881342518141     1.375756640222     0.344797759461     1.007825032230
         H           -2.792527518141     0.248708640222    -0.662626240539     1.007825032230
         H           -1.636146518141     1.362546640222    -1.410016240539     1.007825032230

  Basis Set: AUG-CC-PVTZ
    Blend: AUG-CC-PVTZ
  Basis Set: (AUG-CC-PVTZ AUX)
    Blend: AUG-CC-PVTZ-JKFIT
	 Reference Energy          =    -235.4337589646835340 [Eh]
	 Singles Energy            =      -0.0000000000000000 [Eh]
	 Same-Spin Energy          =      -0.2551968579205637 [Eh]
	 Opposite-Spin Energy      =      -0.9543558548288529 [Eh]
	 Correlation Energy        =      -1.2095527127494166 [Eh]
	 Total Energy              =    -236.6433116774329619 [Eh]

	 ================> DF-SCS-MP2 Energies <==================
	-----------------------------------------------------------
	 SCS Same-Spin Scale       =       0.3333333333333333 [-]
	 SCS Opposite-Spin Scale   =       1.2000000000000000 [-]
	 SCS Same-Spin Energy      =      -0.0850656193068546 [Eh]
	 SCS Opposite-Spin Energy  =      -1.1452270257946233 [Eh]
	 SCS Correlation Energy    =      -1.2302926451014780 [Eh]
	 SCS Total Energy          =    -236.6640516097850195 [Eh]
	-----------------------------------------------------------

  Dipole Moment: [D]
     X:     0.0568      Y:     0.0059      Z:    -0.1012     Total:     0.1161

*** Psi4 exiting successfully. Buy a developer a beer!
