                               Psi4 1.3.2 release

  ==> Input File <==

--------------------------------------------------------------------------
#psi4
#
memory 32 gb

molecule  {
0 1
  C        0.7029120     0.3173470    -0.3805850
  C       -0.7029620    -0.3173540    -0.3804860
  C        0.9826470     1.1914400     0.8430940
  C        1.8037460    -0.7325620    -0.5400470
  C       -1.1142671    -1.1032311     0.8656719
  C       -1.8038160     0.7325530    -0.5398170
  H        0.7436150     0.9671320    -1.2674360
  H       -0.7437850    -0.9671540    -1.2673200
  H        1.0211370     0.5905480     1.7569780
  H        1.9518370     1.6894640     0.7370170
  H        0.2251830     1.9685050     0.9782860
  H        2.7795120    -0.2525090    -0.6673740
  H        1.8684660    -1.3795410     0.3401940
  H        1.6230310    -1.3663620    -1.4145870
  H       -0.2250570    -1.9684910     0.9783510
  H       -1.0209040    -0.5905180     1.7571240
  H       -1.9517420    -1.6894490     0.7373050
  H       -1.8684140     1.3795480     0.3404210
  H       -2.7795990     0.2525000    -0.6670030
  H       -1.6232180     1.3663380    -1.4143930
units angstrom
no_reorient  #important for SAPT in psi4, default
symmetry c1  #important for SAPT in psi4, default
}

set PROPERTIES_ORIGIN ["COM"]
properties('MP2/aug-cc-pvtz', properties = ['dipole'])
--------------------------------------------------------------------------

    Molecular point group: c1
  Charge       = 0
  Multiplicity = 1
  Basis Set: AUG-CC-PVTZ
    Blend: AUG-CC-PVTZ
  Basis Set: (AUG-CC-PVTZ AUX)
    Blend: AUG-CC-PVTZ-JKFIT

    Orbital Energies [Eh]
    ---------------------

    Doubly Occupied:

       1A    -11.222724     2A    -11.221856     3A    -11.211084
       4A    -11.208477     5A    -11.207171     6A    -11.205558
       7A     -1.102808     8A     -1.013544     9A     -0.927590
      10A     -0.919557    11A     -0.836819    12A     -0.735180
      13A     -0.649270    14A     -0.609012    15A     -0.597830
      16A     -0.567187    17A     -0.559008    18A     -0.536456
      19A     -0.527925    20A     -0.516652    21A     -0.491883
      22A     -0.469892    23A     -0.452685    24A     -0.441961
      25A     -0.421559

  @DF-RHF Final Energy:  -235.42281801542339

   => Energetics <=

    Nuclear Repulsion Energy =            263.9363439656155492
    One-Electron Energy =                -839.4109498708044157
    Two-Electron Energy =                 340.0517878897654214
    Total Energy =                       -235.4228180154233883
  Basis Set: (AUG-CC-PVTZ AUX)
    Blend: AUG-CC-PVTZ-RI
    Molecular point group: c1

    Geometry (in Angstrom), charge = 0, multiplicity = 1:

       Center              X                  Y                   Z               Mass
    ------------   -----------------  -----------------  -----------------  -----------------
         C            0.721270227474     0.305056541154    -0.373022447574    12.000000000000
         C           -0.684603772526    -0.329644458846    -0.372923447574    12.000000000000
         C            1.001005227474     1.179149541154     0.850656552426    12.000000000000
         C            1.822104227474    -0.744852458846    -0.532484447574    12.000000000000
         C           -1.095908872526    -1.115521558846     0.873234452426    12.000000000000
         C           -1.785457772526     0.720262541154    -0.532254447574    12.000000000000
         H            0.761973227474     0.954841541154    -1.259873447574     1.007825032230
         H           -0.725426772526    -0.979444458846    -1.259757447574     1.007825032230
         H            1.039495227474     0.578257541154     1.764540552426     1.007825032230
         H            1.970195227474     1.677173541154     0.744579552426     1.007825032230
         H            0.243541227474     1.956214541154     0.985848552426     1.007825032230
         H            2.797870227474    -0.264799458846    -0.659811447574     1.007825032230
         H            1.886824227474    -1.391831458846     0.347756552426     1.007825032230
         H            1.641389227474    -1.378652458846    -1.407024447574     1.007825032230
         H           -0.206698772526    -1.980781458846     0.985913552426     1.007825032230
         H           -1.002545772526    -0.602808458846     1.764686552426     1.007825032230
         H           -1.933383772526    -1.701739458846     0.744867552426     1.007825032230
         H           -1.850055772526     1.367257541154     0.347983552426     1.007825032230
         H           -2.761240772526     0.240209541154    -0.659440447574     1.007825032230
         H           -1.604859772526     1.354047541154    -1.406830447574     1.007825032230

  Basis Set: AUG-CC-PVTZ
    Blend: AUG-CC-PVTZ
  Basis Set: (AUG-CC-PVTZ AUX)
    Blend: AUG-CC-PVTZ-JKFIT
	 Reference Energy          =    -235.4228180154233883 [Eh]
	 Singles Energy            =      -0.0000000000000000 [Eh]
	 Same-Spin Energy          =      -0.2547762851818212 [Eh]
	 Opposite-Spin Energy      =      -0.9541374058363296 [Eh]
	 Correlation Energy        =      -1.2089136910181506 [Eh]
	 Total Energy              =    -236.6317317064415420 [Eh]

	 ================> DF-SCS-MP2 Energies <==================
	-----------------------------------------------------------
	 SCS Same-Spin Scale       =       0.3333333333333333 [-]
	 SCS Opposite-Spin Scale   =       1.2000000000000000 [-]
	 SCS Same-Spin Energy      =      -0.0849254283939404 [Eh]
	 SCS Opposite-Spin Energy  =      -1.1449648870035953 [Eh]
	 SCS Correlation Energy    =      -1.2298903153975358 [Eh]
	 SCS Total Energy          =    -236.6527083308209285 [Eh]
	-----------------------------------------------------------

  Dipole Moment: [D]
     X:    -0.0195      Y:     0.0621      Z:    -0.1446     Total:     0.1586

*** Psi4 exiting successfully. Buy a developer a beer!
