                               Psi4 1.3.2 release

  ==> Input File <==

--------------------------------------------------------------------------
#psi4
#
memory 32 gb

molecule  {
0 1
  C        0.7029120     0.3173470    -0.3805850
  C       -0.7029620    -0.3173540    -0.3804860
  C        0.9826470     1.1914400     0.8430940
  C        1.8037460    -0.7325620    -0.5400470
  C       -0.9602446    -1.2052187     0.8381961
  C       -1.8038160     0.7325530    -0.5398170
  H        0.7436150     0.9671320    -1.2674360
  H       -0.7437850    -0.9671540    -1.2673200
  H        1.0211370     0.5905480     1.7569780
  H        1.9518370     1.6894640     0.7370170
  H        0.2251830     1.9685050     0.9782860
  H        2.7795120    -0.2525090    -0.6673740
  H        1.8684660    -1.3795410     0.3401940
  H        1.6230310    -1.3663620    -1.4145870
  H       -0.2250570    -1.9684910     0.9783510
  H       -1.0209040    -0.5905180     1.7571240
  H       -1.9517420    -1.6894490     0.7373050
  H       -1.8684140     1.3795480     0.3404210
  H       -2.7795990     0.2525000    -0.6670030
  H       -1.6232180     1.3663380    -1.4143930
units angstrom
no_reorient  #important for SAPT in psi4, default
symmetry c1  #important for SAPT in psi4, default
}

set PROPERTIES_ORIGIN ["COM"]
properties('MP2/aug-cc-pvtz', properties = ['dipole'])
--------------------------------------------------------------------------

    Molecular point group: c1
  Charge       = 0
  Multiplicity = 1
  Basis Set: AUG-CC-PVTZ
    Blend: AUG-CC-PVTZ
  Basis Set: (AUG-CC-PVTZ AUX)
    Blend: AUG-CC-PVTZ-JKFIT

    Orbital Energies [Eh]
    ---------------------

    Doubly Occupied:

       1A    -11.220560     2A    -11.219851     3A    -11.207982
       4A    -11.207520     5A    -11.207307     6A    -11.206894
       7A     -1.101667     8A     -1.008920     9A     -0.930039
      10A     -0.919955    11A     -0.834079    12A     -0.731725
      13A     -0.639268    14A     -0.610053    15A     -0.605374
      16A     -0.561195    17A     -0.550150    18A     -0.535789
      19A     -0.520838    20A     -0.517247    21A     -0.489646
      22A     -0.486025    23A     -0.446855    24A     -0.443974
      25A     -0.434462

  @DF-RHF Final Energy:  -235.44561927516406

   => Energetics <=

    Nuclear Repulsion Energy =            264.0819830994406630
    One-Electron Energy =                -839.7804558045318117
    Two-Electron Energy =                 340.2528534299270859
    Total Energy =                       -235.4456192751640629
  Basis Set: (AUG-CC-PVTZ AUX)
    Blend: AUG-CC-PVTZ-RI
    Molecular point group: c1

    Geometry (in Angstrom), charge = 0, multiplicity = 1:

       Center              X                  Y                   Z               Mass
    ------------   -----------------  -----------------  -----------------  -----------------
         C            0.699806057816     0.319269264291    -0.369193492502    12.000000000000
         C           -0.706067942184    -0.315431735709    -0.369094492502    12.000000000000
         C            0.979541057816     1.193362264291     0.854485507498    12.000000000000
         C            1.800640057816    -0.730639735709    -0.528655492502    12.000000000000
         C           -0.963350542184    -1.203296435709     0.849587607498    12.000000000000
         C           -1.806921942184     0.734475264291    -0.528425492502    12.000000000000
         H            0.740509057816     0.969054264291    -1.256044492502     1.007825032230
         H           -0.746890942184    -0.965231735709    -1.255928492502     1.007825032230
         H            1.018031057816     0.592470264291     1.768369507498     1.007825032230
         H            1.948731057816     1.691386264291     0.748408507498     1.007825032230
         H            0.222077057816     1.970427264291     0.989677507498     1.007825032230
         H            2.776406057816    -0.250586735709    -0.655982492502     1.007825032230
         H            1.865360057816    -1.377618735709     0.351585507498     1.007825032230
         H            1.619925057816    -1.364439735709    -1.403195492502     1.007825032230
         H           -0.228162942184    -1.966568735709     0.989742507498     1.007825032230
         H           -1.024009942184    -0.588595735709     1.768515507498     1.007825032230
         H           -1.954847942184    -1.687526735709     0.748696507498     1.007825032230
         H           -1.871519942184     1.381470264291     0.351812507498     1.007825032230
         H           -2.782704942184     0.254422264291    -0.655611492502     1.007825032230
         H           -1.626323942184     1.368260264291    -1.403001492502     1.007825032230

  Basis Set: AUG-CC-PVTZ
    Blend: AUG-CC-PVTZ
  Basis Set: (AUG-CC-PVTZ AUX)
    Blend: AUG-CC-PVTZ-JKFIT
	 Reference Energy          =    -235.4456192751640629 [Eh]
	 Singles Energy            =      -0.0000000000000000 [Eh]
	 Same-Spin Energy          =      -0.2544221685963716 [Eh]
	 Opposite-Spin Energy      =      -0.9529968981670157 [Eh]
	 Correlation Energy        =      -1.2074190667633873 [Eh]
	 Total Energy              =    -236.6530383419274415 [Eh]

	 ================> DF-SCS-MP2 Energies <==================
	-----------------------------------------------------------
	 SCS Same-Spin Scale       =       0.3333333333333333 [-]
	 SCS Opposite-Spin Scale   =       1.2000000000000000 [-]
	 SCS Same-Spin Energy      =      -0.0848073895321239 [Eh]
	 SCS Opposite-Spin Energy  =      -1.1435962778004187 [Eh]
	 SCS Correlation Energy    =      -1.2284036673325427 [Eh]
	 SCS Total Energy          =    -236.6740229424966060 [Eh]
	-----------------------------------------------------------

  Dipole Moment: [D]
     X:     0.0017      Y:    -0.0019      Z:    -0.1488     Total:     0.1488

*** Psi4 exiting successfully. Buy a developer a beer!
