                               Psi4 1.3.2 release

  ==> Input File <==

--------------------------------------------------------------------------
#psi4
#
memory 32 gb

molecule  {
0 1
  C        0.7080895     0.3053114    -0.3570668
  C       -0.7029620    -0.3173540    -0.3804860
  C        0.9826470     1.1914400     0.8430940
  C        1.8037460    -0.7325620    -0.5400470
  C       -0.9825370    -1.1914260     0.8432460
  C       -1.8038160     0.7325530    -0.5398170
  H        0.7436150     0.9671320    -1.2674360
  H       -0.7437850    -0.9671540    -1.2673200
  H        1.0211370     0.5905480     1.7569780
  H        1.9518370     1.6894640     0.7370170
  H        0.2251830     1.9685050     0.9782860
  H        2.7795120    -0.2525090    -0.6673740
  H        1.8684660    -1.3795410     0.3401940
  H        1.6230310    -1.3663620    -1.4145870
  H       -0.2250570    -1.9684910     0.9783510
  H       -1.0209040    -0.5905180     1.7571240
  H       -1.9517420    -1.6894490     0.7373050
  H       -1.8684140     1.3795480     0.3404210
  H       -2.7795990     0.2525000    -0.6670030
  H       -1.6232180     1.3663380    -1.4143930
units angstrom
no_reorient  #important for SAPT in psi4, default
symmetry c1  #important for SAPT in psi4, default
}

set PROPERTIES_ORIGIN ["COM"]
properties('MP2/aug-cc-pvtz', properties = ['dipole'])
--------------------------------------------------------------------------

    Molecular point group: c1
  Charge       = 0
  Multiplicity = 1
  Basis Set: AUG-CC-PVTZ
    Blend: AUG-CC-PVTZ
  Basis Set: (AUG-CC-PVTZ AUX)
    Blend: AUG-CC-PVTZ-JKFIT

    Orbital Energies [Eh]
    ---------------------

    Doubly Occupied:

       1A    -11.221510     2A    -11.220485     3A    -11.207710
       4A    -11.207498     5A    -11.207058     6A    -11.206719
       7A     -1.102871     8A     -1.010947     9A     -0.930548
      10A     -0.920600    11A     -0.833212    12A     -0.729436
      13A     -0.640086    14A     -0.609794    15A     -0.605349
      16A     -0.561078    17A     -0.550506    18A     -0.537625
      19A     -0.521312    20A     -0.520131    21A     -0.489248
      22A     -0.484688    23A     -0.448095    24A     -0.442510
      25A     -0.432912

  @DF-RHF Final Energy:  -235.44531055817035

   => Energetics <=

    Nuclear Repulsion Energy =            264.2253328136991399
    One-Electron Energy =                -840.0574305731171307
    Two-Electron Energy =                 340.3867872012476710
    Total Energy =                       -235.4453105581703767
  Basis Set: (AUG-CC-PVTZ AUX)
    Blend: AUG-CC-PVTZ-RI
    Molecular point group: c1

    Geometry (in Angstrom), charge = 0, multiplicity = 1:

       Center              X                  Y                   Z               Mass
    ------------   -----------------  -----------------  -----------------  -----------------
         C            0.707368645172     0.306988799466    -0.349656467624    12.000000000000
         C           -0.703682854828    -0.315676600534    -0.373075667624    12.000000000000
         C            0.981926145172     1.193117399466     0.850504332376    12.000000000000
         C            1.803025145172    -0.730884600534    -0.532636667624    12.000000000000
         C           -0.983257854828    -1.189748600534     0.850656332376    12.000000000000
         C           -1.804536854828     0.734230399466    -0.532406667624    12.000000000000
         H            0.742894145172     0.968809399466    -1.260025667624     1.007825032230
         H           -0.744505854828    -0.965476600534    -1.259909667624     1.007825032230
         H            1.020416145172     0.592225399466     1.764388332376     1.007825032230
         H            1.951116145172     1.691141399466     0.744427332376     1.007825032230
         H            0.224462145172     1.970182399466     0.985696332376     1.007825032230
         H            2.778791145172    -0.250831600534    -0.659963667624     1.007825032230
         H            1.867745145172    -1.377863600534     0.347604332376     1.007825032230
         H            1.622310145172    -1.364684600534    -1.407176667624     1.007825032230
         H           -0.225777854828    -1.966813600534     0.985761332376     1.007825032230
         H           -1.021624854828    -0.588840600534     1.764534332376     1.007825032230
         H           -1.952462854828    -1.687771600534     0.744715332376     1.007825032230
         H           -1.869134854828     1.381225399466     0.347831332376     1.007825032230
         H           -2.780319854828     0.254177399466    -0.659592667624     1.007825032230
         H           -1.623938854828     1.368015399466    -1.406982667624     1.007825032230

  Basis Set: AUG-CC-PVTZ
    Blend: AUG-CC-PVTZ
  Basis Set: (AUG-CC-PVTZ AUX)
    Blend: AUG-CC-PVTZ-JKFIT
	 Reference Energy          =    -235.4453105581703483 [Eh]
	 Singles Energy            =      -0.0000000000000000 [Eh]
	 Same-Spin Energy          =      -0.2545645811455534 [Eh]
	 Opposite-Spin Energy      =      -0.9531671001653357 [Eh]
	 Correlation Energy        =      -1.2077316813108889 [Eh]
	 Total Energy              =    -236.6530422394812376 [Eh]

	 ================> DF-SCS-MP2 Energies <==================
	-----------------------------------------------------------
	 SCS Same-Spin Scale       =       0.3333333333333333 [-]
	 SCS Opposite-Spin Scale   =       1.2000000000000000 [-]
	 SCS Same-Spin Energy      =      -0.0848548603818511 [Eh]
	 SCS Opposite-Spin Energy  =      -1.1438005201984027 [Eh]
	 SCS Correlation Energy    =      -1.2286553805802538 [Eh]
	 SCS Total Energy          =    -236.6739659387505981 [Eh]
	-----------------------------------------------------------

  Dipole Moment: [D]
     X:     0.0021      Y:    -0.0027      Z:    -0.1331     Total:     0.1331

*** Psi4 exiting successfully. Buy a developer a beer!
