                               Psi4 1.3.2 release

  ==> Input File <==

--------------------------------------------------------------------------
#psi4
#
memory 32 gb

molecule  {
0 1
  C        0.7029120     0.3173470    -0.3805850
  C       -0.7029620    -0.3173540    -0.3804860
  C        0.9826470     1.1914400     0.8430940
  C        1.8037460    -0.7325620    -0.5400470
  C       -0.9825370    -1.1914260     0.8432460
  C       -1.8038160     0.7325530    -0.5398170
  H        0.7436150     0.9671320    -1.2674360
  H       -0.7400744    -0.9080906    -1.1867114
  H        1.0211370     0.5905480     1.7569780
  H        1.9518370     1.6894640     0.7370170
  H        0.2251830     1.9685050     0.9782860
  H        2.7795120    -0.2525090    -0.6673740
  H        1.8684660    -1.3795410     0.3401940
  H        1.6230310    -1.3663620    -1.4145870
  H       -0.2250570    -1.9684910     0.9783510
  H       -1.0209040    -0.5905180     1.7571240
  H       -1.9517420    -1.6894490     0.7373050
  H       -1.8684140     1.3795480     0.3404210
  H       -2.7795990     0.2525000    -0.6670030
  H       -1.6232180     1.3663380    -1.4143930
units angstrom
no_reorient  #important for SAPT in psi4, default
symmetry c1  #important for SAPT in psi4, default
}

set PROPERTIES_ORIGIN ["COM"]
properties('MP2/aug-cc-pvtz', properties = ['dipole'])
--------------------------------------------------------------------------

    Molecular point group: c1
  Charge       = 0
  Multiplicity = 1
  Basis Set: AUG-CC-PVTZ
    Blend: AUG-CC-PVTZ
  Basis Set: (AUG-CC-PVTZ AUX)
    Blend: AUG-CC-PVTZ-JKFIT

    Orbital Energies [Eh]
    ---------------------

    Doubly Occupied:

       1A    -11.219429     2A    -11.207615     3A    -11.207327
       4A    -11.206438     5A    -11.206280     6A    -11.206027
       7A     -1.104282     8A     -1.010692     9A     -0.928951
      10A     -0.919362    11A     -0.838505    12A     -0.741494
      13A     -0.643838    14A     -0.608830    15A     -0.603871
      16A     -0.560547    17A     -0.550104    18A     -0.536321
      19A     -0.520280    20A     -0.519671    21A     -0.491157
      22A     -0.485508    23A     -0.451384    24A     -0.444206
      25A     -0.435271

  @DF-RHF Final Energy:  -235.44094329125218

   => Energetics <=

    Nuclear Repulsion Energy =            264.5729979812605279
    One-Electron Energy =                -840.7331041570625985
    Two-Electron Energy =                 340.7191628845498599
    Total Energy =                       -235.4409432912522107
  Basis Set: (AUG-CC-PVTZ AUX)
    Blend: AUG-CC-PVTZ-RI
    Molecular point group: c1

    Geometry (in Angstrom), charge = 0, multiplicity = 1:

       Center              X                  Y                   Z               Mass
    ------------   -----------------  -----------------  -----------------  -----------------
         C            0.702869239113     0.316655872724    -0.370840675238    12.000000000000
         C           -0.703004760887    -0.318045127276    -0.370741675238    12.000000000000
         C            0.982604239113     1.190748872724     0.852838324762    12.000000000000
         C            1.803703239113    -0.733253127276    -0.530302675238    12.000000000000
         C           -0.982579760887    -1.192117127276     0.852990324762    12.000000000000
         C           -1.803858760887     0.731861872724    -0.530072675238    12.000000000000
         H            0.743572239113     0.966440872724    -1.257691675238     1.007825032230
         H           -0.740117160887    -0.908781727276    -1.176967075238     1.007825032230
         H            1.021094239113     0.589856872724     1.766722324762     1.007825032230
         H            1.951794239113     1.688772872724     0.746761324762     1.007825032230
         H            0.225140239113     1.967813872724     0.988030324762     1.007825032230
         H            2.779469239113    -0.253200127276    -0.657629675238     1.007825032230
         H            1.868423239113    -1.380232127276     0.349938324762     1.007825032230
         H            1.622988239113    -1.367053127276    -1.404842675238     1.007825032230
         H           -0.225099760887    -1.969182127276     0.988095324762     1.007825032230
         H           -1.020946760887    -0.591209127276     1.766868324762     1.007825032230
         H           -1.951784760887    -1.690140127276     0.747049324762     1.007825032230
         H           -1.868456760887     1.378856872724     0.350165324762     1.007825032230
         H           -2.779641760887     0.251808872724    -0.657258675238     1.007825032230
         H           -1.623260760887     1.365646872724    -1.404648675238     1.007825032230

  Basis Set: AUG-CC-PVTZ
    Blend: AUG-CC-PVTZ
  Basis Set: (AUG-CC-PVTZ AUX)
    Blend: AUG-CC-PVTZ-JKFIT
	 Reference Energy          =    -235.4409432912521822 [Eh]
	 Singles Energy            =      -0.0000000000000000 [Eh]
	 Same-Spin Energy          =      -0.2543397305909018 [Eh]
	 Opposite-Spin Energy      =      -0.9523607668902500 [Eh]
	 Correlation Energy        =      -1.2067004974811517 [Eh]
	 Total Energy              =    -236.6476437887333475 [Eh]

	 ================> DF-SCS-MP2 Energies <==================
	-----------------------------------------------------------
	 SCS Same-Spin Scale       =       0.3333333333333333 [-]
	 SCS Opposite-Spin Scale   =       1.2000000000000000 [-]
	 SCS Same-Spin Energy      =      -0.0847799101969672 [Eh]
	 SCS Opposite-Spin Energy  =      -1.1428329202682999 [Eh]
	 SCS Correlation Energy    =      -1.2276128304652671 [Eh]
	 SCS Total Energy          =    -236.6685561217174438 [Eh]
	-----------------------------------------------------------

  Dipole Moment: [D]
     X:    -0.0020      Y:    -0.0448      Z:    -0.2046     Total:     0.2094

*** Psi4 exiting successfully. Buy a developer a beer!
