                               Psi4 1.3.2 release

  ==> Input File <==

--------------------------------------------------------------------------
#psi4
#
memory 32 gb

molecule  {
0 1
  C        0.7029120     0.3173470    -0.3805850
  C       -0.7029620    -0.3173540    -0.3804860
  C        0.9826470     1.1914400     0.8430940
  C        1.8037460    -0.7325620    -0.5400470
  C       -0.9825370    -1.1914260     0.8432460
  C       -1.8038160     0.7325530    -0.5398170
  H        0.7436150     0.9671320    -1.2674360
  H       -0.7363638    -0.8490271    -1.1061028
  H        1.0211370     0.5905480     1.7569780
  H        1.9518370     1.6894640     0.7370170
  H        0.2251830     1.9685050     0.9782860
  H        2.7795120    -0.2525090    -0.6673740
  H        1.8684660    -1.3795410     0.3401940
  H        1.6230310    -1.3663620    -1.4145870
  H       -0.2250570    -1.9684910     0.9783510
  H       -1.0209040    -0.5905180     1.7571240
  H       -1.9517420    -1.6894490     0.7373050
  H       -1.8684140     1.3795480     0.3404210
  H       -2.7795990     0.2525000    -0.6670030
  H       -1.6232180     1.3663380    -1.4143930
units angstrom
no_reorient  #important for SAPT in psi4, default
symmetry c1  #important for SAPT in psi4, default
}

set PROPERTIES_ORIGIN ["COM"]
properties('MP2/aug-cc-pvtz', properties = ['dipole'])
--------------------------------------------------------------------------

    Molecular point group: c1
  Charge       = 0
  Multiplicity = 1
  Basis Set: AUG-CC-PVTZ
    Blend: AUG-CC-PVTZ
  Basis Set: (AUG-CC-PVTZ AUX)
    Blend: AUG-CC-PVTZ-JKFIT

    Orbital Energies [Eh]
    ---------------------

    Doubly Occupied:

       1A    -11.218812     2A    -11.207792     3A    -11.205890
       4A    -11.205718     5A    -11.205457     6A    -11.193999
       7A     -1.108644     8A     -1.012840     9A     -0.928772
      10A     -0.919181    11A     -0.845246    12A     -0.752660
      13A     -0.647165    14A     -0.609256    15A     -0.603549
      16A     -0.560467    17A     -0.549779    18A     -0.535982
      19A     -0.520395    20A     -0.519333    21A     -0.495772
      22A     -0.485041    23A     -0.455916    24A     -0.443736
      25A     -0.434765

  @DF-RHF Final Energy:  -235.41455087566263

   => Energetics <=

    Nuclear Repulsion Energy =            265.1629216336268087
    One-Electron Energy =                -841.8226149615049962
    Two-Electron Energy =                 341.2451424522155321
    Total Energy =                       -235.4145508756625986
  Basis Set: (AUG-CC-PVTZ AUX)
    Blend: AUG-CC-PVTZ-RI
    Molecular point group: c1

    Geometry (in Angstrom), charge = 0, multiplicity = 1:

       Center              X                  Y                   Z               Mass
    ------------   -----------------  -----------------  -----------------  -----------------
         C            0.702825810300     0.315964594306    -0.371784117219    12.000000000000
         C           -0.703048189700    -0.318736405694    -0.371685117219    12.000000000000
         C            0.982560810300     1.190057594306     0.851894882781    12.000000000000
         C            1.803659810300    -0.733944405694    -0.531246117219    12.000000000000
         C           -0.982623189700    -1.192808405694     0.852046882781    12.000000000000
         C           -1.803902189700     0.731170594306    -0.531016117219    12.000000000000
         H            0.743528810300     0.965749594306    -1.258635117219     1.007825032230
         H           -0.736449989700    -0.850409505694    -1.097301917219     1.007825032230
         H            1.021050810300     0.589165594306     1.765778882781     1.007825032230
         H            1.951750810300     1.688081594306     0.745817882781     1.007825032230
         H            0.225096810300     1.967122594306     0.987086882781     1.007825032230
         H            2.779425810300    -0.253891405694    -0.658573117219     1.007825032230
         H            1.868379810300    -1.380923405694     0.348994882781     1.007825032230
         H            1.622944810300    -1.367744405694    -1.405786117219     1.007825032230
         H           -0.225143189700    -1.969873405694     0.987151882781     1.007825032230
         H           -1.020990189700    -0.591900405694     1.765924882781     1.007825032230
         H           -1.951828189700    -1.690831405694     0.746105882781     1.007825032230
         H           -1.868500189700     1.378165594306     0.349221882781     1.007825032230
         H           -2.779685189700     0.251117594306    -0.658202117219     1.007825032230
         H           -1.623304189700     1.364955594306    -1.405592117219     1.007825032230

  Basis Set: AUG-CC-PVTZ
    Blend: AUG-CC-PVTZ
  Basis Set: (AUG-CC-PVTZ AUX)
    Blend: AUG-CC-PVTZ-JKFIT
	 Reference Energy          =    -235.4145508756626270 [Eh]
	 Singles Energy            =      -0.0000000000000000 [Eh]
	 Same-Spin Energy          =      -0.2543361187160039 [Eh]
	 Opposite-Spin Energy      =      -0.9521487677306044 [Eh]
	 Correlation Energy        =      -1.2064848864466082 [Eh]
	 Total Energy              =    -236.6210357621092442 [Eh]

	 ================> DF-SCS-MP2 Energies <==================
	-----------------------------------------------------------
	 SCS Same-Spin Scale       =       0.3333333333333333 [-]
	 SCS Opposite-Spin Scale   =       1.2000000000000000 [-]
	 SCS Same-Spin Energy      =      -0.0847787062386680 [Eh]
	 SCS Opposite-Spin Energy  =      -1.1425785212767252 [Eh]
	 SCS Correlation Energy    =      -1.2273572275153932 [Eh]
	 SCS Total Energy          =    -236.6419081031780252 [Eh]
	-----------------------------------------------------------

  Dipole Moment: [D]
     X:    -0.0026      Y:    -0.0751      Z:    -0.2459     Total:     0.2572

*** Psi4 exiting successfully. Buy a developer a beer!
