                               Psi4 1.3.2 release

  ==> Input File <==

--------------------------------------------------------------------------
#psi4
#
memory 32 gb

molecule  {
0 1
  C        0.7029120     0.3173470    -0.3805850
  C       -0.7029620    -0.3173540    -0.3804860
  C        0.9826470     1.1914400     0.8430940
  C        1.8037460    -0.7325620    -0.5400470
  C       -0.9799180    -1.1699532     0.8588905
  C       -1.8038160     0.7325530    -0.5398170
  H        0.7436150     0.9671320    -1.2674360
  H       -0.7437850    -0.9671540    -1.2673200
  H        1.0211370     0.5905480     1.7569780
  H        1.9518370     1.6894640     0.7370170
  H        0.2251830     1.9685050     0.9782860
  H        2.7795120    -0.2525090    -0.6673740
  H        1.8684660    -1.3795410     0.3401940
  H        1.6230310    -1.3663620    -1.4145870
  H       -0.2250570    -1.9684910     0.9783510
  H       -1.0209040    -0.5905180     1.7571240
  H       -1.9517420    -1.6894490     0.7373050
  H       -1.8684140     1.3795480     0.3404210
  H       -2.7795990     0.2525000    -0.6670030
  H       -1.6232180     1.3663380    -1.4143930
units angstrom
no_reorient  #important for SAPT in psi4, default
symmetry c1  #important for SAPT in psi4, default
}

set PROPERTIES_ORIGIN ["COM"]
properties('MP2/aug-cc-pvtz', properties = ['dipole'])
--------------------------------------------------------------------------

    Molecular point group: c1
  Charge       = 0
  Multiplicity = 1
  Basis Set: AUG-CC-PVTZ
    Blend: AUG-CC-PVTZ
  Basis Set: (AUG-CC-PVTZ AUX)
    Blend: AUG-CC-PVTZ-JKFIT

    Orbital Energies [Eh]
    ---------------------

    Doubly Occupied:

       1A    -11.220585     2A    -11.219906     3A    -11.207318
       4A    -11.207261     5A    -11.207205     6A    -11.207171
       7A     -1.101830     8A     -1.009364     9A     -0.928971
      10A     -0.919903    11A     -0.834447    12A     -0.732226
      13A     -0.639999    14A     -0.608621    15A     -0.603385
      16A     -0.560719    17A     -0.554231    18A     -0.534720
      19A     -0.521334    20A     -0.517988    21A     -0.489028
      22A     -0.484838    23A     -0.447569    24A     -0.443570
      25A     -0.434559

  @DF-RHF Final Energy:  -235.44561254938188

   => Energetics <=

    Nuclear Repulsion Energy =            264.1404045048063267
    One-Electron Energy =                -839.8985382611218711
    Two-Electron Energy =                 340.3125212069337522
    Total Energy =                       -235.4456125493818490
  Basis Set: (AUG-CC-PVTZ AUX)
    Blend: AUG-CC-PVTZ-RI
    Molecular point group: c1

    Geometry (in Angstrom), charge = 0, multiplicity = 1:

       Center              X                  Y                   Z               Mass
    ------------   -----------------  -----------------  -----------------  -----------------
         C            0.702547690989     0.314354757157    -0.372077409544    12.000000000000
         C           -0.703326309011    -0.320346242843    -0.371978409544    12.000000000000
         C            0.982282690989     1.188447757157     0.851601590456    12.000000000000
         C            1.803381690989    -0.735554242843    -0.531539409544    12.000000000000
         C           -0.980282309011    -1.172945442843     0.867398090456    12.000000000000
         C           -1.804180309011     0.729560757157    -0.531309409544    12.000000000000
         H            0.743250690989     0.964139757157    -1.258928409544     1.007825032230
         H           -0.744149309011    -0.970146242843    -1.258812409544     1.007825032230
         H            1.020772690989     0.587555757157     1.765485590456     1.007825032230
         H            1.951472690989     1.686471757157     0.745524590456     1.007825032230
         H            0.224818690989     1.965512757157     0.986793590456     1.007825032230
         H            2.779147690989    -0.255501242843    -0.658866409544     1.007825032230
         H            1.868101690989    -1.382533242843     0.348701590456     1.007825032230
         H            1.622666690989    -1.369354242843    -1.406079409544     1.007825032230
         H           -0.225421309011    -1.971483242843     0.986858590456     1.007825032230
         H           -1.021268309011    -0.593510242843     1.765631590456     1.007825032230
         H           -1.952106309011    -1.692441242843     0.745812590456     1.007825032230
         H           -1.868778309011     1.376555757157     0.348928590456     1.007825032230
         H           -2.779963309011     0.249507757157    -0.658495409544     1.007825032230
         H           -1.623582309011     1.363345757157    -1.405885409544     1.007825032230

  Basis Set: AUG-CC-PVTZ
    Blend: AUG-CC-PVTZ
  Basis Set: (AUG-CC-PVTZ AUX)
    Blend: AUG-CC-PVTZ-JKFIT
	 Reference Energy          =    -235.4456125493818774 [Eh]
	 Singles Energy            =      -0.0000000000000000 [Eh]
	 Same-Spin Energy          =      -0.2544310472379284 [Eh]
	 Opposite-Spin Energy      =      -0.9530287034705884 [Eh]
	 Correlation Energy        =      -1.2074597507085167 [Eh]
	 Total Energy              =    -236.6530723000904004 [Eh]

	 ================> DF-SCS-MP2 Energies <==================
	-----------------------------------------------------------
	 SCS Same-Spin Scale       =       0.3333333333333333 [-]
	 SCS Opposite-Spin Scale   =       1.2000000000000000 [-]
	 SCS Same-Spin Energy      =      -0.0848103490793095 [Eh]
	 SCS Opposite-Spin Energy  =      -1.1436344441647062 [Eh]
	 SCS Correlation Energy    =      -1.2284447932440157 [Eh]
	 SCS Total Energy          =    -236.6740573426259004 [Eh]
	-----------------------------------------------------------

  Dipole Moment: [D]
     X:     0.0000      Y:     0.0068      Z:    -0.1348     Total:     0.1350

*** Psi4 exiting successfully. Buy a developer a beer!
