                               Psi4 1.3.2 release

  ==> Input File <==

--------------------------------------------------------------------------
#psi4
#
memory 32 gb

molecule  {
0 1
  C        0.7029120     0.3173470    -0.3805850
  C       -0.7029620    -0.3173540    -0.3804860
  C        0.9826470     1.1914400     0.8430940
  C        1.8037460    -0.7325620    -0.5400470
  C       -1.0008146    -1.2485697     0.9232493
  C       -1.8038160     0.7325530    -0.5398170
  H        0.7436150     0.9671320    -1.2674360
  H       -0.7437850    -0.9671540    -1.2673200
  H        1.0211370     0.5905480     1.7569780
  H        1.9518370     1.6894640     0.7370170
  H        0.2251830     1.9685050     0.9782860
  H        2.7795120    -0.2525090    -0.6673740
  H        1.8684660    -1.3795410     0.3401940
  H        1.6230310    -1.3663620    -1.4145870
  H       -0.2250570    -1.9684910     0.9783510
  H       -1.0209040    -0.5905180     1.7571240
  H       -1.9517420    -1.6894490     0.7373050
  H       -1.8684140     1.3795480     0.3404210
  H       -2.7795990     0.2525000    -0.6670030
  H       -1.6232180     1.3663380    -1.4143930
units angstrom
no_reorient  #important for SAPT in psi4, default
symmetry c1  #important for SAPT in psi4, default
}

set PROPERTIES_ORIGIN ["COM"]
properties('MP2/aug-cc-pvtz', properties = ['dipole'])
--------------------------------------------------------------------------

    Molecular point group: c1
  Charge       = 0
  Multiplicity = 1
  Basis Set: AUG-CC-PVTZ
    Blend: AUG-CC-PVTZ
  Basis Set: (AUG-CC-PVTZ AUX)
    Blend: AUG-CC-PVTZ-JKFIT

    Orbital Energies [Eh]
    ---------------------

    Doubly Occupied:

       1A    -11.224514     2A    -11.220280     3A    -11.207592
       4A    -11.207510     5A    -11.207200     6A    -11.203417
       7A     -1.095190     8A     -1.004186     9A     -0.930004
      10A     -0.921282    11A     -0.835122    12A     -0.729993
      13A     -0.638251    14A     -0.608375    15A     -0.601899
      16A     -0.561215    17A     -0.556410    18A     -0.541661
      19A     -0.526198    20A     -0.522171    21A     -0.491824
      22A     -0.481227    23A     -0.447125    24A     -0.440362
      25A     -0.424999

  @DF-RHF Final Energy:  -235.43953548395314

   => Energetics <=

    Nuclear Repulsion Energy =            262.6151637879177088
    One-Electron Energy =                -836.8533903916887766
    Two-Electron Energy =                 338.7986911198179314
    Total Energy =                       -235.4395354839531365
  Basis Set: (AUG-CC-PVTZ AUX)
    Blend: AUG-CC-PVTZ-RI
    Molecular point group: c1

    Geometry (in Angstrom), charge = 0, multiplicity = 1:

       Center              X                  Y                   Z               Mass
    ------------   -----------------  -----------------  -----------------  -----------------
         C            0.705459786090     0.325310545395    -0.381046282287    12.000000000000
         C           -0.700414213910    -0.309390454605    -0.380947282287    12.000000000000
         C            0.985194786090     1.199403545395     0.842632717713    12.000000000000
         C            1.806293786090    -0.724598454605    -0.540508282287    12.000000000000
         C           -0.998266813910    -1.240606154605     0.922788017713    12.000000000000
         C           -1.801268213910     0.740516545395    -0.540278282287    12.000000000000
         H            0.746162786090     0.975095545395    -1.267897282287     1.007825032230
         H           -0.741237213910    -0.959190454605    -1.267781282287     1.007825032230
         H            1.023684786090     0.598511545395     1.756516717713     1.007825032230
         H            1.954384786090     1.697427545395     0.736555717713     1.007825032230
         H            0.227730786090     1.976468545395     0.977824717713     1.007825032230
         H            2.782059786090    -0.244545454605    -0.667835282287     1.007825032230
         H            1.871013786090    -1.371577454605     0.339732717713     1.007825032230
         H            1.625578786090    -1.358398454605    -1.415048282287     1.007825032230
         H           -0.222509213910    -1.960527454605     0.977889717713     1.007825032230
         H           -1.018356213910    -0.582554454605     1.756662717713     1.007825032230
         H           -1.949194213910    -1.681485454605     0.736843717713     1.007825032230
         H           -1.865866213910     1.387511545395     0.339959717713     1.007825032230
         H           -2.777051213910     0.260463545395    -0.667464282287     1.007825032230
         H           -1.620670213910     1.374301545395    -1.414854282287     1.007825032230

  Basis Set: AUG-CC-PVTZ
    Blend: AUG-CC-PVTZ
  Basis Set: (AUG-CC-PVTZ AUX)
    Blend: AUG-CC-PVTZ-JKFIT
	 Reference Energy          =    -235.4395354839531365 [Eh]
	 Singles Energy            =      -0.0000000000000000 [Eh]
	 Same-Spin Energy          =      -0.2539826137571037 [Eh]
	 Opposite-Spin Energy      =      -0.9529098068628948 [Eh]
	 Correlation Energy        =      -1.2068924206199985 [Eh]
	 Total Energy              =    -236.6464279045731303 [Eh]

	 ================> DF-SCS-MP2 Energies <==================
	-----------------------------------------------------------
	 SCS Same-Spin Scale       =       0.3333333333333333 [-]
	 SCS Opposite-Spin Scale   =       1.2000000000000000 [-]
	 SCS Same-Spin Energy      =      -0.0846608712523679 [Eh]
	 SCS Opposite-Spin Energy  =      -1.1434917682354737 [Eh]
	 SCS Correlation Energy    =      -1.2281526394878417 [Eh]
	 SCS Total Energy          =    -236.6676881234409677 [Eh]
	-----------------------------------------------------------

  Dipole Moment: [D]
     X:     0.0084      Y:     0.0280      Z:    -0.1724     Total:     0.1748

*** Psi4 exiting successfully. Buy a developer a beer!
