                               Psi4 1.3.2 release

  ==> Input File <==

--------------------------------------------------------------------------
#psi4
#
memory 32 gb

molecule  {
0 1
  C        0.7029120     0.3173470    -0.3805850
  C       -0.7029620    -0.3173540    -0.3804860
  C        0.9826470     1.1914400     0.8430940
  C        1.8037460    -0.7325620    -0.5400470
  C       -0.9642594    -1.1342823     0.7632427
  C       -1.8038160     0.7325530    -0.5398170
  H        0.7436150     0.9671320    -1.2674360
  H       -0.7437850    -0.9671540    -1.2673200
  H        1.0211370     0.5905480     1.7569780
  H        1.9518370     1.6894640     0.7370170
  H        0.2251830     1.9685050     0.9782860
  H        2.7795120    -0.2525090    -0.6673740
  H        1.8684660    -1.3795410     0.3401940
  H        1.6230310    -1.3663620    -1.4145870
  H       -0.2250570    -1.9684910     0.9783510
  H       -1.0209040    -0.5905180     1.7571240
  H       -1.9517420    -1.6894490     0.7373050
  H       -1.8684140     1.3795480     0.3404210
  H       -2.7795990     0.2525000    -0.6670030
  H       -1.6232180     1.3663380    -1.4143930
units angstrom
no_reorient  #important for SAPT in psi4, default
symmetry c1  #important for SAPT in psi4, default
}

set PROPERTIES_ORIGIN ["COM"]
properties('MP2/aug-cc-pvtz', properties = ['dipole'])
--------------------------------------------------------------------------

    Molecular point group: c1
  Charge       = 0
  Multiplicity = 1
  Basis Set: AUG-CC-PVTZ
    Blend: AUG-CC-PVTZ
  Basis Set: (AUG-CC-PVTZ AUX)
    Blend: AUG-CC-PVTZ-JKFIT

    Orbital Energies [Eh]
    ---------------------

    Doubly Occupied:

       1A    -11.220874     2A    -11.215516     3A    -11.213415
       4A    -11.207963     5A    -11.207466     6A    -11.207122
       7A     -1.111911     8A     -1.016046     9A     -0.929709
      10A     -0.918688    11A     -0.832860    12A     -0.734032
      13A     -0.643718    14A     -0.611576    15A     -0.607796
      16A     -0.562497    17A     -0.548153    18A     -0.536751
      19A     -0.520154    20A     -0.512232    21A     -0.493050
      22A     -0.477370    23A     -0.455078    24A     -0.439193
      25A     -0.431113

  @DF-RHF Final Energy:  -235.43458586604774

   => Energetics <=

    Nuclear Repulsion Energy =            265.5800056356511050
    One-Electron Energy =                -842.7206175996976754
    Two-Electron Energy =                 341.7060260979988016
    Total Energy =                       -235.4345858660477688
  Basis Set: (AUG-CC-PVTZ AUX)
    Blend: AUG-CC-PVTZ-RI
    Molecular point group: c1

    Geometry (in Angstrom), charge = 0, multiplicity = 1:

       Center              X                  Y                   Z               Mass
    ------------   -----------------  -----------------  -----------------  -----------------
         C            0.700365549763     0.309383754547    -0.358748184225    12.000000000000
         C           -0.705508450237    -0.325317245453    -0.358649184225    12.000000000000
         C            0.980100549763     1.183476754547     0.864930815775    12.000000000000
         C            1.801199549763    -0.740525245453    -0.518210184225    12.000000000000
         C           -0.966805850237    -1.142245545453     0.785079515775    12.000000000000
         C           -1.806362450237     0.724589754547    -0.517980184225    12.000000000000
         H            0.741068549763     0.959168754547    -1.245599184225     1.007825032230
         H           -0.746331450237    -0.975117245453    -1.245483184225     1.007825032230
         H            1.018590549763     0.582584754547     1.778814815775     1.007825032230
         H            1.949290549763     1.681500754547     0.758853815775     1.007825032230
         H            0.222636549763     1.960541754547     1.000122815775     1.007825032230
         H            2.776965549763    -0.260472245453    -0.645537184225     1.007825032230
         H            1.865919549763    -1.387504245453     0.362030815775     1.007825032230
         H            1.620484549763    -1.374325245453    -1.392750184225     1.007825032230
         H           -0.227603450237    -1.976454245453     1.000187815775     1.007825032230
         H           -1.023450450237    -0.598481245453     1.778960815775     1.007825032230
         H           -1.954288450237    -1.697412245453     0.759141815775     1.007825032230
         H           -1.870960450237     1.371584754547     0.362257815775     1.007825032230
         H           -2.782145450237     0.244536754547    -0.645166184225     1.007825032230
         H           -1.625764450237     1.358374754547    -1.392556184225     1.007825032230

  Basis Set: AUG-CC-PVTZ
    Blend: AUG-CC-PVTZ
  Basis Set: (AUG-CC-PVTZ AUX)
    Blend: AUG-CC-PVTZ-JKFIT
	 Reference Energy          =    -235.4345858660477404 [Eh]
	 Singles Energy            =      -0.0000000000000000 [Eh]
	 Same-Spin Energy          =      -0.2555889048614891 [Eh]
	 Opposite-Spin Energy      =      -0.9543402690138085 [Eh]
	 Correlation Energy        =      -1.2099291738752975 [Eh]
	 Total Energy              =    -236.6445150399230499 [Eh]

	 ================> DF-SCS-MP2 Energies <==================
	-----------------------------------------------------------
	 SCS Same-Spin Scale       =       0.3333333333333333 [-]
	 SCS Opposite-Spin Scale   =       1.2000000000000000 [-]
	 SCS Same-Spin Energy      =      -0.0851963016204964 [Eh]
	 SCS Opposite-Spin Energy  =      -1.1452083228165701 [Eh]
	 SCS Correlation Energy    =      -1.2304046244370666 [Eh]
	 SCS Total Energy          =    -236.6649904904847972 [Eh]
	-----------------------------------------------------------

  Dipole Moment: [D]
     X:     0.0026      Y:    -0.0006      Z:    -0.1465     Total:     0.1465

*** Psi4 exiting successfully. Buy a developer a beer!
