                               Psi4 1.3.2 release

  ==> Input File <==

--------------------------------------------------------------------------
#psi4
#
memory 32 gb

molecule  {
0 1
  C        0.7029120     0.3173470    -0.3805850
  C       -0.7029620    -0.3173540    -0.3804860
  C        0.9826470     1.1914400     0.8430940
  C        1.8037460    -0.7325620    -0.5400470
  C       -0.9825370    -1.1914260     0.8432460
  C       -1.8038160     0.7325530    -0.5398170
  H        0.7436150     0.9671320    -1.2674360
  H       -0.7437850    -0.9671540    -1.2673200
  H        1.0211370     0.5905480     1.7569780
  H        1.9518370     1.6894640     0.7370170
  H        0.2251830     1.9685050     0.9782860
  H        2.7795120    -0.2525090    -0.6673740
  H        1.8684660    -1.3795410     0.3401940
  H        1.6230310    -1.3663620    -1.4145870
  H       -0.2250570    -1.9684910     0.9783510
  H       -0.9132884    -0.5589869     1.7337295
  H       -1.9517420    -1.6894490     0.7373050
  H       -1.8684140     1.3795480     0.3404210
  H       -2.7795990     0.2525000    -0.6670030
  H       -1.6232180     1.3663380    -1.4143930
units angstrom
no_reorient  #important for SAPT in psi4, default
symmetry c1  #important for SAPT in psi4, default
}

set PROPERTIES_ORIGIN ["COM"]
properties('MP2/aug-cc-pvtz', properties = ['dipole'])
--------------------------------------------------------------------------

    Molecular point group: c1
  Charge       = 0
  Multiplicity = 1
  Basis Set: AUG-CC-PVTZ
    Blend: AUG-CC-PVTZ
  Basis Set: (AUG-CC-PVTZ AUX)
    Blend: AUG-CC-PVTZ-JKFIT

    Orbital Energies [Eh]
    ---------------------

    Doubly Occupied:

       1A    -11.220558     2A    -11.219463     3A    -11.207618
       4A    -11.207495     5A    -11.207305     6A    -11.207052
       7A     -1.102036     8A     -1.009430     9A     -0.929430
      10A     -0.920207    11A     -0.833799    12A     -0.730932
      13A     -0.642626    14A     -0.607485    15A     -0.604427
      16A     -0.560780    17A     -0.551187    18A     -0.537865
      19A     -0.523871    20A     -0.518777    21A     -0.487379
      22A     -0.484055    23A     -0.444907    24A     -0.443382
      25A     -0.436325

  @DF-RHF Final Energy:  -235.44501518106478

   => Energetics <=

    Nuclear Repulsion Energy =            264.2080966988202704
    One-Electron Energy =                -840.0294424245396385
    Two-Electron Energy =                 340.3763305446545360
    Total Energy =                       -235.4450151810647753
  Basis Set: (AUG-CC-PVTZ AUX)
    Blend: AUG-CC-PVTZ-RI
    Molecular point group: c1

    Geometry (in Angstrom), charge = 0, multiplicity = 1:

       Center              X                  Y                   Z               Mass
    ------------   -----------------  -----------------  -----------------  -----------------
         C            0.701653136377     0.316978110396    -0.369623424340    12.000000000000
         C           -0.704220863623    -0.317722889604    -0.369524424340    12.000000000000
         C            0.981388136377     1.191071110396     0.854055575660    12.000000000000
         C            1.802487136377    -0.732930889604    -0.529085424340    12.000000000000
         C           -0.983795863623    -1.191794889604     0.854207575660    12.000000000000
         C           -1.805074863623     0.732184110396    -0.528855424340    12.000000000000
         H            0.742356136377     0.966763110396    -1.256474424340     1.007825032230
         H           -0.745043863623    -0.967522889604    -1.256358424340     1.007825032230
         H            1.019878136377     0.590179110396     1.767939575660     1.007825032230
         H            1.950578136377     1.689095110396     0.747978575660     1.007825032230
         H            0.223924136377     1.968136110396     0.989247575660     1.007825032230
         H            2.778253136377    -0.252877889604    -0.656412424340     1.007825032230
         H            1.867207136377    -1.379909889604     0.351155575660     1.007825032230
         H            1.621772136377    -1.366730889604    -1.403625424340     1.007825032230
         H           -0.226315863623    -1.968859889604     0.989312575660     1.007825032230
         H           -0.914547263623    -0.559355789604     1.744691075660     1.007825032230
         H           -1.953000863623    -1.689817889604     0.748266575660     1.007825032230
         H           -1.869672863623     1.379179110396     0.351382575660     1.007825032230
         H           -2.780857863623     0.252131110396    -0.656041424340     1.007825032230
         H           -1.624476863623     1.365969110396    -1.403431424340     1.007825032230

  Basis Set: AUG-CC-PVTZ
    Blend: AUG-CC-PVTZ
  Basis Set: (AUG-CC-PVTZ AUX)
    Blend: AUG-CC-PVTZ-JKFIT
	 Reference Energy          =    -235.4450151810647753 [Eh]
	 Singles Energy            =      -0.0000000000000000 [Eh]
	 Same-Spin Energy          =      -0.2545447310986050 [Eh]
	 Opposite-Spin Energy      =      -0.9531490694335887 [Eh]
	 Correlation Energy        =      -1.2076938005321938 [Eh]
	 Total Energy              =    -236.6527089815969589 [Eh]

	 ================> DF-SCS-MP2 Energies <==================
	-----------------------------------------------------------
	 SCS Same-Spin Scale       =       0.3333333333333333 [-]
	 SCS Opposite-Spin Scale   =       1.2000000000000000 [-]
	 SCS Same-Spin Energy      =      -0.0848482436995350 [Eh]
	 SCS Opposite-Spin Energy  =      -1.1437788833203064 [Eh]
	 SCS Correlation Energy    =      -1.2286271270198414 [Eh]
	 SCS Total Energy          =    -236.6736423080846237 [Eh]
	-----------------------------------------------------------

  Dipole Moment: [D]
     X:     0.0346      Y:     0.0032      Z:    -0.1576     Total:     0.1614

*** Psi4 exiting successfully. Buy a developer a beer!
