                               Psi4 1.4a3.dev225

  ==> Input File <==

--------------------------------------------------------------------------
#psi4
#
memory 32 gb

molecule  {
0 1
  C        0.7029150     0.3173330    -0.3805920
  C       -0.7029660    -0.3173390    -0.3804920
  C        0.9826460     1.1915080     0.8430290
  C        1.8037540    -0.7325950    -0.5399760
  C       -0.9861874    -1.2029238     0.8591799
  C       -1.8038280     0.7325860    -0.5397480
  H        0.7436620     0.9670620    -1.2674850
  H       -0.7438300    -0.9670830    -1.2673690
  H        1.0210420     0.5906890     1.7569670
  H        1.9518800     1.6894470     0.7369640
  H        0.2252310     1.9686380     0.9781220
  H        2.7795150    -0.2525500    -0.6673430
  H        1.8684590    -1.3794860     0.3403280
  H        1.6230140    -1.3664690    -1.4144560
  H       -0.2250960    -1.9686200     0.9781850
  H       -1.0208080    -0.5906600     1.7571130
  H       -1.9517780    -1.6894370     0.7372520
  H       -1.8684180     1.3794910     0.3405540
  H       -2.7796050     0.2525370    -0.6669790
  H       -1.6232050     1.3664460    -1.4142620
units angstrom
no_reorient  #important for SAPT in psi4, default
symmetry c1  #important for SAPT in psi4, default
}

set PROPERTIES_ORIGIN ["COM"]
properties('MP2/aug-cc-pvtz', properties = ['dipole'])
--------------------------------------------------------------------------

    Molecular point group: c1
  Charge       = 0
  Multiplicity = 1
  Basis Set: AUG-CC-PVTZ
    Blend: AUG-CC-PVTZ
  Basis Set: (AUG-CC-PVTZ AUX)
    Blend: AUG-CC-PVTZ-JKFIT

    Orbital Energies [Eh]
    ---------------------

    Doubly Occupied:

       1A    -11.221270     2A    -11.220174     3A    -11.207463
       4A    -11.207417     5A    -11.207099     6A    -11.206116
       7A     -1.100086     8A     -1.008238     9A     -0.929416
      10A     -0.920039    11A     -0.834489    12A     -0.731448
      13A     -0.639699    14A     -0.608150    15A     -0.603593
      16A     -0.560667    17A     -0.551528    18A     -0.537417
      19A     -0.521909    20A     -0.520575    21A     -0.487459
      22A     -0.485948    23A     -0.445462    24A     -0.443080
      25A     -0.435676

  @DF-RHF Final Energy:  -235.44635036382965

   => Energetics <=

    Nuclear Repulsion Energy =            263.7577453982177644
    One-Electron Energy =                -839.1393552586741862
    Two-Electron Energy =                 339.9352594966267134
    Total Energy =                       -235.4463503638296515
  Basis Set: (AUG-CC-PVTZ AUX)
    Blend: AUG-CC-PVTZ-RI
    Molecular point group: c1

    Geometry (in Angstrom), charge = 0, multiplicity = 1:

       Center              X                  Y                   Z               Mass
    ------------   -----------------  -----------------  -----------------  -----------------
         C            0.703425202490     0.318925907641    -0.372133707433    12.000000000000
         C           -0.702455797510    -0.315746092359    -0.372033707433    12.000000000000
         C            0.983156202490     1.193100907641     0.851487292567    12.000000000000
         C            1.804264202490    -0.731002092359    -0.531517707433    12.000000000000
         C           -0.985677197510    -1.201330892359     0.867638192567    12.000000000000
         C           -1.803317797510     0.734178907641    -0.531289707433    12.000000000000
         H            0.744172202490     0.968654907641    -1.259026707433     1.007825032230
         H           -0.743319797510    -0.965490092359    -1.258910707433     1.007825032230
         H            1.021552202490     0.592281907641     1.765425292567     1.007825032230
         H            1.952390202490     1.691039907641     0.745422292567     1.007825032230
         H            0.225741202490     1.970230907641     0.986580292567     1.007825032230
         H            2.780025202490    -0.250957092359    -0.658884707433     1.007825032230
         H            1.868969202490    -1.377893092359     0.348786292567     1.007825032230
         H            1.623524202490    -1.364876092359    -1.405997707433     1.007825032230
         H           -0.224585797510    -1.967027092359     0.986643292567     1.007825032230
         H           -1.020297797510    -0.589067092359     1.765571292567     1.007825032230
         H           -1.951267797510    -1.687844092359     0.745710292567     1.007825032230
         H           -1.867907797510     1.381083907641     0.349012292567     1.007825032230
         H           -2.779094797510     0.254129907641    -0.658520707433     1.007825032230
         H           -1.622694797510     1.368038907641    -1.405803707433     1.007825032230

  Basis Set: AUG-CC-PVTZ
    Blend: AUG-CC-PVTZ
  Basis Set: (AUG-CC-PVTZ AUX)
    Blend: AUG-CC-PVTZ-JKFIT
	 Reference Energy          =    -235.4463503638296515 [Eh]
	 Singles Energy            =      -0.0000000000000000 [Eh]
	 Same-Spin Energy          =      -0.2542520721705298 [Eh]
	 Opposite-Spin Energy      =      -0.9528322736556136 [Eh]
	 Correlation Energy        =      -1.2070843458261433 [Eh]
	 Total Energy              =    -236.6534347096557838 [Eh]

	 ================> DF-SCS-MP2 Energies <==================
	-----------------------------------------------------------
	 SCS Same-Spin Scale       =       0.3333333333333333 [-]
	 SCS Opposite-Spin Scale   =       1.2000000000000000 [-]
	 SCS Same-Spin Energy      =      -0.0847506907235099 [Eh]
	 SCS Opposite-Spin Energy  =      -1.1433987283867364 [Eh]
	 SCS Correlation Energy    =      -1.2281494191102462 [Eh]
	 SCS Total Energy          =    -236.6744997829399040 [Eh]
	-----------------------------------------------------------

  Dipole Moment: [D]
     X:     0.0008      Y:     0.0034      Z:    -0.1464     Total:     0.1464

*** Psi4 exiting successfully. Buy a developer a beer!
