                               Psi4 1.4a3.dev225

  ==> Input File <==

--------------------------------------------------------------------------
#psi4
#
memory 32 gb

molecule  {
0 1
  C        0.7029150     0.3173330    -0.3805920
  C       -0.7029660    -0.3173390    -0.3804920
  C        0.9826460     1.1915080     0.8430290
  C        1.8037540    -0.7325950    -0.5399760
  C       -0.9825320    -1.1914940     0.8431800
  C       -1.8038280     0.7325860    -0.5397480
  H        0.7436620     0.9670620    -1.2674850
  H       -0.7438300    -0.9670830    -1.2673690
  H        1.0210420     0.5906890     1.7569670
  H        1.9518800     1.6894470     0.7369640
  H        0.2252310     1.9686380     0.9781220
  H        2.7795150    -0.2525500    -0.6673430
  H        1.8684590    -1.3794860     0.3403280
  H        1.6230140    -1.3664690    -1.4144560
  H       -0.2250960    -1.9686200     0.9781850
  H       -1.0208080    -0.5906600     1.7571130
  H       -1.9075125    -1.6666959     0.7420897
  H       -1.8684180     1.3794910     0.3405540
  H       -2.7796050     0.2525370    -0.6669790
  H       -1.6232050     1.3664460    -1.4142620
units angstrom
no_reorient  #important for SAPT in psi4, default
symmetry c1  #important for SAPT in psi4, default
}

set PROPERTIES_ORIGIN ["COM"]
properties('MP2/aug-cc-pvtz', properties = ['dipole'])
--------------------------------------------------------------------------

    Molecular point group: c1
  Charge       = 0
  Multiplicity = 1
  Basis Set: AUG-CC-PVTZ
    Blend: AUG-CC-PVTZ
  Basis Set: (AUG-CC-PVTZ AUX)
    Blend: AUG-CC-PVTZ-JKFIT

    Orbital Energies [Eh]
    ---------------------

    Doubly Occupied:

       1A    -11.220135     2A    -11.219551     3A    -11.207441
       4A    -11.207134     5A    -11.206758     6A    -11.200771
       7A     -1.101660     8A     -1.010245     9A     -0.930994
      10A     -0.920918    11A     -0.835008    12A     -0.732332
      13A     -0.642238    14A     -0.607959    15A     -0.604020
      16A     -0.560561    17A     -0.550169    18A     -0.540966
      19A     -0.523774    20A     -0.519862    21A     -0.487287
      22A     -0.485383    23A     -0.445067    24A     -0.444383
      25A     -0.436354

  @DF-RHF Final Energy:  -235.44545588608253

   => Energetics <=

    Nuclear Repulsion Energy =            264.2801679885378690
    One-Electron Energy =                -840.1693096480842087
    Two-Electron Energy =                 340.4436857734638124
    Total Energy =                       -235.4454558860825273
  Basis Set: (AUG-CC-PVTZ AUX)
    Blend: AUG-CC-PVTZ-RI
    Molecular point group: c1

    Geometry (in Angstrom), charge = 0, multiplicity = 1:

       Center              X                  Y                   Z               Mass
    ------------   -----------------  -----------------  -----------------  -----------------
         C            0.702397712757     0.317066919306    -0.369960623915    12.000000000000
         C           -0.703483287243    -0.317605080694    -0.369860623915    12.000000000000
         C            0.982128712757     1.191241919306     0.853660376085    12.000000000000
         C            1.803236712757    -0.732861080694    -0.529344623915    12.000000000000
         C           -0.983049287243    -1.191760080694     0.853811376085    12.000000000000
         C           -1.804345287243     0.732319919306    -0.529116623915    12.000000000000
         H            0.743144712757     0.966795919306    -1.256853623915     1.007825032230
         H           -0.744347287243    -0.967349080694    -1.256737623915     1.007825032230
         H            1.020524712757     0.590422919306     1.767598376085     1.007825032230
         H            1.951362712757     1.689180919306     0.747595376085     1.007825032230
         H            0.224713712757     1.968371919306     0.988753376085     1.007825032230
         H            2.778997712757    -0.252816080694    -0.656711623915     1.007825032230
         H            1.867941712757    -1.379752080694     0.350959376085     1.007825032230
         H            1.622496712757    -1.366735080694    -1.403824623915     1.007825032230
         H           -0.225613287243    -1.968886080694     0.988816376085     1.007825032230
         H           -1.021325287243    -0.590926080694     1.767744376085     1.007825032230
         H           -1.908029787243    -1.666961980694     0.752721076085     1.007825032230
         H           -1.868935287243     1.379224919306     0.351185376085     1.007825032230
         H           -2.780122287243     0.252270919306    -0.656347623915     1.007825032230
         H           -1.623722287243     1.366179919306    -1.403630623915     1.007825032230

  Basis Set: AUG-CC-PVTZ
    Blend: AUG-CC-PVTZ
  Basis Set: (AUG-CC-PVTZ AUX)
    Blend: AUG-CC-PVTZ-JKFIT
	 Reference Energy          =    -235.4454558860825273 [Eh]
	 Singles Energy            =      -0.0000000000000000 [Eh]
	 Same-Spin Energy          =      -0.2544083196596119 [Eh]
	 Opposite-Spin Energy      =      -0.9526588804895965 [Eh]
	 Correlation Energy        =      -1.2070672001492084 [Eh]
	 Total Energy              =    -236.6525230862317244 [Eh]

	 ================> DF-SCS-MP2 Energies <==================
	-----------------------------------------------------------
	 SCS Same-Spin Scale       =       0.3333333333333333 [-]
	 SCS Opposite-Spin Scale   =       1.2000000000000000 [-]
	 SCS Same-Spin Energy      =      -0.0848027732198706 [Eh]
	 SCS Opposite-Spin Energy  =      -1.1431906565875156 [Eh]
	 SCS Correlation Energy    =      -1.2279934298073862 [Eh]
	 SCS Total Energy          =    -236.6734493158899113 [Eh]
	-----------------------------------------------------------

  Dipole Moment: [D]
     X:    -0.0319      Y:    -0.0199      Z:    -0.1379     Total:     0.1430

*** Psi4 exiting successfully. Buy a developer a beer!
