                               Psi4 1.3.2 release

  ==> Input File <==

--------------------------------------------------------------------------
#psi4
#
memory 32 gb

molecule  {
0 1
  C        0.7210375     0.2680817    -0.2865837
  C       -0.7029620    -0.3173540    -0.3804860
  C        0.9826470     1.1914400     0.8430940
  C        1.8037460    -0.7325620    -0.5400470
  C       -0.9825370    -1.1914260     0.8432460
  C       -1.8038160     0.7325530    -0.5398170
  H        0.7436150     0.9671320    -1.2674360
  H       -0.7437850    -0.9671540    -1.2673200
  H        1.0211370     0.5905480     1.7569780
  H        1.9518370     1.6894640     0.7370170
  H        0.2251830     1.9685050     0.9782860
  H        2.7795120    -0.2525090    -0.6673740
  H        1.8684660    -1.3795410     0.3401940
  H        1.6230310    -1.3663620    -1.4145870
  H       -0.2250570    -1.9684910     0.9783510
  H       -1.0209040    -0.5905180     1.7571240
  H       -1.9517420    -1.6894490     0.7373050
  H       -1.8684140     1.3795480     0.3404210
  H       -2.7795990     0.2525000    -0.6670030
  H       -1.6232180     1.3663380    -1.4143930
units angstrom
no_reorient  #important for SAPT in psi4, default
symmetry c1  #important for SAPT in psi4, default
}

set PROPERTIES_ORIGIN ["COM"]
properties('MP2/aug-cc-pvtz', properties = ['dipole'])
--------------------------------------------------------------------------

    Molecular point group: c1
  Charge       = 0
  Multiplicity = 1
  Basis Set: AUG-CC-PVTZ
    Blend: AUG-CC-PVTZ
  Basis Set: (AUG-CC-PVTZ AUX)
    Blend: AUG-CC-PVTZ-JKFIT

    Orbital Energies [Eh]
    ---------------------

    Doubly Occupied:

       1A    -11.225952     2A    -11.222024     3A    -11.208586
       4A    -11.208249     5A    -11.207473     6A    -11.205952
       7A     -1.107199     8A     -1.015603     9A     -0.935502
      10A     -0.922289    11A     -0.830742    12A     -0.724212
      13A     -0.639894    14A     -0.615536    15A     -0.607415
      16A     -0.562206    17A     -0.550151    18A     -0.540539
      19A     -0.524380    20A     -0.520481    21A     -0.497982
      22A     -0.480815    23A     -0.455048    24A     -0.444532
      25A     -0.410533

  @DF-RHF Final Energy:  -235.43328844818032

   => Energetics <=

    Nuclear Repulsion Energy =            264.7241221607897614
    One-Electron Energy =                -840.9882312412580632
    Two-Electron Energy =                 340.8308206322880096
    Total Energy =                       -235.4332884481802921
  Basis Set: (AUG-CC-PVTZ AUX)
    Blend: AUG-CC-PVTZ-RI
    Molecular point group: c1

    Geometry (in Angstrom), charge = 0, multiplicity = 1:

       Center              X                  Y                   Z               Mass
    ------------   -----------------  -----------------  -----------------  -----------------
         C            0.718512246018     0.274947332335    -0.288995706674    12.000000000000
         C           -0.705487253982    -0.310488367665    -0.382898006674    12.000000000000
         C            0.980121746018     1.198305632335     0.840681993326    12.000000000000
         C            1.801220746018    -0.725696367665    -0.542459006674    12.000000000000
         C           -0.985062253982    -1.184560367665     0.840833993326    12.000000000000
         C           -1.806341253982     0.739418632335    -0.542229006674    12.000000000000
         H            0.741089746018     0.973997632335    -1.269848006674     1.007825032230
         H           -0.746310253982    -0.960288367665    -1.269732006674     1.007825032230
         H            1.018611746018     0.597413632335     1.754565993326     1.007825032230
         H            1.949311746018     1.696329632335     0.734604993326     1.007825032230
         H            0.222657746018     1.975370632335     0.975873993326     1.007825032230
         H            2.776986746018    -0.245643367665    -0.669786006674     1.007825032230
         H            1.865940746018    -1.372675367665     0.337781993326     1.007825032230
         H            1.620505746018    -1.359496367665    -1.416999006674     1.007825032230
         H           -0.227582253982    -1.961625367665     0.975938993326     1.007825032230
         H           -1.023429253982    -0.583652367665     1.754711993326     1.007825032230
         H           -1.954267253982    -1.682583367665     0.734892993326     1.007825032230
         H           -1.870939253982     1.386413632335     0.338008993326     1.007825032230
         H           -2.782124253982     0.259365632335    -0.669415006674     1.007825032230
         H           -1.625743253982     1.373203632335    -1.416805006674     1.007825032230

  Basis Set: AUG-CC-PVTZ
    Blend: AUG-CC-PVTZ
  Basis Set: (AUG-CC-PVTZ AUX)
    Blend: AUG-CC-PVTZ-JKFIT
	 Reference Energy          =    -235.4332884481803205 [Eh]
	 Singles Energy            =      -0.0000000000000000 [Eh]
	 Same-Spin Energy          =      -0.2552610914069759 [Eh]
	 Opposite-Spin Energy      =      -0.9543526539964695 [Eh]
	 Correlation Energy        =      -1.2096137454034455 [Eh]
	 Total Energy              =    -236.6429021935837795 [Eh]

	 ================> DF-SCS-MP2 Energies <==================
	-----------------------------------------------------------
	 SCS Same-Spin Scale       =       0.3333333333333333 [-]
	 SCS Opposite-Spin Scale   =       1.2000000000000000 [-]
	 SCS Same-Spin Energy      =      -0.0850870304689920 [Eh]
	 SCS Opposite-Spin Energy  =      -1.1452231847957635 [Eh]
	 SCS Correlation Energy    =      -1.2303102152647554 [Eh]
	 SCS Total Energy          =    -236.6635986634450717 [Eh]
	-----------------------------------------------------------

  Dipole Moment: [D]
     X:     0.0025      Y:    -0.0209      Z:    -0.0909     Total:     0.0933

*** Psi4 exiting successfully. Buy a developer a beer!
