                               Psi4 1.3.2 release

  ==> Input File <==

--------------------------------------------------------------------------
#psi4
#
memory 32 gb

molecule  {
0 1
  C        0.7029120     0.3173470    -0.3805850
  C       -0.7029620    -0.3173540    -0.3804860
  C        0.9826470     1.1914400     0.8430940
  C        1.8037460    -0.7325620    -0.5400470
  C       -1.0268595    -1.1630461     0.8522262
  C       -1.8038160     0.7325530    -0.5398170
  H        0.7436150     0.9671320    -1.2674360
  H       -0.7437850    -0.9671540    -1.2673200
  H        1.0211370     0.5905480     1.7569780
  H        1.9518370     1.6894640     0.7370170
  H        0.2251830     1.9685050     0.9782860
  H        2.7795120    -0.2525090    -0.6673740
  H        1.8684660    -1.3795410     0.3401940
  H        1.6230310    -1.3663620    -1.4145870
  H       -0.2250570    -1.9684910     0.9783510
  H       -1.0209040    -0.5905180     1.7571240
  H       -1.9517420    -1.6894490     0.7373050
  H       -1.8684140     1.3795480     0.3404210
  H       -2.7795990     0.2525000    -0.6670030
  H       -1.6232180     1.3663380    -1.4143930
units angstrom
no_reorient  #important for SAPT in psi4, default
symmetry c1  #important for SAPT in psi4, default
}

set PROPERTIES_ORIGIN ["COM"]
properties('MP2/aug-cc-pvtz', properties = ['dipole'])
--------------------------------------------------------------------------

    Molecular point group: c1
  Charge       = 0
  Multiplicity = 1
  Basis Set: AUG-CC-PVTZ
    Blend: AUG-CC-PVTZ
  Basis Set: (AUG-CC-PVTZ AUX)
    Blend: AUG-CC-PVTZ-JKFIT

    Orbital Energies [Eh]
    ---------------------

    Doubly Occupied:

       1A    -11.221096     2A    -11.220302     3A    -11.207512
       4A    -11.207397     5A    -11.207326     6A    -11.206559
       7A     -1.101758     8A     -1.010541     9A     -0.928412
      10A     -0.919463    11A     -0.834934    12A     -0.732609
      13A     -0.642530    14A     -0.607720    15A     -0.600761
      16A     -0.560370    17A     -0.553083    18A     -0.538481
      19A     -0.524283    20A     -0.519495    21A     -0.488980
      22A     -0.479698    23A     -0.448007    24A     -0.439862
      25A     -0.437557

  @DF-RHF Final Energy:  -235.44353870367169

   => Energetics <=

    Nuclear Repulsion Energy =            264.0019163917791047
    One-Electron Energy =                -839.6134421671812333
    Two-Electron Energy =                 340.1679870717304084
    Total Energy =                       -235.4435387036717202
  Basis Set: (AUG-CC-PVTZ AUX)
    Blend: AUG-CC-PVTZ-RI
    Molecular point group: c1

    Geometry (in Angstrom), charge = 0, multiplicity = 1:

       Center              X                  Y                   Z               Mass
    ------------   -----------------  -----------------  -----------------  -----------------
         C            0.709089334710     0.313392201905    -0.371148690260    12.000000000000
         C           -0.696784665290    -0.321308798095    -0.371049690260    12.000000000000
         C            0.988824334710     1.187485201905     0.852530309740    12.000000000000
         C            1.809923334710    -0.736516798095    -0.530610690260    12.000000000000
         C           -1.020682165290    -1.167000898095     0.861662509740    12.000000000000
         C           -1.797638665290     0.728598201905    -0.530380690260    12.000000000000
         H            0.749792334710     0.963177201905    -1.257999690260     1.007825032230
         H           -0.737607665290    -0.971108798095    -1.257883690260     1.007825032230
         H            1.027314334710     0.586593201905     1.766414309740     1.007825032230
         H            1.958014334710     1.685509201905     0.746453309740     1.007825032230
         H            0.231360334710     1.964550201905     0.987722309740     1.007825032230
         H            2.785689334710    -0.256463798095    -0.657937690260     1.007825032230
         H            1.874643334710    -1.383495798095     0.349630309740     1.007825032230
         H            1.629208334710    -1.370316798095    -1.405150690260     1.007825032230
         H           -0.218879665290    -1.972445798095     0.987787309740     1.007825032230
         H           -1.014726665290    -0.594472798095     1.766560309740     1.007825032230
         H           -1.945564665290    -1.693403798095     0.746741309740     1.007825032230
         H           -1.862236665290     1.375593201905     0.349857309740     1.007825032230
         H           -2.773421665290     0.248545201905    -0.657566690260     1.007825032230
         H           -1.617040665290     1.362383201905    -1.404956690260     1.007825032230

  Basis Set: AUG-CC-PVTZ
    Blend: AUG-CC-PVTZ
  Basis Set: (AUG-CC-PVTZ AUX)
    Blend: AUG-CC-PVTZ-JKFIT
	 Reference Energy          =    -235.4435387036716918 [Eh]
	 Singles Energy            =      -0.0000000000000000 [Eh]
	 Same-Spin Energy          =      -0.2544162335600114 [Eh]
	 Opposite-Spin Energy      =      -0.9530576551798458 [Eh]
	 Correlation Energy        =      -1.2074738887398571 [Eh]
	 Total Energy              =    -236.6510125924115471 [Eh]

	 ================> DF-SCS-MP2 Energies <==================
	-----------------------------------------------------------
	 SCS Same-Spin Scale       =       0.3333333333333333 [-]
	 SCS Opposite-Spin Scale   =       1.2000000000000000 [-]
	 SCS Same-Spin Energy      =      -0.0848054111866705 [Eh]
	 SCS Opposite-Spin Energy  =      -1.1436691862158148 [Eh]
	 SCS Correlation Energy    =      -1.2284745974024853 [Eh]
	 SCS Total Energy          =    -236.6720133010741733 [Eh]
	-----------------------------------------------------------

  Dipole Moment: [D]
     X:    -0.0048      Y:     0.0115      Z:    -0.1370     Total:     0.1376

*** Psi4 exiting successfully. Buy a developer a beer!
