                               Psi4 1.3.2 release

  ==> Input File <==

--------------------------------------------------------------------------
#psi4
#
memory 32 gb

molecule  {
0 1
  C        0.7029120     0.3173470    -0.3805850
  C       -0.7029620    -0.3173540    -0.3804860
  C        0.9826470     1.1914400     0.8430940
  C        1.8037460    -0.7325620    -0.5400470
  C       -0.9715581    -1.1040031     0.9035403
  C       -1.8038160     0.7325530    -0.5398170
  H        0.7436150     0.9671320    -1.2674360
  H       -0.7437850    -0.9671540    -1.2673200
  H        1.0211370     0.5905480     1.7569780
  H        1.9518370     1.6894640     0.7370170
  H        0.2251830     1.9685050     0.9782860
  H        2.7795120    -0.2525090    -0.6673740
  H        1.8684660    -1.3795410     0.3401940
  H        1.6230310    -1.3663620    -1.4145870
  H       -0.2250570    -1.9684910     0.9783510
  H       -1.0209040    -0.5905180     1.7571240
  H       -1.9517420    -1.6894490     0.7373050
  H       -1.8684140     1.3795480     0.3404210
  H       -2.7795990     0.2525000    -0.6670030
  H       -1.6232180     1.3663380    -1.4143930
units angstrom
no_reorient  #important for SAPT in psi4, default
symmetry c1  #important for SAPT in psi4, default
}

set PROPERTIES_ORIGIN ["COM"]
properties('MP2/aug-cc-pvtz', properties = ['dipole'])
--------------------------------------------------------------------------

    Molecular point group: c1
  Charge       = 0
  Multiplicity = 1
  Basis Set: AUG-CC-PVTZ
    Blend: AUG-CC-PVTZ
  Basis Set: (AUG-CC-PVTZ AUX)
    Blend: AUG-CC-PVTZ-JKFIT

    Orbital Energies [Eh]
    ---------------------

    Doubly Occupied:

       1A    -11.221570     2A    -11.219544     3A    -11.208867
       4A    -11.207625     5A    -11.207039     6A    -11.206877
       7A     -1.102816     8A     -1.009628     9A     -0.928271
      10A     -0.921126    11A     -0.835658    12A     -0.734816
      13A     -0.639429    14A     -0.610911    15A     -0.600950
      16A     -0.569275    17A     -0.558914    18A     -0.532007
      19A     -0.523728    20A     -0.507906    21A     -0.493612
      22A     -0.479922    23A     -0.452454    24A     -0.439227
      25A     -0.430277

  @DF-RHF Final Energy:  -235.43270849801382

   => Energetics <=

    Nuclear Repulsion Energy =            264.4273094043707033
    One-Electron Energy =                -840.4351341021098278
    Two-Electron Energy =                 340.5751161997253007
    Total Energy =                       -235.4327084980138238
  Basis Set: (AUG-CC-PVTZ AUX)
    Blend: AUG-CC-PVTZ-RI
    Molecular point group: c1

    Geometry (in Angstrom), charge = 0, multiplicity = 1:

       Center              X                  Y                   Z               Mass
    ------------   -----------------  -----------------  -----------------  -----------------
         C            0.701382677359     0.305164125039    -0.378299687992    12.000000000000
         C           -0.704491322641    -0.329536874961    -0.378200687992    12.000000000000
         C            0.981117677359     1.179257125039     0.845379312008    12.000000000000
         C            1.802216677359    -0.744744874961    -0.537761687992    12.000000000000
         C           -0.973087422641    -1.116185974961     0.905825612008    12.000000000000
         C           -1.805345322641     0.720370125039    -0.537531687992    12.000000000000
         H            0.742085677359     0.954949125039    -1.265150687992     1.007825032230
         H           -0.745314322641    -0.979336874961    -1.265034687992     1.007825032230
         H            1.019607677359     0.578365125039     1.759263312008     1.007825032230
         H            1.950307677359     1.677281125039     0.739302312008     1.007825032230
         H            0.223653677359     1.956322125039     0.980571312008     1.007825032230
         H            2.777982677359    -0.264691874961    -0.665088687992     1.007825032230
         H            1.866936677359    -1.391723874961     0.342479312008     1.007825032230
         H            1.621501677359    -1.378544874961    -1.412301687992     1.007825032230
         H           -0.226586322641    -1.980673874961     0.980636312008     1.007825032230
         H           -1.022433322641    -0.602700874961     1.759409312008     1.007825032230
         H           -1.953271322641    -1.701631874961     0.739590312008     1.007825032230
         H           -1.869943322641     1.367365125039     0.342706312008     1.007825032230
         H           -2.781128322641     0.240317125039    -0.664717687992     1.007825032230
         H           -1.624747322641     1.354155125039    -1.412107687992     1.007825032230

  Basis Set: AUG-CC-PVTZ
    Blend: AUG-CC-PVTZ
  Basis Set: (AUG-CC-PVTZ AUX)
    Blend: AUG-CC-PVTZ-JKFIT
	 Reference Energy          =    -235.4327084980138238 [Eh]
	 Singles Energy            =      -0.0000000000000000 [Eh]
	 Same-Spin Energy          =      -0.2547020720862675 [Eh]
	 Opposite-Spin Energy      =      -0.9537519800183785 [Eh]
	 Correlation Energy        =      -1.2084540521046461 [Eh]
	 Total Energy              =    -236.6411625501184801 [Eh]

	 ================> DF-SCS-MP2 Energies <==================
	-----------------------------------------------------------
	 SCS Same-Spin Scale       =       0.3333333333333333 [-]
	 SCS Opposite-Spin Scale   =       1.2000000000000000 [-]
	 SCS Same-Spin Energy      =      -0.0849006906954225 [Eh]
	 SCS Opposite-Spin Energy  =      -1.1445023760220541 [Eh]
	 SCS Correlation Energy    =      -1.2294030667174765 [Eh]
	 SCS Total Energy          =    -236.6621115647313047 [Eh]
	-----------------------------------------------------------

  Dipole Moment: [D]
     X:     0.0053      Y:     0.0307      Z:    -0.1269     Total:     0.1307

*** Psi4 exiting successfully. Buy a developer a beer!
