                               Psi4 1.3.2 release

  ==> Input File <==

--------------------------------------------------------------------------
#psi4
#
memory 32 gb

molecule  {
0 1
  C        0.7029120     0.3173470    -0.3805850
  C       -0.7029620    -0.3173540    -0.3804860
  C        0.9826470     1.1914400     0.8430940
  C        1.8037460    -0.7325620    -0.5400470
  C       -0.8929246    -1.2449578     0.8208256
  C       -1.8038160     0.7325530    -0.5398170
  H        0.7436150     0.9671320    -1.2674360
  H       -0.7437850    -0.9671540    -1.2673200
  H        1.0211370     0.5905480     1.7569780
  H        1.9518370     1.6894640     0.7370170
  H        0.2251830     1.9685050     0.9782860
  H        2.7795120    -0.2525090    -0.6673740
  H        1.8684660    -1.3795410     0.3401940
  H        1.6230310    -1.3663620    -1.4145870
  H       -0.2250570    -1.9684910     0.9783510
  H       -1.0209040    -0.5905180     1.7571240
  H       -1.9517420    -1.6894490     0.7373050
  H       -1.8684140     1.3795480     0.3404210
  H       -2.7795990     0.2525000    -0.6670030
  H       -1.6232180     1.3663380    -1.4143930
units angstrom
no_reorient  #important for SAPT in psi4, default
symmetry c1  #important for SAPT in psi4, default
}

set PROPERTIES_ORIGIN ["COM"]
properties('MP2/aug-cc-pvtz', properties = ['dipole'])
--------------------------------------------------------------------------

    Molecular point group: c1
  Charge       = 0
  Multiplicity = 1
  Basis Set: AUG-CC-PVTZ
    Blend: AUG-CC-PVTZ
  Basis Set: (AUG-CC-PVTZ AUX)
    Blend: AUG-CC-PVTZ-JKFIT

    Orbital Energies [Eh]
    ---------------------

    Doubly Occupied:

       1A    -11.221496     2A    -11.219272     3A    -11.209945
       4A    -11.209401     5A    -11.207805     6A    -11.206389
       7A     -1.102186     8A     -1.007877     9A     -0.933167
      10A     -0.920730    11A     -0.834122    12A     -0.732654
      13A     -0.637508    14A     -0.620291    15A     -0.605838
      16A     -0.563048    17A     -0.549241    18A     -0.533669
      19A     -0.521928    20A     -0.508615    21A     -0.497614
      22A     -0.482433    23A     -0.451101    24A     -0.439070
      25A     -0.429936

  @DF-RHF Final Energy:  -235.43265446049327

   => Energetics <=

    Nuclear Repulsion Energy =            264.1995927785121125
    One-Electron Energy =                -839.9738255686741013
    Two-Electron Energy =                 340.3415783296686641
    Total Energy =                       -235.4326544604932678
  Basis Set: (AUG-CC-PVTZ AUX)
    Blend: AUG-CC-PVTZ-RI
    Molecular point group: c1

    Geometry (in Angstrom), charge = 0, multiplicity = 1:

       Center              X                  Y                   Z               Mass
    ------------   -----------------  -----------------  -----------------  -----------------
         C            0.690424520045     0.324807200530    -0.366772785404    12.000000000000
         C           -0.715449479955    -0.309893799470    -0.366673785404    12.000000000000
         C            0.970159520045     1.198900200530     0.856906214596    12.000000000000
         C            1.791258520045    -0.725101799470    -0.526234785404    12.000000000000
         C           -0.905412079955    -1.237497599470     0.834637814596    12.000000000000
         C           -1.816303479955     0.740013200530    -0.526004785404    12.000000000000
         H            0.731127520045     0.974592200530    -1.253623785404     1.007825032230
         H           -0.756272479955    -0.959693799470    -1.253507785404     1.007825032230
         H            1.008649520045     0.598008200530     1.770790214596     1.007825032230
         H            1.939349520045     1.696924200530     0.750829214596     1.007825032230
         H            0.212695520045     1.975965200530     0.992098214596     1.007825032230
         H            2.767024520045    -0.245048799470    -0.653561785404     1.007825032230
         H            1.855978520045    -1.372080799470     0.354006214596     1.007825032230
         H            1.610543520045    -1.358901799470    -1.400774785404     1.007825032230
         H           -0.237544479955    -1.961030799470     0.992163214596     1.007825032230
         H           -1.033391479955    -0.583057799470     1.770936214596     1.007825032230
         H           -1.964229479955    -1.681988799470     0.751117214596     1.007825032230
         H           -1.880901479955     1.387008200530     0.354233214596     1.007825032230
         H           -2.792086479955     0.259960200530    -0.653190785404     1.007825032230
         H           -1.635705479955     1.373798200530    -1.400580785404     1.007825032230

  Basis Set: AUG-CC-PVTZ
    Blend: AUG-CC-PVTZ
  Basis Set: (AUG-CC-PVTZ AUX)
    Blend: AUG-CC-PVTZ-JKFIT
	 Reference Energy          =    -235.4326544604932678 [Eh]
	 Singles Energy            =      -0.0000000000000000 [Eh]
	 Same-Spin Energy          =      -0.2546786335309169 [Eh]
	 Opposite-Spin Energy      =      -0.9536434795481499 [Eh]
	 Correlation Energy        =      -1.2083221130790669 [Eh]
	 Total Energy              =    -236.6409765735723454 [Eh]

	 ================> DF-SCS-MP2 Energies <==================
	-----------------------------------------------------------
	 SCS Same-Spin Scale       =       0.3333333333333333 [-]
	 SCS Opposite-Spin Scale   =       1.2000000000000000 [-]
	 SCS Same-Spin Energy      =      -0.0848928778436390 [Eh]
	 SCS Opposite-Spin Energy  =      -1.1443721754577798 [Eh]
	 SCS Correlation Energy    =      -1.2292650533014187 [Eh]
	 SCS Total Energy          =    -236.6619195137946861 [Eh]
	-----------------------------------------------------------

  Dipole Moment: [D]
     X:     0.0044      Y:     0.0086      Z:    -0.1773     Total:     0.1776

*** Psi4 exiting successfully. Buy a developer a beer!
