                               Psi4 1.3.2 release

  ==> Input File <==

--------------------------------------------------------------------------
#psi4
#
memory 32 gb

molecule  {
0 1
  C        0.7029120     0.3173470    -0.3805850
  C       -0.7029620    -0.3173540    -0.3804860
  C        0.9826470     1.1914400     0.8430940
  C        1.8037460    -0.7325620    -0.5400470
  C       -0.9825370    -1.1914260     0.8432460
  C       -1.8038160     0.7325530    -0.5398170
  H        0.7436150     0.9671320    -1.2674360
  H       -0.7437850    -0.9671540    -1.2673200
  H        1.0211370     0.5905480     1.7569780
  H        1.9518370     1.6894640     0.7370170
  H        0.2251830     1.9685050     0.9782860
  H        2.7795120    -0.2525090    -0.6673740
  H        1.8684660    -1.3795410     0.3401940
  H        1.6230310    -1.3663620    -1.4145870
  H       -0.2250570    -1.9684910     0.9783510
  H       -1.0209040    -0.5905180     1.7571240
  H       -2.1287965    -1.7804279     0.7179517
  H       -1.8684140     1.3795480     0.3404210
  H       -2.7795990     0.2525000    -0.6670030
  H       -1.6232180     1.3663380    -1.4143930
units angstrom
no_reorient  #important for SAPT in psi4, default
symmetry c1  #important for SAPT in psi4, default
}

set PROPERTIES_ORIGIN ["COM"]
properties('MP2/aug-cc-pvtz', properties = ['dipole'])
--------------------------------------------------------------------------

    Molecular point group: c1
  Charge       = 0
  Multiplicity = 1
  Basis Set: AUG-CC-PVTZ
    Blend: AUG-CC-PVTZ
  Basis Set: (AUG-CC-PVTZ AUX)
    Blend: AUG-CC-PVTZ-JKFIT

    Orbital Energies [Eh]
    ---------------------

    Doubly Occupied:

       1A    -11.230760     2A    -11.223032     3A    -11.222448
       4A    -11.209098     5A    -11.208822     6A    -11.207661
       7A     -1.102713     8A     -1.008211     9A     -0.928487
      10A     -0.914919    11A     -0.832785    12A     -0.731582
      13A     -0.635355    14A     -0.610101    15A     -0.605951
      16A     -0.561896    17A     -0.553252    18A     -0.532430
      19A     -0.522268    20A     -0.495861    21A     -0.488732
      22A     -0.487539    23A     -0.448100    24A     -0.446400
      25A     -0.430845

  @DF-RHF Final Energy:  -235.42671479718751

   => Energetics <=

    Nuclear Repulsion Energy =            263.2571649344418461
    One-Electron Energy =                -838.0892602116429089
    Two-Electron Energy =                 339.4053804800134913
    Total Energy =                       -235.4267147971875147
  Basis Set: (AUG-CC-PVTZ AUX)
    Blend: AUG-CC-PVTZ-RI
    Molecular point group: c1

    Geometry (in Angstrom), charge = 0, multiplicity = 1:

       Center              X                  Y                   Z               Mass
    ------------   -----------------  -----------------  -----------------  -----------------
         C            0.704984911438     0.318411965805    -0.369670722491    12.000000000000
         C           -0.700889088562    -0.316289034195    -0.369571722491    12.000000000000
         C            0.984719911438     1.192504965805     0.854008277509    12.000000000000
         C            1.805818911438    -0.731497034195    -0.529132722491    12.000000000000
         C           -0.980464088562    -1.190361034195     0.854160277509    12.000000000000
         C           -1.801743088562     0.733617965805    -0.528902722491    12.000000000000
         H            0.745687911438     0.968196965805    -1.256521722491     1.007825032230
         H           -0.741712088562    -0.966089034195    -1.256405722491     1.007825032230
         H            1.023209911438     0.591612965805     1.767892277509     1.007825032230
         H            1.953909911438     1.690528965805     0.747931277509     1.007825032230
         H            0.227255911438     1.969569965805     0.989200277509     1.007825032230
         H            2.781584911438    -0.251444034195    -0.656459722491     1.007825032230
         H            1.870538911438    -1.378476034195     0.351108277509     1.007825032230
         H            1.625103911438    -1.365297034195    -1.403672722491     1.007825032230
         H           -0.222984088562    -1.967426034195     0.989265277509     1.007825032230
         H           -1.018831088562    -0.589453034195     1.768038277509     1.007825032230
         H           -2.126723588562    -1.779362934195     0.728865977509     1.007825032230
         H           -1.866341088562     1.380612965805     0.351335277509     1.007825032230
         H           -2.777526088562     0.253564965805    -0.656088722491     1.007825032230
         H           -1.621145088562     1.367402965805    -1.403478722491     1.007825032230

  Basis Set: AUG-CC-PVTZ
    Blend: AUG-CC-PVTZ
  Basis Set: (AUG-CC-PVTZ AUX)
    Blend: AUG-CC-PVTZ-JKFIT
	 Reference Energy          =    -235.4267147971875147 [Eh]
	 Singles Energy            =      -0.0000000000000000 [Eh]
	 Same-Spin Energy          =      -0.2543318609702340 [Eh]
	 Opposite-Spin Energy      =      -0.9545028412694997 [Eh]
	 Correlation Energy        =      -1.2088347022397337 [Eh]
	 Total Energy              =    -236.6355494994272419 [Eh]

	 ================> DF-SCS-MP2 Energies <==================
	-----------------------------------------------------------
	 SCS Same-Spin Scale       =       0.3333333333333333 [-]
	 SCS Opposite-Spin Scale   =       1.2000000000000000 [-]
	 SCS Same-Spin Energy      =      -0.0847772869900780 [Eh]
	 SCS Opposite-Spin Energy  =      -1.1454034095233996 [Eh]
	 SCS Correlation Energy    =      -1.2301806965134776 [Eh]
	 SCS Total Energy          =    -236.6568954937010005 [Eh]
	-----------------------------------------------------------

  Dipole Moment: [D]
     X:     0.1661      Y:     0.1050      Z:    -0.1674     Total:     0.2581

*** Psi4 exiting successfully. Buy a developer a beer!
