                               Psi4 1.4a3.dev225

  ==> Input File <==

--------------------------------------------------------------------------
#psi4
#
memory 32 gb

molecule  {
0 1
  C        0.7029150     0.3173330    -0.3805920
  C       -0.7029660    -0.3173390    -0.3804920
  C        0.9826460     1.1915080     0.8430290
  C        1.8037540    -0.7325950    -0.5399760
  C       -0.9733935    -1.1629194     0.8031803
  C       -1.8038280     0.7325860    -0.5397480
  H        0.7436620     0.9670620    -1.2674850
  H       -0.7438300    -0.9670830    -1.2673690
  H        1.0210420     0.5906890     1.7569670
  H        1.9518800     1.6894470     0.7369640
  H        0.2252310     1.9686380     0.9781220
  H        2.7795150    -0.2525500    -0.6673430
  H        1.8684590    -1.3794860     0.3403280
  H        1.6230140    -1.3664690    -1.4144560
  H       -0.2250960    -1.9686200     0.9781850
  H       -1.0208080    -0.5906600     1.7571130
  H       -1.9517780    -1.6894370     0.7372520
  H       -1.8684180     1.3794910     0.3405540
  H       -2.7796050     0.2525370    -0.6669790
  H       -1.6232050     1.3664460    -1.4142620
units angstrom
no_reorient  #important for SAPT in psi4, default
symmetry c1  #important for SAPT in psi4, default
}

set PROPERTIES_ORIGIN ["COM"]
properties('MP2/aug-cc-pvtz', properties = ['dipole'])
--------------------------------------------------------------------------

    Molecular point group: c1
  Charge       = 0
  Multiplicity = 1
  Basis Set: AUG-CC-PVTZ
    Blend: AUG-CC-PVTZ
  Basis Set: (AUG-CC-PVTZ AUX)
    Blend: AUG-CC-PVTZ-JKFIT

    Orbital Energies [Eh]
    ---------------------

    Doubly Occupied:

       1A    -11.220531     2A    -11.217931     3A    -11.209988
       4A    -11.207621     5A    -11.207433     6A    -11.207085
       7A     -1.106179     8A     -1.012548     9A     -0.929405
      10A     -0.919101    11A     -0.833672    12A     -0.732951
      13A     -0.641722    14A     -0.609069    15A     -0.606339
      16A     -0.561360    17A     -0.548908    18A     -0.536392
      19A     -0.519962    20A     -0.515795    21A     -0.490918
      22A     -0.481725    23A     -0.450933    24A     -0.442635
      25A     -0.434136

  @DF-RHF Final Energy:  -235.44330174370282

   => Energetics <=

    Nuclear Repulsion Energy =            264.8015124865888197
    One-Electron Energy =                -841.2009531498692922
    Two-Electron Energy =                 340.9561389195777110
    Total Energy =                       -235.4433017437028184
  Basis Set: (AUG-CC-PVTZ AUX)
    Blend: AUG-CC-PVTZ-RI
    Molecular point group: c1

    Geometry (in Angstrom), charge = 0, multiplicity = 1:

       Center              X                  Y                   Z               Mass
    ------------   -----------------  -----------------  -----------------  -----------------
         C            0.701642278305     0.313350999893    -0.364329750770    12.000000000000
         C           -0.704238721695    -0.321321000107    -0.364229750770    12.000000000000
         C            0.981373278305     1.187525999893     0.859291249230    12.000000000000
         C            1.802481278305    -0.736577000107    -0.523713750770    12.000000000000
         C           -0.974666221695    -1.166901400107     0.819442549230    12.000000000000
         C           -1.805100721695     0.728603999893    -0.523485750770    12.000000000000
         H            0.742389278305     0.963079999893    -1.251222750770     1.007825032230
         H           -0.745102721695    -0.971065000107    -1.251106750770     1.007825032230
         H            1.019769278305     0.586706999893     1.773229249230     1.007825032230
         H            1.950607278305     1.685464999893     0.753226249230     1.007825032230
         H            0.223958278305     1.964655999893     0.994384249230     1.007825032230
         H            2.778242278305    -0.256532000107    -0.651080750770     1.007825032230
         H            1.867186278305    -1.383468000107     0.356590249230     1.007825032230
         H            1.621741278305    -1.370451000107    -1.398193750770     1.007825032230
         H           -0.226368721695    -1.972602000107     0.994447249230     1.007825032230
         H           -1.022080721695    -0.594642000107     1.773375249230     1.007825032230
         H           -1.953050721695    -1.693419000107     0.753514249230     1.007825032230
         H           -1.869690721695     1.375508999893     0.356816249230     1.007825032230
         H           -2.780877721695     0.248554999893    -0.650716750770     1.007825032230
         H           -1.624477721695     1.362463999893    -1.397999750770     1.007825032230

  Basis Set: AUG-CC-PVTZ
    Blend: AUG-CC-PVTZ
  Basis Set: (AUG-CC-PVTZ AUX)
    Blend: AUG-CC-PVTZ-JKFIT
	 Reference Energy          =    -235.4433017437028184 [Eh]
	 Singles Energy            =      -0.0000000000000000 [Eh]
	 Same-Spin Energy          =      -0.2548844895767763 [Eh]
	 Opposite-Spin Energy      =      -0.9534573765965764 [Eh]
	 Correlation Energy        =      -1.2083418661733527 [Eh]
	 Total Energy              =    -236.6516436098761744 [Eh]

	 ================> DF-SCS-MP2 Energies <==================
	-----------------------------------------------------------
	 SCS Same-Spin Scale       =       0.3333333333333333 [-]
	 SCS Opposite-Spin Scale   =       1.2000000000000000 [-]
	 SCS Same-Spin Energy      =      -0.0849614965255921 [Eh]
	 SCS Opposite-Spin Energy  =      -1.1441488519158916 [Eh]
	 SCS Correlation Energy    =      -1.2291103484414836 [Eh]
	 SCS Total Energy          =    -236.6724120921442989 [Eh]
	-----------------------------------------------------------

  Dipole Moment: [D]
     X:    -0.0002      Y:    -0.0039      Z:    -0.1404     Total:     0.1405

*** Psi4 exiting successfully. Buy a developer a beer!
