                               Psi4 1.3.2 release

  ==> Input File <==

--------------------------------------------------------------------------
#psi4
#
memory 32 gb

molecule  {
0 1
  C        0.7029120     0.3173470    -0.3805850
  C       -0.7498899    -0.3325636    -0.4009062
  C        0.9826470     1.1914400     0.8430940
  C        1.8037460    -0.7325620    -0.5400470
  C       -0.9825370    -1.1914260     0.8432460
  C       -1.8038160     0.7325530    -0.5398170
  H        0.7436150     0.9671320    -1.2674360
  H       -0.7437850    -0.9671540    -1.2673200
  H        1.0211370     0.5905480     1.7569780
  H        1.9518370     1.6894640     0.7370170
  H        0.2251830     1.9685050     0.9782860
  H        2.7795120    -0.2525090    -0.6673740
  H        1.8684660    -1.3795410     0.3401940
  H        1.6230310    -1.3663620    -1.4145870
  H       -0.2250570    -1.9684910     0.9783510
  H       -1.0209040    -0.5905180     1.7571240
  H       -1.9517420    -1.6894490     0.7373050
  H       -1.8684140     1.3795480     0.3404210
  H       -2.7795990     0.2525000    -0.6670030
  H       -1.6232180     1.3663380    -1.4143930
units angstrom
no_reorient  #important for SAPT in psi4, default
symmetry c1  #important for SAPT in psi4, default
}

set PROPERTIES_ORIGIN ["COM"]
properties('MP2/aug-cc-pvtz', properties = ['dipole'])
--------------------------------------------------------------------------

    Molecular point group: c1
  Charge       = 0
  Multiplicity = 1
  Basis Set: AUG-CC-PVTZ
    Blend: AUG-CC-PVTZ
  Basis Set: (AUG-CC-PVTZ AUX)
    Blend: AUG-CC-PVTZ-JKFIT

    Orbital Energies [Eh]
    ---------------------

    Doubly Occupied:

       1A    -11.221103     2A    -11.219163     3A    -11.207041
       4A    -11.207013     5A    -11.206872     6A    -11.206741
       7A     -1.097858     8A     -1.012008     9A     -0.929749
      10A     -0.920084    11A     -0.828958    12A     -0.735370
      13A     -0.637604    14A     -0.608769    15A     -0.604845
      16A     -0.561491    17A     -0.551100    18A     -0.536293
      19A     -0.520754    20A     -0.519900    21A     -0.488671
      22A     -0.486690    23A     -0.453034    24A     -0.448760
      25A     -0.420134

  @DF-RHF Final Energy:  -235.44411308734567

   => Energetics <=

    Nuclear Repulsion Energy =            263.6220141964682853
    One-Electron Energy =                -838.8722423053385455
    Two-Electron Energy =                 339.8061150215245902
    Total Energy =                       -235.4441130873456700
  Basis Set: (AUG-CC-PVTZ AUX)
    Blend: AUG-CC-PVTZ-RI
    Molecular point group: c1

    Geometry (in Angstrom), charge = 0, multiplicity = 1:

       Center              X                  Y                   Z               Mass
    ------------   -----------------  -----------------  -----------------  -----------------
         C            0.709452416387     0.319466719740    -0.367051528004    12.000000000000
         C           -0.743349483613    -0.330443880260    -0.387372728004    12.000000000000
         C            0.989187416387     1.193559719740     0.856627471996    12.000000000000
         C            1.810286416387    -0.730442280260    -0.526513528004    12.000000000000
         C           -0.975996583613    -1.189306280260     0.856779471996    12.000000000000
         C           -1.797275583613     0.734672719740    -0.526283528004    12.000000000000
         H            0.750155416387     0.969251719740    -1.253902528004     1.007825032230
         H           -0.737244583613    -0.965034280260    -1.253786528004     1.007825032230
         H            1.027677416387     0.592667719740     1.770511471996     1.007825032230
         H            1.958377416387     1.691583719740     0.750550471996     1.007825032230
         H            0.231723416387     1.970624719740     0.991819471996     1.007825032230
         H            2.786052416387    -0.250389280260    -0.653840528004     1.007825032230
         H            1.875006416387    -1.377421280260     0.353727471996     1.007825032230
         H            1.629571416387    -1.364242280260    -1.401053528004     1.007825032230
         H           -0.218516583613    -1.966371280260     0.991884471996     1.007825032230
         H           -1.014363583613    -0.588398280260     1.770657471996     1.007825032230
         H           -1.945201583613    -1.687329280260     0.750838471996     1.007825032230
         H           -1.861873583613     1.381667719740     0.353954471996     1.007825032230
         H           -2.773058583613     0.254619719740    -0.653469528004     1.007825032230
         H           -1.616677583613     1.368457719740    -1.400859528004     1.007825032230

  Basis Set: AUG-CC-PVTZ
    Blend: AUG-CC-PVTZ
  Basis Set: (AUG-CC-PVTZ AUX)
    Blend: AUG-CC-PVTZ-JKFIT
	 Reference Energy          =    -235.4441130873456700 [Eh]
	 Singles Energy            =      -0.0000000000000000 [Eh]
	 Same-Spin Energy          =      -0.2543555619123611 [Eh]
	 Opposite-Spin Energy      =      -0.9529128113815861 [Eh]
	 Correlation Energy        =      -1.2072683732939473 [Eh]
	 Total Energy              =    -236.6513814606396124 [Eh]

	 ================> DF-SCS-MP2 Energies <==================
	-----------------------------------------------------------
	 SCS Same-Spin Scale       =       0.3333333333333333 [-]
	 SCS Opposite-Spin Scale   =       1.2000000000000000 [-]
	 SCS Same-Spin Energy      =      -0.0847851873041204 [Eh]
	 SCS Opposite-Spin Energy  =      -1.1434953736579032 [Eh]
	 SCS Correlation Energy    =      -1.2282805609620235 [Eh]
	 SCS Total Energy          =    -236.6723936483076898 [Eh]
	-----------------------------------------------------------

  Dipole Moment: [D]
     X:    -0.0256      Y:    -0.0003      Z:    -0.1567     Total:     0.1587

*** Psi4 exiting successfully. Buy a developer a beer!
