                               Psi4 1.3.2 release

  ==> Input File <==

--------------------------------------------------------------------------
#psi4
#
memory 32 gb

molecule  {
0 1
  C        0.7029120     0.3173470    -0.3805850
  C       -0.7971013    -0.3488195    -0.4198106
  C        0.9826470     1.1914400     0.8430940
  C        1.8037460    -0.7325620    -0.5400470
  C       -0.9825370    -1.1914260     0.8432460
  C       -1.8038160     0.7325530    -0.5398170
  H        0.7436150     0.9671320    -1.2674360
  H       -0.7437850    -0.9671540    -1.2673200
  H        1.0211370     0.5905480     1.7569780
  H        1.9518370     1.6894640     0.7370170
  H        0.2251830     1.9685050     0.9782860
  H        2.7795120    -0.2525090    -0.6673740
  H        1.8684660    -1.3795410     0.3401940
  H        1.6230310    -1.3663620    -1.4145870
  H       -0.2250570    -1.9684910     0.9783510
  H       -1.0209040    -0.5905180     1.7571240
  H       -1.9517420    -1.6894490     0.7373050
  H       -1.8684140     1.3795480     0.3404210
  H       -2.7795990     0.2525000    -0.6670030
  H       -1.6232180     1.3663380    -1.4143930
units angstrom
no_reorient  #important for SAPT in psi4, default
symmetry c1  #important for SAPT in psi4, default
}

set PROPERTIES_ORIGIN ["COM"]
properties('MP2/aug-cc-pvtz', properties = ['dipole'])
--------------------------------------------------------------------------

    Molecular point group: c1
  Charge       = 0
  Multiplicity = 1
  Basis Set: AUG-CC-PVTZ
    Blend: AUG-CC-PVTZ
  Basis Set: (AUG-CC-PVTZ AUX)
    Blend: AUG-CC-PVTZ-JKFIT

    Orbital Energies [Eh]
    ---------------------

    Doubly Occupied:

       1A    -11.221492     2A    -11.218833     3A    -11.207330
       4A    -11.206616     5A    -11.206591     6A    -11.206416
       7A     -1.095094     8A     -1.014454     9A     -0.930603
      10A     -0.920136    11A     -0.824500    12A     -0.738672
      13A     -0.635146    14A     -0.610837    15A     -0.604412
      16A     -0.562639    17A     -0.551517    18A     -0.536174
      19A     -0.521841    20A     -0.519433    21A     -0.492585
      22A     -0.486281    23A     -0.458316    24A     -0.451319
      25A     -0.403776

  @DF-RHF Final Energy:  -235.43670810642149

   => Energetics <=

    Nuclear Repulsion Energy =            263.1997636144739090
    One-Electron Energy =                -838.0229157712161623
    Two-Electron Energy =                 339.3864440503207902
    Total Energy =                       -235.4367081064214631
  Basis Set: (AUG-CC-PVTZ AUX)
    Blend: AUG-CC-PVTZ-RI
    Molecular point group: c1

    Geometry (in Angstrom), charge = 0, multiplicity = 1:

       Center              X                  Y                   Z               Mass
    ------------   -----------------  -----------------  -----------------  -----------------
         C            0.716031672660     0.321732099120    -0.364417060644    12.000000000000
         C           -0.783981627340    -0.344434400880    -0.403642660644    12.000000000000
         C            0.995766672660     1.195825099120     0.859261939356    12.000000000000
         C            1.816865672660    -0.728176900880    -0.523879060644    12.000000000000
         C           -0.969417327340    -1.187040900880     0.859413939356    12.000000000000
         C           -1.790696327340     0.736938099120    -0.523649060644    12.000000000000
         H            0.756734672660     0.971517099120    -1.251268060644     1.007825032230
         H           -0.730665327340    -0.962768900880    -1.251152060644     1.007825032230
         H            1.034256672660     0.594933099120     1.773145939356     1.007825032230
         H            1.964956672660     1.693849099120     0.753184939356     1.007825032230
         H            0.238302672660     1.972890099120     0.994453939356     1.007825032230
         H            2.792631672660    -0.248123900880    -0.651206060644     1.007825032230
         H            1.881585672660    -1.375155900880     0.356361939356     1.007825032230
         H            1.636150672660    -1.361976900880    -1.398419060644     1.007825032230
         H           -0.211937327340    -1.964105900880     0.994518939356     1.007825032230
         H           -1.007784327340    -0.586132900880     1.773291939356     1.007825032230
         H           -1.938622327340    -1.685063900880     0.753472939356     1.007825032230
         H           -1.855294327340     1.383933099120     0.356588939356     1.007825032230
         H           -2.766479327340     0.256885099120    -0.650835060644     1.007825032230
         H           -1.610098327340     1.370723099120    -1.398225060644     1.007825032230

  Basis Set: AUG-CC-PVTZ
    Blend: AUG-CC-PVTZ
  Basis Set: (AUG-CC-PVTZ AUX)
    Blend: AUG-CC-PVTZ-JKFIT
	 Reference Energy          =    -235.4367081064214915 [Eh]
	 Singles Energy            =      -0.0000000000000000 [Eh]
	 Same-Spin Energy          =      -0.2545480629519167 [Eh]
	 Opposite-Spin Energy      =      -0.9533175752053993 [Eh]
	 Correlation Energy        =      -1.2078656381573161 [Eh]
	 Total Energy              =    -236.6445737445788211 [Eh]

	 ================> DF-SCS-MP2 Energies <==================
	-----------------------------------------------------------
	 SCS Same-Spin Scale       =       0.3333333333333333 [-]
	 SCS Opposite-Spin Scale   =       1.2000000000000000 [-]
	 SCS Same-Spin Energy      =      -0.0848493543173056 [Eh]
	 SCS Opposite-Spin Energy  =      -1.1439810902464791 [Eh]
	 SCS Correlation Energy    =      -1.2288304445637848 [Eh]
	 SCS Total Energy          =    -236.6655385509852749 [Eh]
	-----------------------------------------------------------

  Dipole Moment: [D]
     X:    -0.0508      Y:     0.0006      Z:    -0.1666     Total:     0.1741

*** Psi4 exiting successfully. Buy a developer a beer!
