                               Psi4 1.3.2 release

  ==> Input File <==

--------------------------------------------------------------------------
#psi4
#
memory 32 gb

molecule  {
0 1
  C        0.7029120     0.3173470    -0.3805850
  C       -0.7029620    -0.3173540    -0.3804860
  C        0.9826470     1.1914400     0.8430940
  C        1.8037460    -0.7325620    -0.5400470
  C       -0.9850708    -1.2126326     0.8272288
  C       -1.8038160     0.7325530    -0.5398170
  H        0.7436150     0.9671320    -1.2674360
  H       -0.7437850    -0.9671540    -1.2673200
  H        1.0211370     0.5905480     1.7569780
  H        1.9518370     1.6894640     0.7370170
  H        0.2251830     1.9685050     0.9782860
  H        2.7795120    -0.2525090    -0.6673740
  H        1.8684660    -1.3795410     0.3401940
  H        1.6230310    -1.3663620    -1.4145870
  H       -0.2250570    -1.9684910     0.9783510
  H       -1.0209040    -0.5905180     1.7571240
  H       -1.9517420    -1.6894490     0.7373050
  H       -1.8684140     1.3795480     0.3404210
  H       -2.7795990     0.2525000    -0.6670030
  H       -1.6232180     1.3663380    -1.4143930
units angstrom
no_reorient  #important for SAPT in psi4, default
symmetry c1  #important for SAPT in psi4, default
}

set PROPERTIES_ORIGIN ["COM"]
properties('MP2/aug-cc-pvtz', properties = ['dipole'])
--------------------------------------------------------------------------

    Molecular point group: c1
  Charge       = 0
  Multiplicity = 1
  Basis Set: AUG-CC-PVTZ
    Blend: AUG-CC-PVTZ
  Basis Set: (AUG-CC-PVTZ AUX)
    Blend: AUG-CC-PVTZ-JKFIT

    Orbital Energies [Eh]
    ---------------------

    Doubly Occupied:

       1A    -11.220745     2A    -11.220107     3A    -11.207661
       4A    -11.207594     5A    -11.207249     6A    -11.206979
       7A     -1.101493     8A     -1.009488     9A     -0.929823
      10A     -0.919683    11A     -0.834228    12A     -0.731730
      13A     -0.640440    14A     -0.608209    15A     -0.605109
      16A     -0.560975    17A     -0.547740    18A     -0.539485
      19A     -0.522237    20A     -0.518591    21A     -0.487922
      22A     -0.484673    23A     -0.446028    24A     -0.442987
      25A     -0.436655

  @DF-RHF Final Energy:  -235.44574678828403

   => Energetics <=

    Nuclear Repulsion Energy =            263.9655296202618615
    One-Electron Energy =                -839.5468901173619543
    Two-Electron Energy =                 340.1356137088160949
    Total Energy =                       -235.4457467882840547
  Basis Set: (AUG-CC-PVTZ AUX)
    Blend: AUG-CC-PVTZ-RI
    Molecular point group: c1

    Geometry (in Angstrom), charge = 0, multiplicity = 1:

       Center              X                  Y                   Z               Mass
    ------------   -----------------  -----------------  -----------------  -----------------
         C            0.703265771616     0.320302445855    -0.367665118479    12.000000000000
         C           -0.702608228384    -0.314398554145    -0.367566118479    12.000000000000
         C            0.983000771616     1.194395445855     0.856013881521    12.000000000000
         C            1.804099771616    -0.729606554145    -0.527127118479    12.000000000000
         C           -0.984717028384    -1.209677154145     0.840148681521    12.000000000000
         C           -1.803462228384     0.735508445855    -0.526897118479    12.000000000000
         H            0.743968771616     0.970087445855    -1.254516118479     1.007825032230
         H           -0.743431228384    -0.964198554145    -1.254400118479     1.007825032230
         H            1.021490771616     0.593503445855     1.769897881521     1.007825032230
         H            1.952190771616     1.692419445855     0.749936881521     1.007825032230
         H            0.225536771616     1.971460445855     0.991205881521     1.007825032230
         H            2.779865771616    -0.249553554145    -0.654454118479     1.007825032230
         H            1.868819771616    -1.376585554145     0.353113881521     1.007825032230
         H            1.623384771616    -1.363406554145    -1.401667118479     1.007825032230
         H           -0.224703228384    -1.965535554145     0.991270881521     1.007825032230
         H           -1.020550228384    -0.587562554145     1.770043881521     1.007825032230
         H           -1.951388228384    -1.686493554145     0.750224881521     1.007825032230
         H           -1.868060228384     1.382503445855     0.353340881521     1.007825032230
         H           -2.779245228384     0.255455445855    -0.654083118479     1.007825032230
         H           -1.622864228384     1.369293445855    -1.401473118479     1.007825032230

  Basis Set: AUG-CC-PVTZ
    Blend: AUG-CC-PVTZ
  Basis Set: (AUG-CC-PVTZ AUX)
    Blend: AUG-CC-PVTZ-JKFIT
	 Reference Energy          =    -235.4457467882840263 [Eh]
	 Singles Energy            =      -0.0000000000000000 [Eh]
	 Same-Spin Energy          =      -0.2543803021993684 [Eh]
	 Opposite-Spin Energy      =      -0.9529283033398339 [Eh]
	 Correlation Energy        =      -1.2073086055392024 [Eh]
	 Total Energy              =    -236.6530553938232231 [Eh]

	 ================> DF-SCS-MP2 Energies <==================
	-----------------------------------------------------------
	 SCS Same-Spin Scale       =       0.3333333333333333 [-]
	 SCS Opposite-Spin Scale   =       1.2000000000000000 [-]
	 SCS Same-Spin Energy      =      -0.0847934340664561 [Eh]
	 SCS Opposite-Spin Energy  =      -1.1435139640078007 [Eh]
	 SCS Correlation Energy    =      -1.2283073980742569 [Eh]
	 SCS Total Energy          =    -236.6740541863582905 [Eh]
	-----------------------------------------------------------

  Dipole Moment: [D]
     X:     0.0008      Y:    -0.0063      Z:    -0.1540     Total:     0.1541

*** Psi4 exiting successfully. Buy a developer a beer!
