                               Psi4 1.3.2 release

  ==> Input File <==

--------------------------------------------------------------------------
#psi4
#
memory 32 gb

molecule  {
0 1
  C        0.7029120     0.3173470    -0.3805850
  C       -0.7029620    -0.3173540    -0.3804860
  C        0.9826470     1.1914400     0.8430940
  C        1.8037460    -0.7325620    -0.5400470
  C       -0.9825370    -1.1914260     0.8432460
  C       -1.8038160     0.7325530    -0.5398170
  H        0.7436150     0.9671320    -1.2674360
  H       -0.7437850    -0.9671540    -1.2673200
  H        1.0211370     0.5905480     1.7569780
  H        1.9518370     1.6894640     0.7370170
  H        0.2251830     1.9685050     0.9782860
  H        2.7795120    -0.2525090    -0.6673740
  H        1.8684660    -1.3795410     0.3401940
  H        1.6230310    -1.3663620    -1.4145870
  H       -0.2250570    -1.9684910     0.9783510
  H       -1.0567407    -0.6025106     1.7627067
  H       -1.9517420    -1.6894490     0.7373050
  H       -1.8684140     1.3795480     0.3404210
  H       -2.7795990     0.2525000    -0.6670030
  H       -1.6232180     1.3663380    -1.4143930
units angstrom
no_reorient  #important for SAPT in psi4, default
symmetry c1  #important for SAPT in psi4, default
}

set PROPERTIES_ORIGIN ["COM"]
properties('MP2/aug-cc-pvtz', properties = ['dipole'])
--------------------------------------------------------------------------

    Molecular point group: c1
  Charge       = 0
  Multiplicity = 1
  Basis Set: AUG-CC-PVTZ
    Blend: AUG-CC-PVTZ
  Basis Set: (AUG-CC-PVTZ AUX)
    Blend: AUG-CC-PVTZ-JKFIT

    Orbital Energies [Eh]
    ---------------------

    Doubly Occupied:

       1A    -11.220737     2A    -11.220075     3A    -11.207498
       4A    -11.207440     5A    -11.207091     6A    -11.206931
       7A     -1.101527     8A     -1.009406     9A     -0.929372
      10A     -0.919642    11A     -0.834472    12A     -0.732194
      13A     -0.639534    14A     -0.608548    15A     -0.604263
      16A     -0.560764    17A     -0.550932    18A     -0.536464
      19A     -0.520819    20A     -0.518580    21A     -0.487755
      22A     -0.486090    23A     -0.446054    24A     -0.444726
      25A     -0.435412

  @DF-RHF Final Energy:  -235.44635155352000

   => Energetics <=

    Nuclear Repulsion Energy =            264.0030792151827086
    One-Electron Energy =                -839.6262142831300253
    Two-Electron Energy =                 340.1767835144272567
    Total Energy =                       -235.4463515535200031
  Basis Set: (AUG-CC-PVTZ AUX)
    Blend: AUG-CC-PVTZ-RI
    Molecular point group: c1

    Geometry (in Angstrom), charge = 0, multiplicity = 1:

       Center              X                  Y                   Z               Mass
    ------------   -----------------  -----------------  -----------------  -----------------
         C            0.703332100186     0.317487511202    -0.369962573103    12.000000000000
         C           -0.702541899814    -0.317213488798    -0.369863573103    12.000000000000
         C            0.983067100186     1.191580511202     0.853716426897    12.000000000000
         C            1.804166100186    -0.732421488798    -0.529424573103    12.000000000000
         C           -0.982116899814    -1.191285488798     0.853868426897    12.000000000000
         C           -1.803395899814     0.732693511202    -0.529194573103    12.000000000000
         H            0.744035100186     0.967272511202    -1.256813573103     1.007825032230
         H           -0.743364899814    -0.967013488798    -1.256697573103     1.007825032230
         H            1.021557100186     0.590688511202     1.767600426897     1.007825032230
         H            1.952257100186     1.689604511202     0.747639426897     1.007825032230
         H            0.225603100186     1.968645511202     0.988908426897     1.007825032230
         H            2.779932100186    -0.252368488798    -0.656751573103     1.007825032230
         H            1.868886100186    -1.379400488798     0.350816426897     1.007825032230
         H            1.623451100186    -1.366221488798    -1.403964573103     1.007825032230
         H           -0.224636899814    -1.968350488798     0.988973426897     1.007825032230
         H           -1.056320599814    -0.602370088798     1.773329126897     1.007825032230
         H           -1.951321899814    -1.689308488798     0.747927426897     1.007825032230
         H           -1.867993899814     1.379688511202     0.351043426897     1.007825032230
         H           -2.779178899814     0.252640511202    -0.656380573103     1.007825032230
         H           -1.622797899814     1.366478511202    -1.403770573103     1.007825032230

  Basis Set: AUG-CC-PVTZ
    Blend: AUG-CC-PVTZ
  Basis Set: (AUG-CC-PVTZ AUX)
    Blend: AUG-CC-PVTZ-JKFIT
	 Reference Energy          =    -235.4463515535200031 [Eh]
	 Singles Energy            =      -0.0000000000000000 [Eh]
	 Same-Spin Energy          =      -0.2543732728886894 [Eh]
	 Opposite-Spin Energy      =      -0.9529142299554785 [Eh]
	 Correlation Energy        =      -1.2072875028441679 [Eh]
	 Total Energy              =    -236.6536390563641703 [Eh]

	 ================> DF-SCS-MP2 Energies <==================
	-----------------------------------------------------------
	 SCS Same-Spin Scale       =       0.3333333333333333 [-]
	 SCS Opposite-Spin Scale   =       1.2000000000000000 [-]
	 SCS Same-Spin Energy      =      -0.0847910909628965 [Eh]
	 SCS Opposite-Spin Energy  =      -1.1434970759465741 [Eh]
	 SCS Correlation Energy    =      -1.2282881669094705 [Eh]
	 SCS Total Energy          =    -236.6746397204294681 [Eh]
	-----------------------------------------------------------

  Dipole Moment: [D]
     X:    -0.0118      Y:    -0.0011      Z:    -0.1391     Total:     0.1396

*** Psi4 exiting successfully. Buy a developer a beer!
