                               Psi4 1.3.2 release

  ==> Input File <==

--------------------------------------------------------------------------
#psi4
#
memory 32 gb

molecule  {
0 1
  C        0.6973062     0.3291892    -0.4041031
  C       -0.7029620    -0.3173540    -0.3804860
  C        0.9826470     1.1914400     0.8430940
  C        1.8037460    -0.7325620    -0.5400470
  C       -0.9825370    -1.1914260     0.8432460
  C       -1.8038160     0.7325530    -0.5398170
  H        0.7436150     0.9671320    -1.2674360
  H       -0.7437850    -0.9671540    -1.2673200
  H        1.0211370     0.5905480     1.7569780
  H        1.9518370     1.6894640     0.7370170
  H        0.2251830     1.9685050     0.9782860
  H        2.7795120    -0.2525090    -0.6673740
  H        1.8684660    -1.3795410     0.3401940
  H        1.6230310    -1.3663620    -1.4145870
  H       -0.2250570    -1.9684910     0.9783510
  H       -1.0209040    -0.5905180     1.7571240
  H       -1.9517420    -1.6894490     0.7373050
  H       -1.8684140     1.3795480     0.3404210
  H       -2.7795990     0.2525000    -0.6670030
  H       -1.6232180     1.3663380    -1.4143930
units angstrom
no_reorient  #important for SAPT in psi4, default
symmetry c1  #important for SAPT in psi4, default
}

set PROPERTIES_ORIGIN ["COM"]
properties('MP2/aug-cc-pvtz', properties = ['dipole'])
--------------------------------------------------------------------------

    Molecular point group: c1
  Charge       = 0
  Multiplicity = 1
  Basis Set: AUG-CC-PVTZ
    Blend: AUG-CC-PVTZ
  Basis Set: (AUG-CC-PVTZ AUX)
    Blend: AUG-CC-PVTZ-JKFIT

    Orbital Energies [Eh]
    ---------------------

    Doubly Occupied:

       1A    -11.220227     2A    -11.219262     3A    -11.207510
       4A    -11.207488     5A    -11.207197     6A    -11.207193
       7A     -1.100497     8A     -1.007861     9A     -0.928474
      10A     -0.918687    11A     -0.835498    12A     -0.734655
      13A     -0.640317    14A     -0.607210    15A     -0.602793
      16A     -0.560452    17A     -0.550697    18A     -0.536188
      19A     -0.520154    20A     -0.519633    21A     -0.489466
      22A     -0.484065    23A     -0.450544    24A     -0.441491
      25A     -0.435119

  @DF-RHF Final Energy:  -235.44596631488733

   => Energetics <=

    Nuclear Repulsion Energy =            263.8752987622064552
    One-Electron Energy =                -839.3771743842092974
    Two-Electron Energy =                 340.0559093071155985
    Total Energy =                       -235.4459663148873005
  Basis Set: (AUG-CC-PVTZ AUX)
    Blend: AUG-CC-PVTZ-RI
    Molecular point group: c1

    Geometry (in Angstrom), charge = 0, multiplicity = 1:

       Center              X                  Y                   Z               Mass
    ------------   -----------------  -----------------  -----------------  -----------------
         C            0.698088077440     0.327539052190    -0.390137912825    12.000000000000
         C           -0.702180122560    -0.319004147810    -0.366520812825    12.000000000000
         C            0.983428877440     1.189789852190     0.857059187175    12.000000000000
         C            1.804527877440    -0.734212147810    -0.526081812825    12.000000000000
         C           -0.981755122560    -1.193076147810     0.857211187175    12.000000000000
         C           -1.803034122560     0.730902852190    -0.525851812825    12.000000000000
         H            0.744396877440     0.965481852190    -1.253470812825     1.007825032230
         H           -0.743003122560    -0.968804147810    -1.253354812825     1.007825032230
         H            1.021918877440     0.588897852190     1.770943187175     1.007825032230
         H            1.952618877440     1.687813852190     0.750982187175     1.007825032230
         H            0.225964877440     1.966854852190     0.992251187175     1.007825032230
         H            2.780293877440    -0.254159147810    -0.653408812825     1.007825032230
         H            1.869247877440    -1.381191147810     0.354159187175     1.007825032230
         H            1.623812877440    -1.368012147810    -1.400621812825     1.007825032230
         H           -0.224275122560    -1.970141147810     0.992316187175     1.007825032230
         H           -1.020122122560    -0.592168147810     1.771089187175     1.007825032230
         H           -1.950960122560    -1.691099147810     0.751270187175     1.007825032230
         H           -1.867632122560     1.377897852190     0.354386187175     1.007825032230
         H           -2.778817122560     0.250849852190    -0.653037812825     1.007825032230
         H           -1.622436122560     1.364687852190    -1.400427812825     1.007825032230

  Basis Set: AUG-CC-PVTZ
    Blend: AUG-CC-PVTZ
  Basis Set: (AUG-CC-PVTZ AUX)
    Blend: AUG-CC-PVTZ-JKFIT
	 Reference Energy          =    -235.4459663148873290 [Eh]
	 Singles Energy            =      -0.0000000000000000 [Eh]
	 Same-Spin Energy          =      -0.2542543655636496 [Eh]
	 Opposite-Spin Energy      =      -0.9528100796474879 [Eh]
	 Correlation Energy        =      -1.2070644452111374 [Eh]
	 Total Energy              =    -236.6530307600984600 [Eh]

	 ================> DF-SCS-MP2 Energies <==================
	-----------------------------------------------------------
	 SCS Same-Spin Scale       =       0.3333333333333333 [-]
	 SCS Opposite-Spin Scale   =       1.2000000000000000 [-]
	 SCS Same-Spin Energy      =      -0.0847514551878832 [Eh]
	 SCS Opposite-Spin Energy  =      -1.1433720955769855 [Eh]
	 SCS Correlation Energy    =      -1.2281235507648687 [Eh]
	 SCS Total Energy          =    -236.6740898656522063 [Eh]
	-----------------------------------------------------------

  Dipole Moment: [D]
     X:    -0.0032      Y:     0.0010      Z:    -0.1511     Total:     0.1511

*** Psi4 exiting successfully. Buy a developer a beer!
