                               Psi4 1.3.2 release

  ==> Input File <==

--------------------------------------------------------------------------
#psi4
#
memory 32 gb

molecule  {
0 1
  C        0.7029120     0.3173470    -0.3805850
  C       -0.7029620    -0.3173540    -0.3804860
  C        0.9826470     1.1914400     0.8430940
  C        1.8037460    -0.7325620    -0.5400470
  C       -0.9921538    -1.2745906     0.7769898
  C       -1.8038160     0.7325530    -0.5398170
  H        0.7436150     0.9671320    -1.2674360
  H       -0.7437850    -0.9671540    -1.2673200
  H        1.0211370     0.5905480     1.7569780
  H        1.9518370     1.6894640     0.7370170
  H        0.2251830     1.9685050     0.9782860
  H        2.7795120    -0.2525090    -0.6673740
  H        1.8684660    -1.3795410     0.3401940
  H        1.6230310    -1.3663620    -1.4145870
  H       -0.2250570    -1.9684910     0.9783510
  H       -1.0209040    -0.5905180     1.7571240
  H       -1.9517420    -1.6894490     0.7373050
  H       -1.8684140     1.3795480     0.3404210
  H       -2.7795990     0.2525000    -0.6670030
  H       -1.6232180     1.3663380    -1.4143930
units angstrom
no_reorient  #important for SAPT in psi4, default
symmetry c1  #important for SAPT in psi4, default
}

set PROPERTIES_ORIGIN ["COM"]
properties('MP2/aug-cc-pvtz', properties = ['dipole'])
--------------------------------------------------------------------------

    Molecular point group: c1
  Charge       = 0
  Multiplicity = 1
  Basis Set: AUG-CC-PVTZ
    Blend: AUG-CC-PVTZ
  Basis Set: (AUG-CC-PVTZ AUX)
    Blend: AUG-CC-PVTZ-JKFIT

    Orbital Energies [Eh]
    ---------------------

    Doubly Occupied:

       1A    -11.221631     2A    -11.220848     3A    -11.209248
       4A    -11.208466     5A    -11.208140     6A    -11.206705
       7A     -1.101448     8A     -1.010098     9A     -0.931607
      10A     -0.919893    11A     -0.834572    12A     -0.732418
      13A     -0.641838    14A     -0.610728    15A     -0.605811
      16A     -0.562072    17A     -0.552607    18A     -0.539479
      19A     -0.524655    20A     -0.513727    21A     -0.490727
      22A     -0.478281    23A     -0.449350    24A     -0.440687
      25A     -0.431179

  @DF-RHF Final Energy:  -235.43563152366346

   => Energetics <=

    Nuclear Repulsion Energy =            263.7199366009001551
    One-Electron Energy =                -839.0187011841065896
    Two-Electron Energy =                 339.8631330595429745
    Total Energy =                       -235.4356315236634600
  Basis Set: (AUG-CC-PVTZ AUX)
    Blend: AUG-CC-PVTZ-RI
    Molecular point group: c1

    Geometry (in Angstrom), charge = 0, multiplicity = 1:

       Center              X                  Y                   Z               Mass
    ------------   -----------------  -----------------  -----------------  -----------------
         C            0.704252839828     0.328936749438    -0.360663943850    12.000000000000
         C           -0.701621160172    -0.305764250562    -0.360564943850    12.000000000000
         C            0.983987839828     1.203029749438     0.863015056150    12.000000000000
         C            1.805086839828    -0.720972250562    -0.520125943850    12.000000000000
         C           -0.990812960172    -1.263000850562     0.796910856150    12.000000000000
         C           -1.802475160172     0.744142749438    -0.519895943850    12.000000000000
         H            0.744955839828     0.978721749438    -1.247514943850     1.007825032230
         H           -0.742444160172    -0.955564250562    -1.247398943850     1.007825032230
         H            1.022477839828     0.602137749438     1.776899056150     1.007825032230
         H            1.953177839828     1.701053749438     0.756938056150     1.007825032230
         H            0.226523839828     1.980094749438     0.998207056150     1.007825032230
         H            2.780852839828    -0.240919250562    -0.647452943850     1.007825032230
         H            1.869806839828    -1.367951250562     0.360115056150     1.007825032230
         H            1.624371839828    -1.354772250562    -1.394665943850     1.007825032230
         H           -0.223716160172    -1.956901250562     0.998272056150     1.007825032230
         H           -1.019563160172    -0.578928250562     1.777045056150     1.007825032230
         H           -1.950401160172    -1.677859250562     0.757226056150     1.007825032230
         H           -1.867073160172     1.391137749438     0.360342056150     1.007825032230
         H           -2.778258160172     0.264089749438    -0.647081943850     1.007825032230
         H           -1.621877160172     1.377927749438    -1.394471943850     1.007825032230

  Basis Set: AUG-CC-PVTZ
    Blend: AUG-CC-PVTZ
  Basis Set: (AUG-CC-PVTZ AUX)
    Blend: AUG-CC-PVTZ-JKFIT
	 Reference Energy          =    -235.4356315236634600 [Eh]
	 Singles Energy            =      -0.0000000000000000 [Eh]
	 Same-Spin Energy          =      -0.2544873847226701 [Eh]
	 Opposite-Spin Energy      =      -0.9533062627145188 [Eh]
	 Correlation Energy        =      -1.2077936474371889 [Eh]
	 Total Energy              =    -236.6434251711006596 [Eh]

	 ================> DF-SCS-MP2 Energies <==================
	-----------------------------------------------------------
	 SCS Same-Spin Scale       =       0.3333333333333333 [-]
	 SCS Opposite-Spin Scale   =       1.2000000000000000 [-]
	 SCS Same-Spin Energy      =      -0.0848291282408900 [Eh]
	 SCS Opposite-Spin Energy  =      -1.1439675152574225 [Eh]
	 SCS Correlation Energy    =      -1.2287966434983124 [Eh]
	 SCS Total Energy          =    -236.6644281671617591 [Eh]
	-----------------------------------------------------------

  Dipole Moment: [D]
     X:     0.0081      Y:    -0.0222      Z:    -0.2018     Total:     0.2032

*** Psi4 exiting successfully. Buy a developer a beer!
