                               Psi4 1.3.2 release

  ==> Input File <==

--------------------------------------------------------------------------
#psi4
#
memory 32 gb

molecule  {
0 1
  C        0.7029120     0.3173470    -0.3805850
  C       -0.7029620    -0.3173540    -0.3804860
  C        0.9826470     1.1914400     0.8430940
  C        1.8037460    -0.7325620    -0.5400470
  C       -0.9825370    -1.1914260     0.8432460
  C       -1.8038160     0.7325530    -0.5398170
  H        0.7436150     0.9671320    -1.2674360
  H       -0.7437850    -0.9671540    -1.2673200
  H        1.0211370     0.5905480     1.7569780
  H        1.9518370     1.6894640     0.7370170
  H        0.2251830     1.9685050     0.9782860
  H        2.7795120    -0.2525090    -0.6673740
  H        1.8684660    -1.3795410     0.3401940
  H        1.6230310    -1.3663620    -1.4145870
  H       -0.2250570    -1.9684910     0.9783510
  H       -1.0209040    -0.5905180     1.7571240
  H       -1.9517420    -1.6894490     0.7373050
  H       -1.8684140     1.3795480     0.3404210
  H       -2.7795990     0.2525000    -0.6670030
  H       -1.6232180     1.3663380    -1.4143930
units angstrom
no_reorient  #important for SAPT in psi4, default
symmetry c1  #important for SAPT in psi4, default
}

set PROPERTIES_ORIGIN ["COM"]
properties('MP2/aug-cc-pvtz', properties = ['dipole'])
--------------------------------------------------------------------------

    Molecular point group: c1
  Charge       = 0
  Multiplicity = 1
  Basis Set: AUG-CC-PVTZ
    Blend: AUG-CC-PVTZ
  Basis Set: (AUG-CC-PVTZ AUX)
    Blend: AUG-CC-PVTZ-JKFIT

    Orbital Energies [Eh]
    ---------------------

    Doubly Occupied:

       1A    -11.220590     2A    -11.220006     3A    -11.207448
       4A    -11.207445     5A    -11.207089     6A    -11.207086
       7A     -1.101630     8A     -1.009397     9A     -0.929361
      10A     -0.919746    11A     -0.834286    12A     -0.731867
      13A     -0.640193    14A     -0.608261    15A     -0.604303
      16A     -0.560756    17A     -0.550607    18A     -0.536864
      19A     -0.520524    20A     -0.520035    21A     -0.487598
      22A     -0.485771    23A     -0.445522    24A     -0.444712
      25A     -0.435719

  @DF-RHF Final Energy:  -235.44644922269873

   => Energetics <=

    Nuclear Repulsion Energy =            264.0515758180955572
    One-Electron Energy =                -839.7224200560801819
    Two-Electron Energy =                 340.2243950152858929
    Total Energy =                       -235.4464492226987318
  Basis Set: (AUG-CC-PVTZ AUX)
    Blend: AUG-CC-PVTZ-RI
    Molecular point group: c1

    Geometry (in Angstrom), charge = 0, multiplicity = 1:

       Center              X                  Y                   Z               Mass
    ------------   -----------------  -----------------  -----------------  -----------------
         C            0.702912667926     0.317347149971    -0.369897233256    12.000000000000
         C           -0.702961332074    -0.317353850029    -0.369798233256    12.000000000000
         C            0.982647667926     1.191440149971     0.853781766744    12.000000000000
         C            1.803746667926    -0.732561850029    -0.529359233256    12.000000000000
         C           -0.982536332074    -1.191425850029     0.853933766744    12.000000000000
         C           -1.803815332074     0.732553149971    -0.529129233256    12.000000000000
         H            0.743615667926     0.967132149971    -1.256748233256     1.007825032230
         H           -0.743784332074    -0.967153850029    -1.256632233256     1.007825032230
         H            1.021137667926     0.590548149971     1.767665766744     1.007825032230
         H            1.951837667926     1.689464149971     0.747704766744     1.007825032230
         H            0.225183667926     1.968505149971     0.988973766744     1.007825032230
         H            2.779512667926    -0.252508850029    -0.656686233256     1.007825032230
         H            1.868466667926    -1.379540850029     0.350881766744     1.007825032230
         H            1.623031667926    -1.366361850029    -1.403899233256     1.007825032230
         H           -0.225056332074    -1.968490850029     0.989038766744     1.007825032230
         H           -1.020903332074    -0.590517850029     1.767811766744     1.007825032230
         H           -1.951741332074    -1.689448850029     0.747992766744     1.007825032230
         H           -1.868413332074     1.379548149971     0.351108766744     1.007825032230
         H           -2.779598332074     0.252500149971    -0.656315233256     1.007825032230
         H           -1.623217332074     1.366338149971    -1.403705233256     1.007825032230

  Basis Set: AUG-CC-PVTZ
    Blend: AUG-CC-PVTZ
  Basis Set: (AUG-CC-PVTZ AUX)
    Blend: AUG-CC-PVTZ-JKFIT
	 Reference Energy          =    -235.4464492226987318 [Eh]
	 Singles Energy            =      -0.0000000000000000 [Eh]
	 Same-Spin Energy          =      -0.2543930992207660 [Eh]
	 Opposite-Spin Energy      =      -0.9529419872213005 [Eh]
	 Correlation Energy        =      -1.2073350864420664 [Eh]
	 Total Energy              =    -236.6537843091408035 [Eh]

	 ================> DF-SCS-MP2 Energies <==================
	-----------------------------------------------------------
	 SCS Same-Spin Scale       =       0.3333333333333333 [-]
	 SCS Opposite-Spin Scale   =       1.2000000000000000 [-]
	 SCS Same-Spin Energy      =      -0.0847976997402553 [Eh]
	 SCS Opposite-Spin Energy  =      -1.1435303846655607 [Eh]
	 SCS Correlation Energy    =      -1.2283280844058160 [Eh]
	 SCS Total Energy          =    -236.6747773071045344 [Eh]
	-----------------------------------------------------------

  Dipole Moment: [D]
     X:    -0.0000      Y:    -0.0000      Z:    -0.1430     Total:     0.1430

*** Psi4 exiting successfully. Buy a developer a beer!
