                               Psi4 1.3.2 release

  ==> Input File <==

--------------------------------------------------------------------------
#psi4
#
memory 32 gb

molecule  {
0 1
  C        0.7029120     0.3173470    -0.3805850
  C       -0.6563747    -0.3032094    -0.3585749
  C        0.9826470     1.1914400     0.8430940
  C        1.8037460    -0.7325620    -0.5400470
  C       -0.9825370    -1.1914260     0.8432460
  C       -1.8038160     0.7325530    -0.5398170
  H        0.7436150     0.9671320    -1.2674360
  H       -0.7437850    -0.9671540    -1.2673200
  H        1.0211370     0.5905480     1.7569780
  H        1.9518370     1.6894640     0.7370170
  H        0.2251830     1.9685050     0.9782860
  H        2.7795120    -0.2525090    -0.6673740
  H        1.8684660    -1.3795410     0.3401940
  H        1.6230310    -1.3663620    -1.4145870
  H       -0.2250570    -1.9684910     0.9783510
  H       -1.0209040    -0.5905180     1.7571240
  H       -1.9517420    -1.6894490     0.7373050
  H       -1.8684140     1.3795480     0.3404210
  H       -2.7795990     0.2525000    -0.6670030
  H       -1.6232180     1.3663380    -1.4143930
units angstrom
no_reorient  #important for SAPT in psi4, default
symmetry c1  #important for SAPT in psi4, default
}

set PROPERTIES_ORIGIN ["COM"]
properties('MP2/aug-cc-pvtz', properties = ['dipole'])
--------------------------------------------------------------------------

    Molecular point group: c1
  Charge       = 0
  Multiplicity = 1
  Basis Set: AUG-CC-PVTZ
    Blend: AUG-CC-PVTZ
  Basis Set: (AUG-CC-PVTZ AUX)
    Blend: AUG-CC-PVTZ-JKFIT

    Orbital Energies [Eh]
    ---------------------

    Doubly Occupied:

       1A    -11.222121     2A    -11.219160     3A    -11.208245
       4A    -11.207856     5A    -11.207566     6A    -11.207483
       7A     -1.106476     8A     -1.006717     9A     -0.929423
      10A     -0.919163    11A     -0.840377    12A     -0.728351
      13A     -0.642824    14A     -0.608847    15A     -0.603292
      16A     -0.560344    17A     -0.550056    18A     -0.537935
      19A     -0.521212    20A     -0.519643    21A     -0.488278
      22A     -0.484728    23A     -0.450978    24A     -0.440365
      25A     -0.434180

  @DF-RHF Final Energy:  -235.44315588691461

   => Energetics <=

    Nuclear Repulsion Energy =            264.4915806368663880
    One-Electron Energy =                -840.5782353623425251
    Two-Electron Energy =                 340.6434988385615270
    Total Energy =                       -235.4431558869146102
  Basis Set: (AUG-CC-PVTZ AUX)
    Blend: AUG-CC-PVTZ-RI
    Molecular point group: c1

    Geometry (in Angstrom), charge = 0, multiplicity = 1:

       Center              X                  Y                   Z               Mass
    ------------   -----------------  -----------------  -----------------  -----------------
         C            0.696420384584     0.315375995794    -0.372950706403    12.000000000000
         C           -0.662866315416    -0.305180404206    -0.350940606403    12.000000000000
         C            0.976155384584     1.189468995794     0.850728293597    12.000000000000
         C            1.797254384584    -0.734533004206    -0.532412706403    12.000000000000
         C           -0.989028615416    -1.193397004206     0.850880293597    12.000000000000
         C           -1.810307615416     0.730581995794    -0.532182706403    12.000000000000
         H            0.737123384584     0.965160995794    -1.259801706403     1.007825032230
         H           -0.750276615416    -0.969125004206    -1.259685706403     1.007825032230
         H            1.014645384584     0.588576995794     1.764612293597     1.007825032230
         H            1.945345384584     1.687492995794     0.744651293597     1.007825032230
         H            0.218691384584     1.966533995794     0.985920293597     1.007825032230
         H            2.773020384584    -0.254480004206    -0.659739706403     1.007825032230
         H            1.861974384584    -1.381512004206     0.347828293597     1.007825032230
         H            1.616539384584    -1.368333004206    -1.406952706403     1.007825032230
         H           -0.231548615416    -1.970462004206     0.985985293597     1.007825032230
         H           -1.027395615416    -0.592489004206     1.764758293597     1.007825032230
         H           -1.958233615416    -1.691420004206     0.744939293597     1.007825032230
         H           -1.874905615416     1.377576995794     0.348055293597     1.007825032230
         H           -2.786090615416     0.250528995794    -0.659368706403     1.007825032230
         H           -1.629709615416     1.364366995794    -1.406758706403     1.007825032230

  Basis Set: AUG-CC-PVTZ
    Blend: AUG-CC-PVTZ
  Basis Set: (AUG-CC-PVTZ AUX)
    Blend: AUG-CC-PVTZ-JKFIT
	 Reference Energy          =    -235.4431558869146102 [Eh]
	 Singles Energy            =      -0.0000000000000000 [Eh]
	 Same-Spin Energy          =      -0.2546704669067998 [Eh]
	 Opposite-Spin Energy      =      -0.9534188649050608 [Eh]
	 Correlation Energy        =      -1.2080893318118606 [Eh]
	 Total Energy              =    -236.6512452187264728 [Eh]

	 ================> DF-SCS-MP2 Energies <==================
	-----------------------------------------------------------
	 SCS Same-Spin Scale       =       0.3333333333333333 [-]
	 SCS Opposite-Spin Scale   =       1.2000000000000000 [-]
	 SCS Same-Spin Energy      =      -0.0848901556355999 [Eh]
	 SCS Opposite-Spin Energy  =      -1.1441026378860728 [Eh]
	 SCS Correlation Energy    =      -1.2289927935216727 [Eh]
	 SCS Total Energy          =    -236.6721486804362939 [Eh]
	-----------------------------------------------------------

  Dipole Moment: [D]
     X:     0.0269      Y:     0.0019      Z:    -0.1249     Total:     0.1278

*** Psi4 exiting successfully. Buy a developer a beer!
