                               Psi4 1.4a3.dev225

  ==> Input File <==

--------------------------------------------------------------------------
#psi4
#
memory 32 gb

molecule  {
0 1
  C        0.7029150     0.3173330    -0.3805920
  C       -0.7029660    -0.3173390    -0.3804920
  C        0.9826460     1.1915080     0.8430290
  C        1.8037540    -0.7325950    -0.5399760
  C       -0.9788766    -1.1800642     0.8271801
  C       -1.8038280     0.7325860    -0.5397480
  H        0.7436620     0.9670620    -1.2674850
  H       -0.7438300    -0.9670830    -1.2673690
  H        1.0210420     0.5906890     1.7569670
  H        1.9518800     1.6894470     0.7369640
  H        0.2252310     1.9686380     0.9781220
  H        2.7795150    -0.2525500    -0.6673430
  H        1.8684590    -1.3794860     0.3403280
  H        1.6230140    -1.3664690    -1.4144560
  H       -0.2250960    -1.9686200     0.9781850
  H       -1.0208080    -0.5906600     1.7571130
  H       -1.9517780    -1.6894370     0.7372520
  H       -1.8684180     1.3794910     0.3405540
  H       -2.7796050     0.2525370    -0.6669790
  H       -1.6232050     1.3664460    -1.4142620
units angstrom
no_reorient  #important for SAPT in psi4, default
symmetry c1  #important for SAPT in psi4, default
}

set PROPERTIES_ORIGIN ["COM"]
properties('MP2/aug-cc-pvtz', properties = ['dipole'])
--------------------------------------------------------------------------

    Molecular point group: c1
  Charge       = 0
  Multiplicity = 1
  Basis Set: AUG-CC-PVTZ
    Blend: AUG-CC-PVTZ
  Basis Set: (AUG-CC-PVTZ AUX)
    Blend: AUG-CC-PVTZ-JKFIT

    Orbital Energies [Eh]
    ---------------------

    Doubly Occupied:

       1A    -11.220441     2A    -11.219305     3A    -11.208171
       4A    -11.207498     5A    -11.207436     6A    -11.207082
       7A     -1.103323     8A     -1.010614     9A     -0.929350
      10A     -0.919466    11A     -0.834062    12A     -0.732293
      13A     -0.640755    14A     -0.608457    15A     -0.605105
      16A     -0.560935    17A     -0.549818    18A     -0.536539
      19A     -0.520145    20A     -0.518438    21A     -0.488958
      22A     -0.484251    23A     -0.447776    24A     -0.444042
      25A     -0.435293

  @DF-RHF Final Energy:  -235.44580012657946

   => Energetics <=

    Nuclear Repulsion Energy =            264.3483020196250095
    One-Electron Energy =                -840.3090989227822547
    Two-Electron Energy =                 340.5149967765777319
    Total Energy =                       -235.4458001265794564
  Basis Set: (AUG-CC-PVTZ AUX)
    Blend: AUG-CC-PVTZ-RI
    Molecular point group: c1

    Geometry (in Angstrom), charge = 0, multiplicity = 1:

       Center              X                  Y                   Z               Mass
    ------------   -----------------  -----------------  -----------------  -----------------
         C            0.702406388670     0.315740254034    -0.367674299644    12.000000000000
         C           -0.703474611330    -0.318931745966    -0.367574299644    12.000000000000
         C            0.982137388670     1.189915254034     0.855946700356    12.000000000000
         C            1.803245388670    -0.734187745966    -0.527058299644    12.000000000000
         C           -0.979385211330    -1.181656945966     0.840097800356    12.000000000000
         C           -1.804336611330     0.730993254034    -0.526830299644    12.000000000000
         H            0.743153388670     0.965469254034    -1.254567299644     1.007825032230
         H           -0.744338611330    -0.968675745966    -1.254451299644     1.007825032230
         H            1.020533388670     0.589096254034     1.769884700356     1.007825032230
         H            1.951371388670     1.687854254034     0.749881700356     1.007825032230
         H            0.224722388670     1.967045254034     0.991039700356     1.007825032230
         H            2.779006388670    -0.254142745966    -0.654425299644     1.007825032230
         H            1.867950388670    -1.381078745966     0.353245700356     1.007825032230
         H            1.622505388670    -1.368061745966    -1.401538299644     1.007825032230
         H           -0.225604611330    -1.970212745966     0.991102700356     1.007825032230
         H           -1.021316611330    -0.592252745966     1.770030700356     1.007825032230
         H           -1.952286611330    -1.691029745966     0.750169700356     1.007825032230
         H           -1.868926611330     1.377898254034     0.353471700356     1.007825032230
         H           -2.780113611330     0.250944254034    -0.654061299644     1.007825032230
         H           -1.623713611330     1.364853254034    -1.401344299644     1.007825032230

  Basis Set: AUG-CC-PVTZ
    Blend: AUG-CC-PVTZ
  Basis Set: (AUG-CC-PVTZ AUX)
    Blend: AUG-CC-PVTZ-JKFIT
	 Reference Energy          =    -235.4458001265794564 [Eh]
	 Singles Energy            =      -0.0000000000000000 [Eh]
	 Same-Spin Energy          =      -0.2545651326346190 [Eh]
	 Opposite-Spin Energy      =      -0.9531057767844952 [Eh]
	 Correlation Energy        =      -1.2076709094191140 [Eh]
	 Total Energy              =    -236.6534710359985638 [Eh]

	 ================> DF-SCS-MP2 Energies <==================
	-----------------------------------------------------------
	 SCS Same-Spin Scale       =       0.3333333333333333 [-]
	 SCS Opposite-Spin Scale   =       1.2000000000000000 [-]
	 SCS Same-Spin Energy      =      -0.0848550442115397 [Eh]
	 SCS Opposite-Spin Energy  =      -1.1437269321413941 [Eh]
	 SCS Correlation Energy    =      -1.2285819763529338 [Eh]
	 SCS Total Energy          =    -236.6743821029323840 [Eh]
	-----------------------------------------------------------

  Dipole Moment: [D]
     X:    -0.0004      Y:    -0.0024      Z:    -0.1410     Total:     0.1410

*** Psi4 exiting successfully. Buy a developer a beer!
