                               Psi4 1.3.2 release

  ==> Input File <==

--------------------------------------------------------------------------
#psi4
#
memory 32 gb

molecule  {
0 1
  C        0.6629181     0.3853762    -0.5214428
  C       -0.7029620    -0.3173540    -0.3804860
  C        0.9826470     1.1914400     0.8430940
  C        1.8037460    -0.7325620    -0.5400470
  C       -0.9825370    -1.1914260     0.8432460
  C       -1.8038160     0.7325530    -0.5398170
  H        0.7436150     0.9671320    -1.2674360
  H       -0.7437850    -0.9671540    -1.2673200
  H        1.0211370     0.5905480     1.7569780
  H        1.9518370     1.6894640     0.7370170
  H        0.2251830     1.9685050     0.9782860
  H        2.7795120    -0.2525090    -0.6673740
  H        1.8684660    -1.3795410     0.3401940
  H        1.6230310    -1.3663620    -1.4145870
  H       -0.2250570    -1.9684910     0.9783510
  H       -1.0209040    -0.5905180     1.7571240
  H       -1.9517420    -1.6894490     0.7373050
  H       -1.8684140     1.3795480     0.3404210
  H       -2.7795990     0.2525000    -0.6670030
  H       -1.6232180     1.3663380    -1.4143930
units angstrom
no_reorient  #important for SAPT in psi4, default
symmetry c1  #important for SAPT in psi4, default
}

set PROPERTIES_ORIGIN ["COM"]
properties('MP2/aug-cc-pvtz', properties = ['dipole'])
--------------------------------------------------------------------------

    Molecular point group: c1
  Charge       = 0
  Multiplicity = 1
  Basis Set: AUG-CC-PVTZ
    Blend: AUG-CC-PVTZ
  Basis Set: (AUG-CC-PVTZ AUX)
    Blend: AUG-CC-PVTZ-JKFIT

    Orbital Energies [Eh]
    ---------------------

    Doubly Occupied:

       1A    -11.220950     2A    -11.217295     3A    -11.210327
       4A    -11.208898     5A    -11.208649     6A    -11.206202
       7A     -1.096532     8A     -1.000832     9A     -0.927560
      10A     -0.911376    11A     -0.843931    12A     -0.753669
      13A     -0.641110    14A     -0.605995    15A     -0.591649
      16A     -0.559185    17A     -0.550976    18A     -0.533775
      19A     -0.521631    20A     -0.516622    21A     -0.506767
      22A     -0.477857    23A     -0.470840    24A     -0.425868
      25A     -0.417246

  @DF-RHF Final Energy:  -235.41497541115018

   => Energetics <=

    Nuclear Repulsion Energy =            262.9811257069063686
    One-Electron Energy =                -837.5407224094351477
    Two-Electron Energy =                 339.1446212913785985
    Total Energy =                       -235.4149754111501807
  Basis Set: (AUG-CC-PVTZ AUX)
    Blend: AUG-CC-PVTZ-RI
    Molecular point group: c1

    Geometry (in Angstrom), charge = 0, multiplicity = 1:

       Center              X                  Y                   Z               Mass
    ------------   -----------------  -----------------  -----------------  -----------------
         C            0.668492212422     0.375895979957    -0.491125461494    12.000000000000
         C           -0.697387887578    -0.326834220043    -0.350168661494    12.000000000000
         C            0.988221112422     1.181959779957     0.873411338506    12.000000000000
         C            1.809320112422    -0.742042220043    -0.509729661494    12.000000000000
         C           -0.976962887578    -1.200906220043     0.873563338506    12.000000000000
         C           -1.798241887578     0.723072779957    -0.509499661494    12.000000000000
         H            0.749189112422     0.957651779957    -1.237118661494     1.007825032230
         H           -0.738210887578    -0.976634220043    -1.237002661494     1.007825032230
         H            1.026711112422     0.581067779957     1.787295338506     1.007825032230
         H            1.957411112422     1.679983779957     0.767334338506     1.007825032230
         H            0.230757112422     1.959024779957     1.008603338506     1.007825032230
         H            2.785086112422    -0.261989220043    -0.637056661494     1.007825032230
         H            1.874040112422    -1.389021220043     0.370511338506     1.007825032230
         H            1.628605112422    -1.375842220043    -1.384269661494     1.007825032230
         H           -0.219482887578    -1.977971220043     1.008668338506     1.007825032230
         H           -1.015329887578    -0.599998220043     1.787441338506     1.007825032230
         H           -1.946167887578    -1.698929220043     0.767622338506     1.007825032230
         H           -1.862839887578     1.370067779957     0.370738338506     1.007825032230
         H           -2.774024887578     0.243019779957    -0.636685661494     1.007825032230
         H           -1.617643887578     1.356857779957    -1.384075661494     1.007825032230

  Basis Set: AUG-CC-PVTZ
    Blend: AUG-CC-PVTZ
  Basis Set: (AUG-CC-PVTZ AUX)
    Blend: AUG-CC-PVTZ-JKFIT
	 Reference Energy          =    -235.4149754111501807 [Eh]
	 Singles Energy            =      -0.0000000000000000 [Eh]
	 Same-Spin Energy          =      -0.2541004054567998 [Eh]
	 Opposite-Spin Energy      =      -0.9537227810060047 [Eh]
	 Correlation Energy        =      -1.2078231864628046 [Eh]
	 Total Energy              =    -236.6227985976129844 [Eh]

	 ================> DF-SCS-MP2 Energies <==================
	-----------------------------------------------------------
	 SCS Same-Spin Scale       =       0.3333333333333333 [-]
	 SCS Opposite-Spin Scale   =       1.2000000000000000 [-]
	 SCS Same-Spin Energy      =      -0.0847001351522666 [Eh]
	 SCS Opposite-Spin Energy  =      -1.1444673372072056 [Eh]
	 SCS Correlation Energy    =      -1.2291674723594723 [Eh]
	 SCS Total Energy          =    -236.6441428835096588 [Eh]
	-----------------------------------------------------------

  Dipole Moment: [D]
     X:    -0.0351      Y:    -0.0165      Z:    -0.1650     Total:     0.1695

*** Psi4 exiting successfully. Buy a developer a beer!
