                               Psi4 1.4a3.dev225

  ==> Input File <==

--------------------------------------------------------------------------
#psi4
#
memory 32 gb

molecule  {
0 1
  C        0.7029150     0.3173330    -0.3805920
  C       -0.7029660    -0.3173390    -0.3804920
  C        0.9826460     1.1915080     0.8430290
  C        1.8037540    -0.7325950    -0.5399760
  C       -0.9825320    -1.1914940     0.8431800
  C       -1.8038280     0.7325860    -0.5397480
  H        0.7436620     0.9670620    -1.2674850
  H       -0.7438300    -0.9670830    -1.2673690
  H        1.0210420     0.5906890     1.7569670
  H        1.9518800     1.6894470     0.7369640
  H        0.2252310     1.9686380     0.9781220
  H        2.7795150    -0.2525500    -0.6673430
  H        1.8684590    -1.3794860     0.3403280
  H        1.6230140    -1.3664690    -1.4144560
  H       -0.2250960    -1.9686200     0.9781850
  H       -1.0208080    -0.5906600     1.7571130
  H       -1.9694842    -1.6985334     0.7353169
  H       -1.8684180     1.3794910     0.3405540
  H       -2.7796050     0.2525370    -0.6669790
  H       -1.6232050     1.3664460    -1.4142620
units angstrom
no_reorient  #important for SAPT in psi4, default
symmetry c1  #important for SAPT in psi4, default
}

set PROPERTIES_ORIGIN ["COM"]
properties('MP2/aug-cc-pvtz', properties = ['dipole'])
--------------------------------------------------------------------------

    Molecular point group: c1
  Charge       = 0
  Multiplicity = 1
  Basis Set: AUG-CC-PVTZ
    Blend: AUG-CC-PVTZ
  Basis Set: (AUG-CC-PVTZ AUX)
    Blend: AUG-CC-PVTZ-JKFIT

    Orbital Energies [Eh]
    ---------------------

    Doubly Occupied:

       1A    -11.220791     2A    -11.220207     3A    -11.209577
       4A    -11.207583     5A    -11.207453     6A    -11.207231
       7A     -1.101655     8A     -1.009133     9A     -0.928954
      10A     -0.919200    11A     -0.834036    12A     -0.731724
      13A     -0.639480    14A     -0.608392    15A     -0.604433
      16A     -0.560847    17A     -0.550810    18A     -0.535711
      19A     -0.520441    20A     -0.518368    21A     -0.487734
      22A     -0.485938    23A     -0.445724    24A     -0.444847
      25A     -0.435429

  @DF-RHF Final Energy:  -235.44594502512012

   => Energetics <=

    Nuclear Repulsion Energy =            263.9634861151234873
    One-Electron Energy =                -839.5474643213375430
    Two-Electron Energy =                 340.1380331810939310
    Total Energy =                       -235.4459450251201247
  Basis Set: (AUG-CC-PVTZ AUX)
    Blend: AUG-CC-PVTZ-RI
    Molecular point group: c1

    Geometry (in Angstrom), charge = 0, multiplicity = 1:

       Center              X                  Y                   Z               Mass
    ------------   -----------------  -----------------  -----------------  -----------------
         C            0.703123028709     0.317439544982    -0.369881355154    12.000000000000
         C           -0.702757971291    -0.317232455018    -0.369781355154    12.000000000000
         C            0.982854028709     1.191614544982     0.853739644846    12.000000000000
         C            1.803962028709    -0.732488455018    -0.529265355154    12.000000000000
         C           -0.982323971291    -1.191387455018     0.853890644846    12.000000000000
         C           -1.803619971291     0.732692544982    -0.529037355154    12.000000000000
         H            0.743870028709     0.967168544982    -1.256774355154     1.007825032230
         H           -0.743621971291    -0.966976455018    -1.256658355154     1.007825032230
         H            1.021250028709     0.590795544982     1.767677644846     1.007825032230
         H            1.952088028709     1.689553544982     0.747674644846     1.007825032230
         H            0.225439028709     1.968744544982     0.988832644846     1.007825032230
         H            2.779723028709    -0.252443455018    -0.656632355154     1.007825032230
         H            1.868667028709    -1.379379455018     0.351038644846     1.007825032230
         H            1.623222028709    -1.366362455018    -1.403745355154     1.007825032230
         H           -0.224887971291    -1.968513455018     0.988895644846     1.007825032230
         H           -1.020599971291    -0.590553455018     1.767823644846     1.007825032230
         H           -1.969276171291    -1.698426855018     0.746027544846     1.007825032230
         H           -1.868209971291     1.379597544982     0.351264644846     1.007825032230
         H           -2.779396971291     0.252643544982    -0.656268355154     1.007825032230
         H           -1.622996971291     1.366552544982    -1.403551355154     1.007825032230

  Basis Set: AUG-CC-PVTZ
    Blend: AUG-CC-PVTZ
  Basis Set: (AUG-CC-PVTZ AUX)
    Blend: AUG-CC-PVTZ-JKFIT
	 Reference Energy          =    -235.4459450251201247 [Eh]
	 Singles Energy            =      -0.0000000000000000 [Eh]
	 Same-Spin Energy          =      -0.2543880164021119 [Eh]
	 Opposite-Spin Energy      =      -0.9530712315179830 [Eh]
	 Correlation Energy        =      -1.2074592479200950 [Eh]
	 Total Energy              =    -236.6534042730402234 [Eh]

	 ================> DF-SCS-MP2 Energies <==================
	-----------------------------------------------------------
	 SCS Same-Spin Scale       =       0.3333333333333333 [-]
	 SCS Opposite-Spin Scale   =       1.2000000000000000 [-]
	 SCS Same-Spin Energy      =      -0.0847960054673706 [Eh]
	 SCS Opposite-Spin Energy  =      -1.1436854778215795 [Eh]
	 SCS Correlation Energy    =      -1.2284814832889501 [Eh]
	 SCS Total Energy          =    -236.6744265084090841 [Eh]
	-----------------------------------------------------------

  Dipole Moment: [D]
     X:     0.0139      Y:     0.0087      Z:    -0.1452     Total:     0.1461

*** Psi4 exiting successfully. Buy a developer a beer!
