                               Psi4 1.3.2 release

  ==> Input File <==

--------------------------------------------------------------------------
#psi4
#
memory 32 gb

molecule  {
0 1
  C        0.7029120     0.3173470    -0.3805850
  C       -0.7029620    -0.3173540    -0.3804860
  C        0.9826470     1.1914400     0.8430940
  C        1.8037460    -0.7325620    -0.5400470
  C       -1.0707873    -1.1336359     0.8597045
  C       -1.8038160     0.7325530    -0.5398170
  H        0.7436150     0.9671320    -1.2674360
  H       -0.7437850    -0.9671540    -1.2673200
  H        1.0211370     0.5905480     1.7569780
  H        1.9518370     1.6894640     0.7370170
  H        0.2251830     1.9685050     0.9782860
  H        2.7795120    -0.2525090    -0.6673740
  H        1.8684660    -1.3795410     0.3401940
  H        1.6230310    -1.3663620    -1.4145870
  H       -0.2250570    -1.9684910     0.9783510
  H       -1.0209040    -0.5905180     1.7571240
  H       -1.9517420    -1.6894490     0.7373050
  H       -1.8684140     1.3795480     0.3404210
  H       -2.7795990     0.2525000    -0.6670030
  H       -1.6232180     1.3663380    -1.4143930
units angstrom
no_reorient  #important for SAPT in psi4, default
symmetry c1  #important for SAPT in psi4, default
}

set PROPERTIES_ORIGIN ["COM"]
properties('MP2/aug-cc-pvtz', properties = ['dipole'])
--------------------------------------------------------------------------

    Molecular point group: c1
  Charge       = 0
  Multiplicity = 1
  Basis Set: AUG-CC-PVTZ
    Blend: AUG-CC-PVTZ
  Basis Set: (AUG-CC-PVTZ AUX)
    Blend: AUG-CC-PVTZ-JKFIT

    Orbital Energies [Eh]
    ---------------------

    Doubly Occupied:

       1A    -11.221844     2A    -11.220899     3A    -11.208725
       4A    -11.207976     5A    -11.207236     6A    -11.205927
       7A     -1.102152     8A     -1.011928     9A     -0.927865
      10A     -0.919398    11A     -0.835805    12A     -0.733772
      13A     -0.645553    14A     -0.608214    15A     -0.598458
      16A     -0.561656    17A     -0.557391    18A     -0.538031
      19A     -0.526581    20A     -0.518259    21A     -0.490489
      22A     -0.474170    23A     -0.450407    24A     -0.440249
      25A     -0.431498

  @DF-RHF Final Energy:  -235.43533050352829

   => Energetics <=

    Nuclear Repulsion Energy =            263.9645752973912636
    One-Electron Energy =                -839.5108396868232603
    Two-Electron Energy =                 340.1109338859037621
    Total Energy =                       -235.4353305035282915
  Basis Set: (AUG-CC-PVTZ AUX)
    Blend: AUG-CC-PVTZ-RI
    Molecular point group: c1

    Geometry (in Angstrom), charge = 0, multiplicity = 1:

       Center              X                  Y                   Z               Mass
    ------------   -----------------  -----------------  -----------------  -----------------
         C            0.715210997141     0.309293673947    -0.372190846438    12.000000000000
         C           -0.690663002859    -0.325407326053    -0.372091846438    12.000000000000
         C            0.994945997141     1.183386673947     0.851488153562    12.000000000000
         C            1.816044997141    -0.740615326053    -0.531652846438    12.000000000000
         C           -1.058488302859    -1.141689226053     0.868098653562    12.000000000000
         C           -1.791517002859     0.724499673947    -0.531422846438    12.000000000000
         H            0.755913997141     0.959078673947    -1.259041846438     1.007825032230
         H           -0.731486002859    -0.975207326053    -1.258925846438     1.007825032230
         H            1.033435997141     0.582494673947     1.765372153562     1.007825032230
         H            1.964135997141     1.681410673947     0.745411153562     1.007825032230
         H            0.237481997141     1.960451673947     0.986680153562     1.007825032230
         H            2.791810997141    -0.260562326053    -0.658979846438     1.007825032230
         H            1.880764997141    -1.387594326053     0.348588153562     1.007825032230
         H            1.635329997141    -1.374415326053    -1.406192846438     1.007825032230
         H           -0.212758002859    -1.976544326053     0.986745153562     1.007825032230
         H           -1.008605002859    -0.598571326053     1.765518153562     1.007825032230
         H           -1.939443002859    -1.697502326053     0.745699153562     1.007825032230
         H           -1.856115002859     1.371494673947     0.348815153562     1.007825032230
         H           -2.767300002859     0.244446673947    -0.658608846438     1.007825032230
         H           -1.610919002859     1.358284673947    -1.405998846438     1.007825032230

  Basis Set: AUG-CC-PVTZ
    Blend: AUG-CC-PVTZ
  Basis Set: (AUG-CC-PVTZ AUX)
    Blend: AUG-CC-PVTZ-JKFIT
	 Reference Energy          =    -235.4353305035282915 [Eh]
	 Singles Energy            =      -0.0000000000000000 [Eh]
	 Same-Spin Energy          =      -0.2545446750655558 [Eh]
	 Opposite-Spin Energy      =      -0.9534605317416219 [Eh]
	 Correlation Energy        =      -1.2080052068071778 [Eh]
	 Total Energy              =    -236.6433357103354638 [Eh]

	 ================> DF-SCS-MP2 Energies <==================
	-----------------------------------------------------------
	 SCS Same-Spin Scale       =       0.3333333333333333 [-]
	 SCS Opposite-Spin Scale   =       1.2000000000000000 [-]
	 SCS Same-Spin Energy      =      -0.0848482250218519 [Eh]
	 SCS Opposite-Spin Energy  =      -1.1441526380899463 [Eh]
	 SCS Correlation Energy    =      -1.2290008631117981 [Eh]
	 SCS Total Energy          =    -236.6643313666400843 [Eh]
	-----------------------------------------------------------

  Dipole Moment: [D]
     X:    -0.0115      Y:     0.0327      Z:    -0.1378     Total:     0.1420

*** Psi4 exiting successfully. Buy a developer a beer!
