                               Psi4 1.3.2 release

  ==> Input File <==

--------------------------------------------------------------------------
#psi4
#
memory 32 gb

molecule  {
0 1
  C        0.7029120     0.3173470    -0.3805850
  C       -0.8445386    -0.3661020    -0.4371761
  C        0.9826470     1.1914400     0.8430940
  C        1.8037460    -0.7325620    -0.5400470
  C       -0.9825370    -1.1914260     0.8432460
  C       -1.8038160     0.7325530    -0.5398170
  H        0.7436150     0.9671320    -1.2674360
  H       -0.7437850    -0.9671540    -1.2673200
  H        1.0211370     0.5905480     1.7569780
  H        1.9518370     1.6894640     0.7370170
  H        0.2251830     1.9685050     0.9782860
  H        2.7795120    -0.2525090    -0.6673740
  H        1.8684660    -1.3795410     0.3401940
  H        1.6230310    -1.3663620    -1.4145870
  H       -0.2250570    -1.9684910     0.9783510
  H       -1.0209040    -0.5905180     1.7571240
  H       -1.9517420    -1.6894490     0.7373050
  H       -1.8684140     1.3795480     0.3404210
  H       -2.7795990     0.2525000    -0.6670030
  H       -1.6232180     1.3663380    -1.4143930
units angstrom
no_reorient  #important for SAPT in psi4, default
symmetry c1  #important for SAPT in psi4, default
}

set PROPERTIES_ORIGIN ["COM"]
properties('MP2/aug-cc-pvtz', properties = ['dipole'])
--------------------------------------------------------------------------

    Molecular point group: c1
  Charge       = 0
  Multiplicity = 1
  Basis Set: AUG-CC-PVTZ
    Blend: AUG-CC-PVTZ
  Basis Set: (AUG-CC-PVTZ AUX)
    Blend: AUG-CC-PVTZ-JKFIT

    Orbital Energies [Eh]
    ---------------------

    Doubly Occupied:

       1A    -11.221495     2A    -11.219318     3A    -11.208030
       4A    -11.206649     5A    -11.206155     6A    -11.206089
       7A     -1.093264     8A     -1.016651     9A     -0.931879
      10A     -0.919928    11A     -0.820956    12A     -0.741613
      13A     -0.632924    14A     -0.613802    15A     -0.603569
      16A     -0.564323    17A     -0.551837    18A     -0.536509
      19A     -0.523291    20A     -0.519195    21A     -0.497237
      22A     -0.485708    23A     -0.461189    24A     -0.452986
      25A     -0.387042

  @DF-RHF Final Energy:  -235.42487370772460

   => Energetics <=

    Nuclear Repulsion Energy =            262.7810917963581687
    One-Electron Energy =                -837.1686500026270323
    Two-Electron Energy =                 338.9626844985442631
    Total Energy =                       -235.4248737077246005
  Basis Set: (AUG-CC-PVTZ AUX)
    Blend: AUG-CC-PVTZ-RI
    Molecular point group: c1

    Geometry (in Angstrom), charge = 0, multiplicity = 1:

       Center              X                  Y                   Z               Mass
    ------------   -----------------  -----------------  -----------------  -----------------
         C            0.722642409762     0.324140542770    -0.361997050333    12.000000000000
         C           -0.824808190238    -0.359308457230    -0.418588150333    12.000000000000
         C            1.002377409762     1.198233542770     0.861681949667    12.000000000000
         C            1.823476409762    -0.725768457230    -0.521459050333    12.000000000000
         C           -0.962806590238    -1.184632457230     0.861833949667    12.000000000000
         C           -1.784085590238     0.739346542770    -0.521229050333    12.000000000000
         H            0.763345409762     0.973925542770    -1.248848050333     1.007825032230
         H           -0.724054590238    -0.960360457230    -1.248732050333     1.007825032230
         H            1.040867409762     0.597341542770     1.775565949667     1.007825032230
         H            1.971567409762     1.696257542770     0.755604949667     1.007825032230
         H            0.244913409762     1.975298542770     0.996873949667     1.007825032230
         H            2.799242409762    -0.245715457230    -0.648786050333     1.007825032230
         H            1.888196409762    -1.372747457230     0.358781949667     1.007825032230
         H            1.642761409762    -1.359568457230    -1.395999050333     1.007825032230
         H           -0.205326590238    -1.961697457230     0.996938949667     1.007825032230
         H           -1.001173590238    -0.583724457230     1.775711949667     1.007825032230
         H           -1.932011590238    -1.682655457230     0.755892949667     1.007825032230
         H           -1.848683590238     1.386341542770     0.359008949667     1.007825032230
         H           -2.759868590238     0.259293542770    -0.648415050333     1.007825032230
         H           -1.603487590238     1.373131542770    -1.395805050333     1.007825032230

  Basis Set: AUG-CC-PVTZ
    Blend: AUG-CC-PVTZ
  Basis Set: (AUG-CC-PVTZ AUX)
    Blend: AUG-CC-PVTZ-JKFIT
	 Reference Energy          =    -235.4248737077246005 [Eh]
	 Singles Energy            =      -0.0000000000000000 [Eh]
	 Same-Spin Energy          =      -0.2549596793157857 [Eh]
	 Opposite-Spin Energy      =      -0.9541421196422643 [Eh]
	 Correlation Energy        =      -1.2091017989580499 [Eh]
	 Total Energy              =    -236.6339755066826456 [Eh]

	 ================> DF-SCS-MP2 Energies <==================
	-----------------------------------------------------------
	 SCS Same-Spin Scale       =       0.3333333333333333 [-]
	 SCS Opposite-Spin Scale   =       1.2000000000000000 [-]
	 SCS Same-Spin Energy      =      -0.0849865597719286 [Eh]
	 SCS Opposite-Spin Energy  =      -1.1449705435707171 [Eh]
	 SCS Correlation Energy    =      -1.2299571033426457 [Eh]
	 SCS Total Energy          =    -236.6548308110672565 [Eh]
	-----------------------------------------------------------

  Dipole Moment: [D]
     X:    -0.0758      Y:     0.0022      Z:    -0.1735     Total:     0.1893

*** Psi4 exiting successfully. Buy a developer a beer!
