                               Psi4 1.3.2 release

  ==> Input File <==

--------------------------------------------------------------------------
#psi4
#
memory 32 gb

molecule  {
0 1
  C        0.7029120     0.3173470    -0.3805850
  C       -0.7029620    -0.3173540    -0.3804860
  C        0.9826470     1.1914400     0.8430940
  C        1.8037460    -0.7325620    -0.5400470
  C       -0.9825370    -1.1914260     0.8432460
  C       -1.8038160     0.7325530    -0.5398170
  H        0.7436150     0.9671320    -1.2674360
  H       -0.7437850    -0.9671540    -1.2673200
  H        1.0211370     0.5905480     1.7569780
  H        1.9518370     1.6894640     0.7370170
  H        0.2251830     1.9685050     0.9782860
  H        2.7795120    -0.2525090    -0.6673740
  H        1.8684660    -1.3795410     0.3401940
  H        1.6230310    -1.3663620    -1.4145870
  H       -0.2250570    -1.9684910     0.9783510
  H       -1.0388309    -0.5964237     1.7600550
  H       -1.9517420    -1.6894490     0.7373050
  H       -1.8684140     1.3795480     0.3404210
  H       -2.7795990     0.2525000    -0.6670030
  H       -1.6232180     1.3663380    -1.4143930
units angstrom
no_reorient  #important for SAPT in psi4, default
symmetry c1  #important for SAPT in psi4, default
}

set PROPERTIES_ORIGIN ["COM"]
properties('MP2/aug-cc-pvtz', properties = ['dipole'])
--------------------------------------------------------------------------

    Molecular point group: c1
  Charge       = 0
  Multiplicity = 1
  Basis Set: AUG-CC-PVTZ
    Blend: AUG-CC-PVTZ
  Basis Set: (AUG-CC-PVTZ AUX)
    Blend: AUG-CC-PVTZ-JKFIT

    Orbital Energies [Eh]
    ---------------------

    Doubly Occupied:

       1A    -11.220653     2A    -11.220049     3A    -11.207472
       4A    -11.207443     5A    -11.207090     6A    -11.207008
       7A     -1.101577     8A     -1.009400     9A     -0.929364
      10A     -0.919691    11A     -0.834377    12A     -0.732029
      13A     -0.639854    14A     -0.608403    15A     -0.604283
      16A     -0.560759    17A     -0.550739    18A     -0.536665
      19A     -0.520625    20A     -0.519382    21A     -0.487673
      22A     -0.485947    23A     -0.445790    24A     -0.444723
      25A     -0.435572

  @DF-RHF Final Energy:  -235.44643625294879

   => Energetics <=

    Nuclear Repulsion Energy =            264.0270963942318190
    One-Electron Energy =                -839.6739290407215321
    Two-Electron Energy =                 340.2003963935408706
    Total Energy =                       -235.4464362529487858
  Basis Set: (AUG-CC-PVTZ AUX)
    Blend: AUG-CC-PVTZ-RI
    Molecular point group: c1

    Geometry (in Angstrom), charge = 0, multiplicity = 1:

       Center              X                  Y                   Z               Mass
    ------------   -----------------  -----------------  -----------------  -----------------
         C            0.703122484125     0.317416270205    -0.369931537641    12.000000000000
         C           -0.702751515875    -0.317284729795    -0.369832537641    12.000000000000
         C            0.982857484125     1.191509270205     0.853747462359    12.000000000000
         C            1.803956484125    -0.732492729795    -0.529393537641    12.000000000000
         C           -0.982326515875    -1.191356729795     0.853899462359    12.000000000000
         C           -1.803605515875     0.732622270205    -0.529163537641    12.000000000000
         H            0.743825484125     0.967201270205    -1.256782537641     1.007825032230
         H           -0.743574515875    -0.967084729795    -1.256666537641     1.007825032230
         H            1.021347484125     0.590617270205     1.767631462359     1.007825032230
         H            1.952047484125     1.689533270205     0.747670462359     1.007825032230
         H            0.225393484125     1.968574270205     0.988939462359     1.007825032230
         H            2.779722484125    -0.252439729795    -0.656720537641     1.007825032230
         H            1.868676484125    -1.379471729795     0.350847462359     1.007825032230
         H            1.623241484125    -1.366292729795    -1.403933537641     1.007825032230
         H           -0.224846515875    -1.968421729795     0.989004462359     1.007825032230
         H           -1.038620415875    -0.596354429795     1.770708462359     1.007825032230
         H           -1.951531515875    -1.689379729795     0.747958462359     1.007825032230
         H           -1.868203515875     1.379617270205     0.351074462359     1.007825032230
         H           -2.779388515875     0.252569270205    -0.656349537641     1.007825032230
         H           -1.623007515875     1.366407270205    -1.403739537641     1.007825032230

  Basis Set: AUG-CC-PVTZ
    Blend: AUG-CC-PVTZ
  Basis Set: (AUG-CC-PVTZ AUX)
    Blend: AUG-CC-PVTZ-JKFIT
	 Reference Energy          =    -235.4464362529487858 [Eh]
	 Singles Energy            =      -0.0000000000000000 [Eh]
	 Same-Spin Energy          =      -0.2543812741652771 [Eh]
	 Opposite-Spin Energy      =      -0.9529255175070268 [Eh]
	 Correlation Energy        =      -1.2073067916723039 [Eh]
	 Total Energy              =    -236.6537430446210806 [Eh]

	 ================> DF-SCS-MP2 Energies <==================
	-----------------------------------------------------------
	 SCS Same-Spin Scale       =       0.3333333333333333 [-]
	 SCS Opposite-Spin Scale   =       1.2000000000000000 [-]
	 SCS Same-Spin Energy      =      -0.0847937580550924 [Eh]
	 SCS Opposite-Spin Energy  =      -1.1435106210084320 [Eh]
	 SCS Correlation Energy    =      -1.2283043790635244 [Eh]
	 SCS Total Energy          =    -236.6747406320123162 [Eh]
	-----------------------------------------------------------

  Dipole Moment: [D]
     X:    -0.0059      Y:    -0.0006      Z:    -0.1410     Total:     0.1411

*** Psi4 exiting successfully. Buy a developer a beer!
