                               Psi4 1.3.2 release

  ==> Input File <==

--------------------------------------------------------------------------
#psi4
#
memory 32 gb

molecule  {
0 1
  C        0.7029120     0.3173470    -0.3805850
  C       -0.7029620    -0.3173540    -0.3804860
  C        0.9826470     1.1914400     0.8430940
  C        1.8037460    -0.7325620    -0.5400470
  C       -0.9655743    -1.0588270     0.9313587
  C       -1.8038160     0.7325530    -0.5398170
  H        0.7436150     0.9671320    -1.2674360
  H       -0.7437850    -0.9671540    -1.2673200
  H        1.0211370     0.5905480     1.7569780
  H        1.9518370     1.6894640     0.7370170
  H        0.2251830     1.9685050     0.9782860
  H        2.7795120    -0.2525090    -0.6673740
  H        1.8684660    -1.3795410     0.3401940
  H        1.6230310    -1.3663620    -1.4145870
  H       -0.2250570    -1.9684910     0.9783510
  H       -1.0209040    -0.5905180     1.7571240
  H       -1.9517420    -1.6894490     0.7373050
  H       -1.8684140     1.3795480     0.3404210
  H       -2.7795990     0.2525000    -0.6670030
  H       -1.6232180     1.3663380    -1.4143930
units angstrom
no_reorient  #important for SAPT in psi4, default
symmetry c1  #important for SAPT in psi4, default
}

set PROPERTIES_ORIGIN ["COM"]
properties('MP2/aug-cc-pvtz', properties = ['dipole'])
--------------------------------------------------------------------------

    Molecular point group: c1
  Charge       = 0
  Multiplicity = 1
  Basis Set: AUG-CC-PVTZ
    Blend: AUG-CC-PVTZ
  Basis Set: (AUG-CC-PVTZ AUX)
    Blend: AUG-CC-PVTZ-JKFIT

    Orbital Energies [Eh]
    ---------------------

    Doubly Occupied:

       1A    -11.222932     2A    -11.219407     3A    -11.211168
       4A    -11.207963     5A    -11.206950     6A    -11.206780
       7A     -1.103800     8A     -1.010118     9A     -0.928326
      10A     -0.922664    11A     -0.837161    12A     -0.737868
      13A     -0.638849    14A     -0.613618    15A     -0.600144
      16A     -0.577888    17A     -0.558636    18A     -0.531803
      19A     -0.524601    20A     -0.502082    21A     -0.495658
      22A     -0.475874    23A     -0.454817    24A     -0.435415
      25A     -0.426745

  @DF-RHF Final Energy:  -235.41437198502496

   => Energetics <=

    Nuclear Repulsion Energy =            264.6387337409227030
    One-Electron Energy =                -840.8036745546841075
    Two-Electron Energy =                 340.7505688287364478
    Total Energy =                       -235.4143719850249568
  Basis Set: (AUG-CC-PVTZ AUX)
    Blend: AUG-CC-PVTZ-RI
    Molecular point group: c1

    Geometry (in Angstrom), charge = 0, multiplicity = 1:

       Center              X                  Y                   Z               Mass
    ------------   -----------------  -----------------  -----------------  -----------------
         C            0.700548790761     0.298868502810    -0.382176386898    12.000000000000
         C           -0.705325209239    -0.335832497190    -0.382077386898    12.000000000000
         C            0.980283790761     1.172961502810     0.841502613102    12.000000000000
         C            1.801382790761    -0.751040497190    -0.541638386898    12.000000000000
         C           -0.967937509239    -1.077305497190     0.929767313102    12.000000000000
         C           -1.806179209239     0.714074502810    -0.541408386898    12.000000000000
         H            0.741251790761     0.948653502810    -1.269027386898     1.007825032230
         H           -0.746148209239    -0.985632497190    -1.268911386898     1.007825032230
         H            1.018773790761     0.572069502810     1.755386613102     1.007825032230
         H            1.949473790761     1.670985502810     0.735425613102     1.007825032230
         H            0.222819790761     1.950026502810     0.976694613102     1.007825032230
         H            2.777148790761    -0.270987497190    -0.668965386898     1.007825032230
         H            1.866102790761    -1.398019497190     0.338602613102     1.007825032230
         H            1.620667790761    -1.384840497190    -1.416178386898     1.007825032230
         H           -0.227420209239    -1.986969497190     0.976759613102     1.007825032230
         H           -1.023267209239    -0.608996497190     1.755532613102     1.007825032230
         H           -1.954105209239    -1.707927497190     0.735713613102     1.007825032230
         H           -1.870777209239     1.361069502810     0.338829613102     1.007825032230
         H           -2.781962209239     0.234021502810    -0.668594386898     1.007825032230
         H           -1.625581209239     1.347859502810    -1.415984386898     1.007825032230

  Basis Set: AUG-CC-PVTZ
    Blend: AUG-CC-PVTZ
  Basis Set: (AUG-CC-PVTZ AUX)
    Blend: AUG-CC-PVTZ-JKFIT
	 Reference Energy          =    -235.4143719850249568 [Eh]
	 Singles Energy            =      -0.0000000000000000 [Eh]
	 Same-Spin Energy          =      -0.2550203207508231 [Eh]
	 Opposite-Spin Energy      =      -0.9546499035191722 [Eh]
	 Correlation Energy        =      -1.2096702242699955 [Eh]
	 Total Energy              =    -236.6240422092949416 [Eh]

	 ================> DF-SCS-MP2 Energies <==================
	-----------------------------------------------------------
	 SCS Same-Spin Scale       =       0.3333333333333333 [-]
	 SCS Opposite-Spin Scale   =       1.2000000000000000 [-]
	 SCS Same-Spin Energy      =      -0.0850067735836077 [Eh]
	 SCS Opposite-Spin Energy  =      -1.1455798842230067 [Eh]
	 SCS Correlation Energy    =      -1.2305866578066145 [Eh]
	 SCS Total Energy          =    -236.6449586428315683 [Eh]
	-----------------------------------------------------------

  Dipole Moment: [D]
     X:     0.0132      Y:     0.0502      Z:    -0.1358     Total:     0.1454

*** Psi4 exiting successfully. Buy a developer a beer!
