                               Psi4 1.4a3.dev225

  ==> Input File <==

--------------------------------------------------------------------------
#psi4
#
memory 32 gb

molecule  {
0 1
  C        0.7029150     0.3173330    -0.3805920
  C       -0.7029660    -0.3173390    -0.3804920
  C        0.9826460     1.1915080     0.8430290
  C        1.8037540    -0.7325950    -0.5399760
  C       -0.9825320    -1.1914940     0.8431800
  C       -1.8038280     0.7325860    -0.5397480
  H        0.7436620     0.9670620    -1.2674850
  H       -0.7438300    -0.9670830    -1.2673690
  H        1.0210420     0.5906890     1.7569670
  H        1.9518800     1.6894470     0.7369640
  H        0.2252310     1.9686380     0.9781220
  H        2.7795150    -0.2525500    -0.6673430
  H        1.8684590    -1.3794860     0.3403280
  H        1.6230140    -1.3664690    -1.4144560
  H       -0.2250960    -1.9686200     0.9781850
  H       -1.0208080    -0.5906600     1.7571130
  H       -1.9960435    -1.7121781     0.7324143
  H       -1.8684180     1.3794910     0.3405540
  H       -2.7796050     0.2525370    -0.6669790
  H       -1.6232050     1.3664460    -1.4142620
units angstrom
no_reorient  #important for SAPT in psi4, default
symmetry c1  #important for SAPT in psi4, default
}

set PROPERTIES_ORIGIN ["COM"]
properties('MP2/aug-cc-pvtz', properties = ['dipole'])
--------------------------------------------------------------------------

    Molecular point group: c1
  Charge       = 0
  Multiplicity = 1
  Basis Set: AUG-CC-PVTZ
    Blend: AUG-CC-PVTZ
  Basis Set: (AUG-CC-PVTZ AUX)
    Blend: AUG-CC-PVTZ-JKFIT

    Orbital Energies [Eh]
    ---------------------

    Doubly Occupied:

       1A    -11.221111     2A    -11.220528     3A    -11.213263
       4A    -11.207799     5A    -11.207469     6A    -11.207459
       7A     -1.101731     8A     -1.008809     9A     -0.928541
      10A     -0.918358    11A     -0.833700    12A     -0.731564
      13A     -0.638511    14A     -0.608617    15A     -0.604640
      16A     -0.560990    17A     -0.551144    18A     -0.534448
      19A     -0.520685    20A     -0.515031    21A     -0.487943
      22A     -0.486209    23A     -0.446054    24A     -0.445068
      25A     -0.434931

  @DF-RHF Final Energy:  -235.44439106880134

   => Energetics <=

    Nuclear Repulsion Energy =            263.8357672311580018
    One-Electron Energy =                -839.2911078261807916
    Two-Electron Energy =                 340.0109495262214523
    Total Energy =                       -235.4443910688013375
  Basis Set: (AUG-CC-PVTZ AUX)
    Blend: AUG-CC-PVTZ-RI
    Molecular point group: c1

    Geometry (in Angstrom), charge = 0, multiplicity = 1:

       Center              X                  Y                   Z               Mass
    ------------   -----------------  -----------------  -----------------  -----------------
         C            0.703433878403     0.317599242369    -0.369847383162    12.000000000000
         C           -0.702447121597    -0.317072757631    -0.369747383162    12.000000000000
         C            0.983164878403     1.191774242369     0.853773616838    12.000000000000
         C            1.804272878403    -0.732328757631    -0.529231383162    12.000000000000
         C           -0.982013121597    -1.191227757631     0.853924616838    12.000000000000
         C           -1.803309121597     0.732852242369    -0.529003383162    12.000000000000
         H            0.744180878403     0.967328242369    -1.256740383162     1.007825032230
         H           -0.743311121597    -0.966816757631    -1.256624383162     1.007825032230
         H            1.021560878403     0.590955242369     1.767711616838     1.007825032230
         H            1.952398878403     1.689713242369     0.747708616838     1.007825032230
         H            0.225749878403     1.968904242369     0.988866616838     1.007825032230
         H            2.780033878403    -0.252283757631    -0.656598383162     1.007825032230
         H            1.868977878403    -1.379219757631     0.351072616838     1.007825032230
         H            1.623532878403    -1.366202757631    -1.403711383162     1.007825032230
         H           -0.224577121597    -1.968353757631     0.988929616838     1.007825032230
         H           -1.020289121597    -0.590393757631     1.767857616838     1.007825032230
         H           -1.995524621597    -1.711911857631     0.743158916838     1.007825032230
         H           -1.867899121597     1.379757242369     0.351298616838     1.007825032230
         H           -2.779086121597     0.252803242369    -0.656234383162     1.007825032230
         H           -1.622686121597     1.366712242369    -1.403517383162     1.007825032230

  Basis Set: AUG-CC-PVTZ
    Blend: AUG-CC-PVTZ
  Basis Set: (AUG-CC-PVTZ AUX)
    Blend: AUG-CC-PVTZ-JKFIT
	 Reference Energy          =    -235.4443910688013375 [Eh]
	 Singles Energy            =      -0.0000000000000000 [Eh]
	 Same-Spin Energy          =      -0.2543810537655833 [Eh]
	 Opposite-Spin Energy      =      -0.9532795210371227 [Eh]
	 Correlation Energy        =      -1.2076605748027061 [Eh]
	 Total Energy              =    -236.6520516436040396 [Eh]

	 ================> DF-SCS-MP2 Energies <==================
	-----------------------------------------------------------
	 SCS Same-Spin Scale       =       0.3333333333333333 [-]
	 SCS Opposite-Spin Scale   =       1.2000000000000000 [-]
	 SCS Same-Spin Energy      =      -0.0847936845885278 [Eh]
	 SCS Opposite-Spin Energy  =      -1.1439354252445471 [Eh]
	 SCS Correlation Energy    =      -1.2287291098330748 [Eh]
	 SCS Total Energy          =    -236.6731201786344059 [Eh]
	-----------------------------------------------------------

  Dipole Moment: [D]
     X:     0.0359      Y:     0.0225      Z:    -0.1486     Total:     0.1545

*** Psi4 exiting successfully. Buy a developer a beer!
