                               Psi4 1.3.2 release

  ==> Input File <==

--------------------------------------------------------------------------
#psi4
#
memory 32 gb

molecule  {
0 1
  C        0.7029120     0.3173470    -0.3805850
  C       -0.7029620    -0.3173540    -0.3804860
  C        0.9826470     1.1914400     0.8430940
  C        1.8037460    -0.7325620    -0.5400470
  C       -0.9964366    -1.3144484     0.7417258
  C       -1.8038160     0.7325530    -0.5398170
  H        0.7436150     0.9671320    -1.2674360
  H       -0.7437850    -0.9671540    -1.2673200
  H        1.0211370     0.5905480     1.7569780
  H        1.9518370     1.6894640     0.7370170
  H        0.2251830     1.9685050     0.9782860
  H        2.7795120    -0.2525090    -0.6673740
  H        1.8684660    -1.3795410     0.3401940
  H        1.6230310    -1.3663620    -1.4145870
  H       -0.2250570    -1.9684910     0.9783510
  H       -1.0209040    -0.5905180     1.7571240
  H       -1.9517420    -1.6894490     0.7373050
  H       -1.8684140     1.3795480     0.3404210
  H       -2.7795990     0.2525000    -0.6670030
  H       -1.6232180     1.3663380    -1.4143930
units angstrom
no_reorient  #important for SAPT in psi4, default
symmetry c1  #important for SAPT in psi4, default
}

set PROPERTIES_ORIGIN ["COM"]
properties('MP2/aug-cc-pvtz', properties = ['dipole'])
--------------------------------------------------------------------------

    Molecular point group: c1
  Charge       = 0
  Multiplicity = 1
  Basis Set: AUG-CC-PVTZ
    Blend: AUG-CC-PVTZ
  Basis Set: (AUG-CC-PVTZ AUX)
    Blend: AUG-CC-PVTZ-JKFIT

    Orbital Energies [Eh]
    ---------------------

    Doubly Occupied:

       1A    -11.222441     2A    -11.221783     3A    -11.211849
       4A    -11.209125     5A    -11.208583     6A    -11.206563
       7A     -1.101711     8A     -1.010766     9A     -0.933083
      10A     -0.920224    11A     -0.835135    12A     -0.733563
      13A     -0.643655    14A     -0.613352    15A     -0.605843
      16A     -0.563507    17A     -0.558946    18A     -0.537638
      19A     -0.525334    20A     -0.511403    21A     -0.491982
      22A     -0.474101    23A     -0.451492    24A     -0.442172
      25A     -0.421496

  @DF-RHF Final Energy:  -235.42347752152372

   => Energetics <=

    Nuclear Repulsion Energy =            263.5623231923675576
    One-Electron Energy =                -838.6601091708766944
    Two-Electron Energy =                 339.6743084569853863
    Total Energy =                       -235.4234775215237505
  Basis Set: (AUG-CC-PVTZ AUX)
    Blend: AUG-CC-PVTZ-RI
    Molecular point group: c1

    Geometry (in Angstrom), charge = 0, multiplicity = 1:

       Center              X                  Y                   Z               Mass
    ------------   -----------------  -----------------  -----------------  -----------------
         C            0.704849679549     0.334491227396    -0.355749645752    12.000000000000
         C           -0.701024320451    -0.300209772604    -0.355650645752    12.000000000000
         C            0.984584679549     1.208584227396     0.867929354248    12.000000000000
         C            1.805683679549    -0.715417772604    -0.515211645752    12.000000000000
         C           -0.994498920451    -1.297304172604     0.766561154248    12.000000000000
         C           -1.801878320451     0.749697227396    -0.514981645752    12.000000000000
         H            0.745552679549     0.984276227396    -1.242600645752     1.007825032230
         H           -0.741847320451    -0.950009772604    -1.242484645752     1.007825032230
         H            1.023074679549     0.607692227396     1.781813354248     1.007825032230
         H            1.953774679549     1.706608227396     0.761852354248     1.007825032230
         H            0.227120679549     1.985649227396     1.003121354248     1.007825032230
         H            2.781449679549    -0.235364772604    -0.642538645752     1.007825032230
         H            1.870403679549    -1.362396772604     0.365029354248     1.007825032230
         H            1.624968679549    -1.349217772604    -1.389751645752     1.007825032230
         H           -0.223119320451    -1.951346772604     1.003186354248     1.007825032230
         H           -1.018966320451    -0.573373772604     1.781959354248     1.007825032230
         H           -1.949804320451    -1.672304772604     0.762140354248     1.007825032230
         H           -1.866476320451     1.396692227396     0.365256354248     1.007825032230
         H           -2.777661320451     0.269644227396    -0.642167645752     1.007825032230
         H           -1.621280320451     1.383482227396    -1.389557645752     1.007825032230

  Basis Set: AUG-CC-PVTZ
    Blend: AUG-CC-PVTZ
  Basis Set: (AUG-CC-PVTZ AUX)
    Blend: AUG-CC-PVTZ-JKFIT
	 Reference Energy          =    -235.4234775215237221 [Eh]
	 Singles Energy            =      -0.0000000000000000 [Eh]
	 Same-Spin Energy          =      -0.2546757642783070 [Eh]
	 Opposite-Spin Energy      =      -0.9538920819842625 [Eh]
	 Correlation Energy        =      -1.2085678462625693 [Eh]
	 Total Energy              =    -236.6320453677863043 [Eh]

	 ================> DF-SCS-MP2 Energies <==================
	-----------------------------------------------------------
	 SCS Same-Spin Scale       =       0.3333333333333333 [-]
	 SCS Opposite-Spin Scale   =       1.2000000000000000 [-]
	 SCS Same-Spin Energy      =      -0.0848919214261023 [Eh]
	 SCS Opposite-Spin Energy  =      -1.1446704983811149 [Eh]
	 SCS Correlation Energy    =      -1.2295624198072173 [Eh]
	 SCS Total Energy          =    -236.6530399413309453 [Eh]
	-----------------------------------------------------------

  Dipole Moment: [D]
     X:     0.0166      Y:    -0.0297      Z:    -0.2441     Total:     0.2464

*** Psi4 exiting successfully. Buy a developer a beer!
