                               Psi4 1.3.2 release

  ==> Input File <==

--------------------------------------------------------------------------
#psi4
#
memory 32 gb

molecule  {
0 1
  C        0.7029120     0.3173470    -0.3805850
  C       -0.7029620    -0.3173540    -0.3804860
  C        0.9826470     1.1914400     0.8430940
  C        1.8037460    -0.7325620    -0.5400470
  C       -0.9825370    -1.1914260     0.8432460
  C       -1.8038160     0.7325530    -0.5398170
  H        0.7436150     0.9671320    -1.2674360
  H       -0.7474956    -1.0262174    -1.3479286
  H        1.0211370     0.5905480     1.7569780
  H        1.9518370     1.6894640     0.7370170
  H        0.2251830     1.9685050     0.9782860
  H        2.7795120    -0.2525090    -0.6673740
  H        1.8684660    -1.3795410     0.3401940
  H        1.6230310    -1.3663620    -1.4145870
  H       -0.2250570    -1.9684910     0.9783510
  H       -1.0209040    -0.5905180     1.7571240
  H       -1.9517420    -1.6894490     0.7373050
  H       -1.8684140     1.3795480     0.3404210
  H       -2.7795990     0.2525000    -0.6670030
  H       -1.6232180     1.3663380    -1.4143930
units angstrom
no_reorient  #important for SAPT in psi4, default
symmetry c1  #important for SAPT in psi4, default
}

set PROPERTIES_ORIGIN ["COM"]
properties('MP2/aug-cc-pvtz', properties = ['dipole'])
--------------------------------------------------------------------------

    Molecular point group: c1
  Charge       = 0
  Multiplicity = 1
  Basis Set: AUG-CC-PVTZ
    Blend: AUG-CC-PVTZ
  Basis Set: (AUG-CC-PVTZ AUX)
    Blend: AUG-CC-PVTZ-JKFIT

    Orbital Energies [Eh]
    ---------------------

    Doubly Occupied:

       1A    -11.232858     2A    -11.221434     3A    -11.208658
       4A    -11.208344     5A    -11.208155     6A    -11.207309
       7A     -1.100279     8A     -1.008864     9A     -0.930018
      10A     -0.920333    11A     -0.831901    12A     -0.724609
      13A     -0.636759    14A     -0.607586    15A     -0.604764
      16A     -0.561130    17A     -0.551311    18A     -0.537626
      19A     -0.521190    20A     -0.520380    21A     -0.487674
      22A     -0.483669    23A     -0.445961    24A     -0.440398
      25A     -0.433056

  @DF-RHF Final Energy:  -235.44011754040019

   => Energetics <=

    Nuclear Repulsion Energy =            263.5833741427402970
    One-Electron Energy =                -838.7784535307298484
    Two-Electron Energy =                 339.7549618475894135
    Total Energy =                       -235.4401175404001947
  Basis Set: (AUG-CC-PVTZ AUX)
    Blend: AUG-CC-PVTZ-RI
    Molecular point group: c1

    Geometry (in Angstrom), charge = 0, multiplicity = 1:

       Center              X                  Y                   Z               Mass
    ------------   -----------------  -----------------  -----------------  -----------------
         C            0.702956096739     0.318038427218    -0.368953791275    12.000000000000
         C           -0.702917903261    -0.316662572782    -0.368854791275    12.000000000000
         C            0.982691096739     1.192131427218     0.854725208725    12.000000000000
         C            1.803790096739    -0.731870572782    -0.528415791275    12.000000000000
         C           -0.982492903261    -1.190734572782     0.854877208725    12.000000000000
         C           -1.803771903261     0.733244427218    -0.528185791275    12.000000000000
         H            0.743659096739     0.967823427218    -1.255804791275     1.007825032230
         H           -0.747451503261    -1.025525972782    -1.336297391275     1.007825032230
         H            1.021181096739     0.591239427218     1.768609208725     1.007825032230
         H            1.951881096739     1.690155427218     0.748648208725     1.007825032230
         H            0.225227096739     1.969196427218     0.989917208725     1.007825032230
         H            2.779556096739    -0.251817572782    -0.655742791275     1.007825032230
         H            1.868510096739    -1.378849572782     0.351825208725     1.007825032230
         H            1.623075096739    -1.365670572782    -1.402955791275     1.007825032230
         H           -0.225012903261    -1.967799572782     0.989982208725     1.007825032230
         H           -1.020859903261    -0.589826572782     1.768755208725     1.007825032230
         H           -1.951697903261    -1.688757572782     0.748936208725     1.007825032230
         H           -1.868369903261     1.380239427218     0.352052208725     1.007825032230
         H           -2.779554903261     0.253191427218    -0.655371791275     1.007825032230
         H           -1.623173903261     1.367029427218    -1.402761791275     1.007825032230

  Basis Set: AUG-CC-PVTZ
    Blend: AUG-CC-PVTZ
  Basis Set: (AUG-CC-PVTZ AUX)
    Blend: AUG-CC-PVTZ-JKFIT
	 Reference Energy          =    -235.4401175404001947 [Eh]
	 Singles Energy            =      -0.0000000000000000 [Eh]
	 Same-Spin Energy          =      -0.2544621043083856 [Eh]
	 Opposite-Spin Energy      =      -0.9537484372373348 [Eh]
	 Correlation Energy        =      -1.2082105415457205 [Eh]
	 Total Energy              =    -236.6483280819459196 [Eh]

	 ================> DF-SCS-MP2 Energies <==================
	-----------------------------------------------------------
	 SCS Same-Spin Scale       =       0.3333333333333333 [-]
	 SCS Opposite-Spin Scale   =       1.2000000000000000 [-]
	 SCS Same-Spin Energy      =      -0.0848207014361285 [Eh]
	 SCS Opposite-Spin Energy  =      -1.1444981246848018 [Eh]
	 SCS Correlation Energy    =      -1.2293188261209305 [Eh]
	 SCS Total Energy          =    -236.6694363665211256 [Eh]
	-----------------------------------------------------------

  Dipole Moment: [D]
     X:     0.0039      Y:     0.0595      Z:    -0.0611     Total:     0.0854

*** Psi4 exiting successfully. Buy a developer a beer!
