                               Psi4 1.4a3.dev225

  ==> Input File <==

--------------------------------------------------------------------------
#psi4
#
memory 32 gb

molecule  {
0 1
  C        0.7029150     0.3173330    -0.3805920
  C       -0.7029660    -0.3173390    -0.3804920
  C        0.9826460     1.1915080     0.8430290
  C        1.8037540    -0.7325950    -0.5399760
  C       -0.9825320    -1.1914940     0.8431800
  C       -1.8038280     0.7325860    -0.5397480
  H        0.7436620     0.9670620    -1.2674850
  H       -0.7430871    -0.9552714    -1.2512465
  H        1.0210420     0.5906890     1.7569670
  H        1.9518800     1.6894470     0.7369640
  H        0.2252310     1.9686380     0.9781220
  H        2.7795150    -0.2525500    -0.6673430
  H        1.8684590    -1.3794860     0.3403280
  H        1.6230140    -1.3664690    -1.4144560
  H       -0.2250960    -1.9686200     0.9781850
  H       -1.0208080    -0.5906600     1.7571130
  H       -1.9517780    -1.6894370     0.7372520
  H       -1.8684180     1.3794910     0.3405540
  H       -2.7796050     0.2525370    -0.6669790
  H       -1.6232050     1.3664460    -1.4142620
units angstrom
no_reorient  #important for SAPT in psi4, default
symmetry c1  #important for SAPT in psi4, default
}

set PROPERTIES_ORIGIN ["COM"]
properties('MP2/aug-cc-pvtz', properties = ['dipole'])
--------------------------------------------------------------------------

    Molecular point group: c1
  Charge       = 0
  Multiplicity = 1
  Basis Set: AUG-CC-PVTZ
    Blend: AUG-CC-PVTZ
  Basis Set: (AUG-CC-PVTZ AUX)
    Blend: AUG-CC-PVTZ-JKFIT

    Orbital Energies [Eh]
    ---------------------

    Doubly Occupied:

       1A    -11.220137     2A    -11.217674     3A    -11.207478
       4A    -11.207238     5A    -11.206906     6A    -11.206870
       7A     -1.102044     8A     -1.009591     9A     -0.929262
      10A     -0.919650    11A     -0.834964    12A     -0.733613
      13A     -0.640927    14A     -0.608382    15A     -0.604212
      16A     -0.560704    17A     -0.550489    18A     -0.536741
      19A     -0.520438    20A     -0.519969    21A     -0.488101
      22A     -0.485833    23A     -0.446658    24A     -0.444713
      25A     -0.435690

  @DF-RHF Final Energy:  -235.44651825157314

   => Energetics <=

    Nuclear Repulsion Energy =            264.1508109519999721
    One-Electron Energy =                -839.9180899973270016
    Two-Electron Energy =                 340.3207607937539478
    Total Energy =                       -235.4465182515731385
  Basis Set: (AUG-CC-PVTZ AUX)
    Blend: AUG-CC-PVTZ-RI
    Molecular point group: c1

    Geometry (in Angstrom), charge = 0, multiplicity = 1:

       Center              X                  Y                   Z               Mass
    ------------   -----------------  -----------------  -----------------  -----------------
         C            0.702907100688     0.317194838028    -0.370092701064    12.000000000000
         C           -0.702973899312    -0.317477161972    -0.369992701064    12.000000000000
         C            0.982638100688     1.191369838028     0.853528298936    12.000000000000
         C            1.803746100688    -0.732733161972    -0.529476701064    12.000000000000
         C           -0.982539899312    -1.191632161972     0.853679298936    12.000000000000
         C           -1.803835899312     0.732447838028    -0.529248701064    12.000000000000
         H            0.743654100688     0.966923838028    -1.256985701064     1.007825032230
         H           -0.743094999312    -0.955409561972    -1.240747201064     1.007825032230
         H            1.021034100688     0.590550838028     1.767466298936     1.007825032230
         H            1.951872100688     1.689308838028     0.747463298936     1.007825032230
         H            0.225223100688     1.968499838028     0.988621298936     1.007825032230
         H            2.779507100688    -0.252688161972    -0.656843701064     1.007825032230
         H            1.868451100688    -1.379624161972     0.350827298936     1.007825032230
         H            1.623006100688    -1.366607161972    -1.403956701064     1.007825032230
         H           -0.225103899312    -1.968758161972     0.988684298936     1.007825032230
         H           -1.020815899312    -0.590798161972     1.767612298936     1.007825032230
         H           -1.951785899312    -1.689575161972     0.747751298936     1.007825032230
         H           -1.868425899312     1.379352838028     0.351053298936     1.007825032230
         H           -2.779612899312     0.252398838028    -0.656479701064     1.007825032230
         H           -1.623212899312     1.366307838028    -1.403762701064     1.007825032230

  Basis Set: AUG-CC-PVTZ
    Blend: AUG-CC-PVTZ
  Basis Set: (AUG-CC-PVTZ AUX)
    Blend: AUG-CC-PVTZ-JKFIT
	 Reference Energy          =    -235.4465182515731385 [Eh]
	 Singles Energy            =      -0.0000000000000000 [Eh]
	 Same-Spin Energy          =      -0.2543798943650931 [Eh]
	 Opposite-Spin Energy      =      -0.9528028253448129 [Eh]
	 Correlation Energy        =      -1.2071827197099059 [Eh]
	 Total Energy              =    -236.6537009712830582 [Eh]

	 ================> DF-SCS-MP2 Energies <==================
	-----------------------------------------------------------
	 SCS Same-Spin Scale       =       0.3333333333333333 [-]
	 SCS Opposite-Spin Scale   =       1.2000000000000000 [-]
	 SCS Same-Spin Energy      =      -0.0847932981216977 [Eh]
	 SCS Opposite-Spin Energy  =      -1.1433633904137754 [Eh]
	 SCS Correlation Energy    =      -1.2281566885354731 [Eh]
	 SCS Total Energy          =    -236.6746749401086163 [Eh]
	-----------------------------------------------------------

  Dipole Moment: [D]
     X:    -0.0006      Y:    -0.0101      Z:    -0.1570     Total:     0.1573

*** Psi4 exiting successfully. Buy a developer a beer!
