                               Psi4 1.4a3.dev225

  ==> Input File <==

--------------------------------------------------------------------------
#psi4
#
memory 32 gb

molecule  {
0 1
  C        0.7029150     0.3173330    -0.3805920
  C       -0.7029660    -0.3173390    -0.3804920
  C        0.9826460     1.1915080     0.8430290
  C        1.8037540    -0.7325950    -0.5399760
  C       -0.9825320    -1.1914940     0.8431800
  C       -1.8038280     0.7325860    -0.5397480
  H        0.7436620     0.9670620    -1.2674850
  H       -0.7438300    -0.9670830    -1.2673690
  H        1.0210420     0.5906890     1.7569670
  H        1.9518800     1.6894470     0.7369640
  H        0.2252310     1.9686380     0.9781220
  H        2.7795150    -0.2525500    -0.6673430
  H        1.8684590    -1.3794860     0.3403280
  H        1.6230140    -1.3664690    -1.4144560
  H       -0.2250960    -1.9686200     0.9781850
  H       -1.0208080    -0.5906600     1.7571130
  H       -1.9340718    -1.6803406     0.7391871
  H       -1.8684180     1.3794910     0.3405540
  H       -2.7796050     0.2525370    -0.6669790
  H       -1.6232050     1.3664460    -1.4142620
units angstrom
no_reorient  #important for SAPT in psi4, default
symmetry c1  #important for SAPT in psi4, default
}

set PROPERTIES_ORIGIN ["COM"]
properties('MP2/aug-cc-pvtz', properties = ['dipole'])
--------------------------------------------------------------------------

    Molecular point group: c1
  Charge       = 0
  Multiplicity = 1
  Basis Set: AUG-CC-PVTZ
    Blend: AUG-CC-PVTZ
  Basis Set: (AUG-CC-PVTZ AUX)
    Blend: AUG-CC-PVTZ-JKFIT

    Orbital Energies [Eh]
    ---------------------

    Doubly Occupied:

       1A    -11.220401     2A    -11.219817     3A    -11.207442
       4A    -11.207317     5A    -11.206951     6A    -11.204576
       7A     -1.101624     8A     -1.009702     9A     -0.929903
      10A     -0.920251    11A     -0.834560    12A     -0.732031
      13A     -0.640968    14A     -0.608129    15A     -0.604185
      16A     -0.560675    17A     -0.550416    18A     -0.538306
      19A     -0.521952    20A     -0.520062    21A     -0.487471
      22A     -0.485607    23A     -0.445328    24A     -0.444574
      25A     -0.435992

  @DF-RHF Final Energy:  -235.44646789819933

   => Energetics <=

    Nuclear Repulsion Energy =            264.1410607180902161
    One-Electron Energy =                -839.8985756159922857
    Two-Electron Energy =                 340.3110469997027394
    Total Energy =                       -235.4464678981993302
  Basis Set: (AUG-CC-PVTZ AUX)
    Blend: AUG-CC-PVTZ-RI
    Molecular point group: c1

    Geometry (in Angstrom), charge = 0, multiplicity = 1:

       Center              X                  Y                   Z               Mass
    ------------   -----------------  -----------------  -----------------  -----------------
         C            0.702708562451     0.317226616693    -0.369926651923    12.000000000000
         C           -0.703172437549    -0.317445383307    -0.369826651923    12.000000000000
         C            0.982439562451     1.191401616693     0.853694348077    12.000000000000
         C            1.803547562451    -0.732701383307    -0.529310651923    12.000000000000
         C           -0.982738437549    -1.191600383307     0.853845348077    12.000000000000
         C           -1.804034437549     0.732479616693    -0.529082651923    12.000000000000
         H            0.743455562451     0.966955616693    -1.256819651923     1.007825032230
         H           -0.744036437549    -0.967189383307    -1.256703651923     1.007825032230
         H            1.020835562451     0.590582616693     1.767632348077     1.007825032230
         H            1.951673562451     1.689340616693     0.747629348077     1.007825032230
         H            0.225024562451     1.968531616693     0.988787348077     1.007825032230
         H            2.779308562451    -0.252656383307    -0.656677651923     1.007825032230
         H            1.868252562451    -1.379592383307     0.350993348077     1.007825032230
         H            1.622807562451    -1.366575383307    -1.403790651923     1.007825032230
         H           -0.225302437549    -1.968726383307     0.988850348077     1.007825032230
         H           -1.021014437549    -0.590766383307     1.767778348077     1.007825032230
         H           -1.934278237549    -1.680446983307     0.749852448077     1.007825032230
         H           -1.868624437549     1.379384616693     0.351219348077     1.007825032230
         H           -2.779811437549     0.252430616693    -0.656313651923     1.007825032230
         H           -1.623411437549     1.366339616693    -1.403596651923     1.007825032230

  Basis Set: AUG-CC-PVTZ
    Blend: AUG-CC-PVTZ
  Basis Set: (AUG-CC-PVTZ AUX)
    Blend: AUG-CC-PVTZ-JKFIT
	 Reference Energy          =    -235.4464678981993302 [Eh]
	 Singles Energy            =      -0.0000000000000000 [Eh]
	 Same-Spin Energy          =      -0.2543983957673416 [Eh]
	 Opposite-Spin Energy      =      -0.9528211300552287 [Eh]
	 Correlation Energy        =      -1.2072195258225702 [Eh]
	 Total Energy              =    -236.6536874240219106 [Eh]

	 ================> DF-SCS-MP2 Energies <==================
	-----------------------------------------------------------
	 SCS Same-Spin Scale       =       0.3333333333333333 [-]
	 SCS Opposite-Spin Scale   =       1.2000000000000000 [-]
	 SCS Same-Spin Energy      =      -0.0847994652557805 [Eh]
	 SCS Opposite-Spin Energy  =      -1.1433853560662743 [Eh]
	 SCS Correlation Energy    =      -1.2281848213220548 [Eh]
	 SCS Total Energy          =    -236.6746527195213901 [Eh]
	-----------------------------------------------------------

  Dipole Moment: [D]
     X:    -0.0133      Y:    -0.0083      Z:    -0.1410     Total:     0.1418

*** Psi4 exiting successfully. Buy a developer a beer!
