                               Psi4 1.3.2 release

  ==> Input File <==

--------------------------------------------------------------------------
#psi4
#
memory 32 gb

molecule  {
0 1
  C        0.7029120     0.3173470    -0.3805850
  C       -0.7029620    -0.3173540    -0.3804860
  C        0.9826470     1.1914400     0.8430940
  C        1.8037460    -0.7325620    -0.5400470
  C       -0.9825370    -1.1914260     0.8432460
  C       -1.8038160     0.7325530    -0.5398170
  H        0.7436150     0.9671320    -1.2674360
  H       -0.7437850    -0.9671540    -1.2673200
  H        1.0211370     0.5905480     1.7569780
  H        1.9518370     1.6894640     0.7370170
  H        0.2251830     1.9685050     0.9782860
  H        2.7795120    -0.2525090    -0.6673740
  H        1.8684660    -1.3795410     0.3401940
  H        1.6230310    -1.3663620    -1.4145870
  H       -0.2250570    -1.9684910     0.9783510
  H       -1.1280993    -0.6286328     1.7705059
  H       -1.9517420    -1.6894490     0.7373050
  H       -1.8684140     1.3795480     0.3404210
  H       -2.7795990     0.2525000    -0.6670030
  H       -1.6232180     1.3663380    -1.4143930
units angstrom
no_reorient  #important for SAPT in psi4, default
symmetry c1  #important for SAPT in psi4, default
}

set PROPERTIES_ORIGIN ["COM"]
properties('MP2/aug-cc-pvtz', properties = ['dipole'])
--------------------------------------------------------------------------

    Molecular point group: c1
  Charge       = 0
  Multiplicity = 1
  Basis Set: AUG-CC-PVTZ
    Blend: AUG-CC-PVTZ
  Basis Set: (AUG-CC-PVTZ AUX)
    Blend: AUG-CC-PVTZ-JKFIT

    Orbital Energies [Eh]
    ---------------------

    Doubly Occupied:

       1A    -11.221191     2A    -11.220080     3A    -11.207607
       4A    -11.207438     5A    -11.207091     6A    -11.206639
       7A     -1.101364     8A     -1.009456     9A     -0.929446
      10A     -0.919508    11A     -0.834879    12A     -0.732875
      13A     -0.638441    14A     -0.609151    15A     -0.604185
      16A     -0.560796    17A     -0.552226    18A     -0.535690
      19A     -0.521550    20A     -0.514922    21A     -0.488051
      22A     -0.486410    23A     -0.447009    24A     -0.444721
      25A     -0.434628

  @DF-RHF Final Energy:  -235.44529735839274

   => Energetics <=

    Nuclear Repulsion Energy =            263.9116458812870292
    One-Electron Energy =                -839.4431782749782087
    Two-Electron Energy =                 340.0862350352983867
    Total Energy =                       -235.4452973583927360
  Basis Set: (AUG-CC-PVTZ AUX)
    Blend: AUG-CC-PVTZ-RI
    Molecular point group: c1

    Geometry (in Angstrom), charge = 0, multiplicity = 1:

       Center              X                  Y                   Z               Mass
    ------------   -----------------  -----------------  -----------------  -----------------
         C            0.704167280291     0.317793245083    -0.370053854836    12.000000000000
         C           -0.701706719709    -0.316907754917    -0.369954854836    12.000000000000
         C            0.983902280291     1.191886245083     0.853625145164    12.000000000000
         C            1.805001280291    -0.732115754917    -0.529515854836    12.000000000000
         C           -0.981281719709    -1.190979754917     0.853777145164    12.000000000000
         C           -1.802560719709     0.732999245083    -0.529285854836    12.000000000000
         H            0.744870280291     0.967578245083    -1.256904854836     1.007825032230
         H           -0.742529719709    -0.966707754917    -1.256788854836     1.007825032230
         H            1.022392280291     0.590994245083     1.767509145164     1.007825032230
         H            1.953092280291     1.689910245083     0.747548145164     1.007825032230
         H            0.226438280291     1.968951245083     0.988817145164     1.007825032230
         H            2.780767280291    -0.252062754917    -0.656842854836     1.007825032230
         H            1.869721280291    -1.379094754917     0.350725145164     1.007825032230
         H            1.624286280291    -1.365915754917    -1.404055854836     1.007825032230
         H           -0.223801719709    -1.968044754917     0.988882145164     1.007825032230
         H           -1.126844019709    -0.628186554917     1.781037045164     1.007825032230
         H           -1.950486719709    -1.689002754917     0.747836145164     1.007825032230
         H           -1.867158719709     1.379994245083     0.350952145164     1.007825032230
         H           -2.778343719709     0.252946245083    -0.656471854836     1.007825032230
         H           -1.621962719709     1.366784245083    -1.403861854836     1.007825032230

  Basis Set: AUG-CC-PVTZ
    Blend: AUG-CC-PVTZ
  Basis Set: (AUG-CC-PVTZ AUX)
    Blend: AUG-CC-PVTZ-JKFIT
	 Reference Energy          =    -235.4452973583927360 [Eh]
	 Singles Energy            =      -0.0000000000000000 [Eh]
	 Same-Spin Energy          =      -0.2543795136211406 [Eh]
	 Opposite-Spin Energy      =      -0.9529215845949666 [Eh]
	 Correlation Energy        =      -1.2073010982161072 [Eh]
	 Total Energy              =    -236.6525984566088425 [Eh]

	 ================> DF-SCS-MP2 Energies <==================
	-----------------------------------------------------------
	 SCS Same-Spin Scale       =       0.3333333333333333 [-]
	 SCS Opposite-Spin Scale   =       1.2000000000000000 [-]
	 SCS Same-Spin Energy      =      -0.0847931712070469 [Eh]
	 SCS Opposite-Spin Energy  =      -1.1435059015139599 [Eh]
	 SCS Correlation Energy    =      -1.2282990727210068 [Eh]
	 SCS Total Energy          =    -236.6735964311137366 [Eh]
	-----------------------------------------------------------

  Dipole Moment: [D]
     X:    -0.0364      Y:    -0.0039      Z:    -0.1326     Total:     0.1376

*** Psi4 exiting successfully. Buy a developer a beer!
