                               Psi4 1.4a3.dev225

  ==> Input File <==

--------------------------------------------------------------------------
#psi4
#
memory 32 gb

molecule  {
0 1
  C        0.7029150     0.3173330    -0.3805920
  C       -0.7029660    -0.3173390    -0.3804920
  C        0.9826460     1.1915080     0.8430290
  C        1.8037540    -0.7325950    -0.5399760
  C       -0.9825320    -1.1914940     0.8431800
  C       -1.8038280     0.7325860    -0.5397480
  H        0.7436620     0.9670620    -1.2674850
  H       -0.7445729    -0.9788946    -1.2834915
  H        1.0210420     0.5906890     1.7569670
  H        1.9518800     1.6894470     0.7369640
  H        0.2252310     1.9686380     0.9781220
  H        2.7795150    -0.2525500    -0.6673430
  H        1.8684590    -1.3794860     0.3403280
  H        1.6230140    -1.3664690    -1.4144560
  H       -0.2250960    -1.9686200     0.9781850
  H       -1.0208080    -0.5906600     1.7571130
  H       -1.9517780    -1.6894370     0.7372520
  H       -1.8684180     1.3794910     0.3405540
  H       -2.7796050     0.2525370    -0.6669790
  H       -1.6232050     1.3664460    -1.4142620
units angstrom
no_reorient  #important for SAPT in psi4, default
symmetry c1  #important for SAPT in psi4, default
}

set PROPERTIES_ORIGIN ["COM"]
properties('MP2/aug-cc-pvtz', properties = ['dipole'])
--------------------------------------------------------------------------

    Molecular point group: c1
  Charge       = 0
  Multiplicity = 1
  Basis Set: AUG-CC-PVTZ
    Blend: AUG-CC-PVTZ
  Basis Set: (AUG-CC-PVTZ AUX)
    Blend: AUG-CC-PVTZ-JKFIT

    Orbital Energies [Eh]
    ---------------------

    Doubly Occupied:

       1A    -11.222900     2A    -11.220470     3A    -11.207666
       4A    -11.207417     5A    -11.207316     6A    -11.207279
       7A     -1.101265     8A     -1.009232     9A     -0.929474
      10A     -0.919844    11A     -0.833684    12A     -0.730213
      13A     -0.639472    14A     -0.608124    15A     -0.604401
      16A     -0.560819    17A     -0.550730    18A     -0.537001
      19A     -0.520628    20A     -0.520102    21A     -0.487327
      22A     -0.485527    23A     -0.445239    24A     -0.443860
      25A     -0.435674

  @DF-RHF Final Energy:  -235.44591828462430

   => Energetics <=

    Nuclear Repulsion Energy =            263.9536848641549796
    One-Electron Energy =                -839.5278758713823208
    Two-Electron Energy =                 340.1282727226030147
    Total Energy =                       -235.4459182846243266
  Basis Set: (AUG-CC-PVTZ AUX)
    Blend: AUG-CC-PVTZ-RI
    Molecular point group: c1

    Geometry (in Angstrom), charge = 0, multiplicity = 1:

       Center              X                  Y                   Z               Mass
    ------------   -----------------  -----------------  -----------------  -----------------
         C            0.702924490472     0.317471323647    -0.369715306013    12.000000000000
         C           -0.702956509528    -0.317200676353    -0.369615306013    12.000000000000
         C            0.982655490472     1.191646323647     0.853905693987    12.000000000000
         C            1.803763490472    -0.732456676353    -0.529099306013    12.000000000000
         C           -0.982522509528    -1.191355676353     0.854056693987    12.000000000000
         C           -1.803818509528     0.732724323647    -0.528871306013    12.000000000000
         H            0.743671490472     0.967200323647    -1.256608306013     1.007825032230
         H           -0.744563409528    -0.978756276353    -1.272614806013     1.007825032230
         H            1.021051490472     0.590827323647     1.767843693987     1.007825032230
         H            1.951889490472     1.689585323647     0.747840693987     1.007825032230
         H            0.225240490472     1.968776323647     0.988998693987     1.007825032230
         H            2.779524490472    -0.252411676353    -0.656466306013     1.007825032230
         H            1.868468490472    -1.379347676353     0.351204693987     1.007825032230
         H            1.623023490472    -1.366330676353    -1.403579306013     1.007825032230
         H           -0.225086509528    -1.968481676353     0.989061693987     1.007825032230
         H           -1.020798509528    -0.590521676353     1.767989693987     1.007825032230
         H           -1.951768509528    -1.689298676353     0.748128693987     1.007825032230
         H           -1.868408509528     1.379629323647     0.351430693987     1.007825032230
         H           -2.779595509528     0.252675323647    -0.656102306013     1.007825032230
         H           -1.623195509528     1.366584323647    -1.403385306013     1.007825032230

  Basis Set: AUG-CC-PVTZ
    Blend: AUG-CC-PVTZ
  Basis Set: (AUG-CC-PVTZ AUX)
    Blend: AUG-CC-PVTZ-JKFIT
	 Reference Energy          =    -235.4459182846242982 [Eh]
	 Singles Energy            =      -0.0000000000000000 [Eh]
	 Same-Spin Energy          =      -0.2544065491828820 [Eh]
	 Opposite-Spin Energy      =      -0.9530896545303168 [Eh]
	 Correlation Energy        =      -1.2074962037131987 [Eh]
	 Total Energy              =    -236.6534144883374893 [Eh]

	 ================> DF-SCS-MP2 Energies <==================
	-----------------------------------------------------------
	 SCS Same-Spin Scale       =       0.3333333333333333 [-]
	 SCS Opposite-Spin Scale   =       1.2000000000000000 [-]
	 SCS Same-Spin Energy      =      -0.0848021830609607 [Eh]
	 SCS Opposite-Spin Energy  =      -1.1437075854363801 [Eh]
	 SCS Correlation Energy    =      -1.2285097684973407 [Eh]
	 SCS Total Energy          =    -236.6744280531216305 [Eh]
	-----------------------------------------------------------

  Dipole Moment: [D]
     X:     0.0006      Y:     0.0107      Z:    -0.1283     Total:     0.1287

*** Psi4 exiting successfully. Buy a developer a beer!
