                               Psi4 1.3.2 release

  ==> Input File <==

--------------------------------------------------------------------------
#psi4
#
memory 32 gb

molecule  {
0 1
  C        0.7029120     0.3173470    -0.3805850
  C       -0.7029620    -0.3173540    -0.3804860
  C        0.9826470     1.1914400     0.8430940
  C        1.8037460    -0.7325620    -0.5400470
  C       -0.9825370    -1.1914260     0.8432460
  C       -1.8038160     0.7325530    -0.5398170
  H        0.7436150     0.9671320    -1.2674360
  H       -0.7437850    -0.9671540    -1.2673200
  H        1.0211370     0.5905480     1.7569780
  H        1.9518370     1.6894640     0.7370170
  H        0.2251830     1.9685050     0.9782860
  H        2.7795120    -0.2525090    -0.6673740
  H        1.8684660    -1.3795410     0.3401940
  H        1.6230310    -1.3663620    -1.4145870
  H       -0.2250570    -1.9684910     0.9783510
  H       -1.0924870    -0.6152207     1.7671691
  H       -1.9517420    -1.6894490     0.7373050
  H       -1.8684140     1.3795480     0.3404210
  H       -2.7795990     0.2525000    -0.6670030
  H       -1.6232180     1.3663380    -1.4143930
units angstrom
no_reorient  #important for SAPT in psi4, default
symmetry c1  #important for SAPT in psi4, default
}

set PROPERTIES_ORIGIN ["COM"]
properties('MP2/aug-cc-pvtz', properties = ['dipole'])
--------------------------------------------------------------------------

    Molecular point group: c1
  Charge       = 0
  Multiplicity = 1
  Basis Set: AUG-CC-PVTZ
    Blend: AUG-CC-PVTZ
  Basis Set: (AUG-CC-PVTZ AUX)
    Blend: AUG-CC-PVTZ-JKFIT

    Orbital Energies [Eh]
    ---------------------

    Doubly Occupied:

       1A    -11.220948     2A    -11.220090     3A    -11.207552
       4A    -11.207437     5A    -11.207092     6A    -11.206781
       7A     -1.101439     8A     -1.009426     9A     -0.929400
      10A     -0.919563    11A     -0.834669    12A     -0.732530
      13A     -0.638950    14A     -0.608846    15A     -0.604223
      16A     -0.560777    17A     -0.551482    18A     -0.536066
      19A     -0.521202    20A     -0.516822    21A     -0.487922
      22A     -0.486293    23A     -0.446553    24A     -0.444724
      25A     -0.435050

  @DF-RHF Final Energy:  -235.44596734539925

   => Energetics <=

    Nuclear Repulsion Energy =            263.9564345645802064
    One-Electron Energy =                -839.5331264350871834
    Two-Electron Energy =                 340.1307245251076665
    Total Energy =                       -235.4459673453992536
  Basis Set: (AUG-CC-PVTZ AUX)
    Blend: AUG-CC-PVTZ-RI
    Molecular point group: c1

    Geometry (in Angstrom), charge = 0, multiplicity = 1:

       Center              X                  Y                   Z               Mass
    ------------   -----------------  -----------------  -----------------  -----------------
         C            0.703750474406     0.317636270043    -0.370014800973    12.000000000000
         C           -0.702123525594    -0.317064729957    -0.369915800973    12.000000000000
         C            0.983485474406     1.191729270043     0.853664199027    12.000000000000
         C            1.804584474406    -0.732272729957    -0.529476800973    12.000000000000
         C           -0.981698525594    -1.191136729957     0.853816199027    12.000000000000
         C           -1.802977525594     0.732842270043    -0.529246800973    12.000000000000
         H            0.744453474406     0.967421270043    -1.256865800973     1.007825032230
         H           -0.742946525594    -0.966864729957    -1.256749800973     1.007825032230
         H            1.021975474406     0.590837270043     1.767548199027     1.007825032230
         H            1.952675474406     1.689753270043     0.747587199027     1.007825032230
         H            0.226021474406     1.968794270043     0.988856199027     1.007825032230
         H            2.780350474406    -0.252219729957    -0.656803800973     1.007825032230
         H            1.869304474406    -1.379251729957     0.350764199027     1.007825032230
         H            1.623869474406    -1.366072729957    -1.404016800973     1.007825032230
         H           -0.224218525594    -1.968201729957     0.988921199027     1.007825032230
         H           -1.091648525594    -0.614931429957     1.777739299027     1.007825032230
         H           -1.950903525594    -1.689159729957     0.747875199027     1.007825032230
         H           -1.867575525594     1.379837270043     0.350991199027     1.007825032230
         H           -2.778760525594     0.252789270043    -0.656432800973     1.007825032230
         H           -1.622379525594     1.366627270043    -1.403822800973     1.007825032230

  Basis Set: AUG-CC-PVTZ
    Blend: AUG-CC-PVTZ
  Basis Set: (AUG-CC-PVTZ AUX)
    Blend: AUG-CC-PVTZ-JKFIT
	 Reference Energy          =    -235.4459673453992536 [Eh]
	 Singles Energy            =      -0.0000000000000000 [Eh]
	 Same-Spin Energy          =      -0.2543687387770510 [Eh]
	 Opposite-Spin Energy      =      -0.9529073245699397 [Eh]
	 Correlation Energy        =      -1.2072760633469906 [Eh]
	 Total Energy              =    -236.6532434087462491 [Eh]

	 ================> DF-SCS-MP2 Energies <==================
	-----------------------------------------------------------
	 SCS Same-Spin Scale       =       0.3333333333333333 [-]
	 SCS Opposite-Spin Scale   =       1.2000000000000000 [-]
	 SCS Same-Spin Energy      =      -0.0847895795923503 [Eh]
	 SCS Opposite-Spin Energy  =      -1.1434887894839276 [Eh]
	 SCS Correlation Energy    =      -1.2282783690762780 [Eh]
	 SCS Total Energy          =    -236.6742457144755178 [Eh]
	-----------------------------------------------------------

  Dipole Moment: [D]
     X:    -0.0239      Y:    -0.0024      Z:    -0.1357     Total:     0.1378

*** Psi4 exiting successfully. Buy a developer a beer!
