                               Psi4 1.4a3.dev225

  ==> Input File <==

--------------------------------------------------------------------------
#psi4
#
memory 32 gb

molecule  {
0 1
  C        0.7029150     0.3173330    -0.3805920
  C       -0.7029660    -0.3173390    -0.3804920
  C        0.9826460     1.1915080     0.8430290
  C        1.8037540    -0.7325950    -0.5399760
  C       -0.9825320    -1.1914940     0.8431800
  C       -1.8038280     0.7325860    -0.5397480
  H        0.7436620     0.9670620    -1.2674850
  H       -0.7456872    -0.9966121    -1.3076751
  H        1.0210420     0.5906890     1.7569670
  H        1.9518800     1.6894470     0.7369640
  H        0.2252310     1.9686380     0.9781220
  H        2.7795150    -0.2525500    -0.6673430
  H        1.8684590    -1.3794860     0.3403280
  H        1.6230140    -1.3664690    -1.4144560
  H       -0.2250960    -1.9686200     0.9781850
  H       -1.0208080    -0.5906600     1.7571130
  H       -1.9517780    -1.6894370     0.7372520
  H       -1.8684180     1.3794910     0.3405540
  H       -2.7796050     0.2525370    -0.6669790
  H       -1.6232050     1.3664460    -1.4142620
units angstrom
no_reorient  #important for SAPT in psi4, default
symmetry c1  #important for SAPT in psi4, default
}

set PROPERTIES_ORIGIN ["COM"]
properties('MP2/aug-cc-pvtz', properties = ['dipole'])
--------------------------------------------------------------------------

    Molecular point group: c1
  Charge       = 0
  Multiplicity = 1
  Basis Set: AUG-CC-PVTZ
    Blend: AUG-CC-PVTZ
  Basis Set: (AUG-CC-PVTZ AUX)
    Blend: AUG-CC-PVTZ-JKFIT

    Orbital Energies [Eh]
    ---------------------

    Doubly Occupied:

       1A    -11.226679     2A    -11.220822     3A    -11.208017
       4A    -11.207680     5A    -11.207589     6A    -11.207372
       7A     -1.100811     8A     -1.009041     9A     -0.929660
      10A     -0.920011    11A     -0.832904    12A     -0.727923
      13A     -0.638414    14A     -0.607919    15A     -0.604544
      16A     -0.560923    17A     -0.550931    18A     -0.537220
      19A     -0.520813    20A     -0.520201    21A     -0.487297
      22A     -0.484886    23A     -0.445455    24A     -0.442133
      25A     -0.435296

  @DF-RHF Final Energy:  -235.44436508844399

   => Energetics <=

    Nuclear Repulsion Energy =            263.8111832713529452
    One-Electron Energy =                -839.2420127614298053
    Two-Electron Energy =                 339.9864644016328157
    Total Energy =                       -235.4443650884439876
  Basis Set: (AUG-CC-PVTZ AUX)
    Blend: AUG-CC-PVTZ-RI
    Molecular point group: c1

    Geometry (in Angstrom), charge = 0, multiplicity = 1:

       Center              X                  Y                   Z               Mass
    ------------   -----------------  -----------------  -----------------  -----------------
         C            0.702937532224     0.317678689031    -0.369432261481    12.000000000000
         C           -0.702943467776    -0.316993310969    -0.369332261481    12.000000000000
         C            0.982668532224     1.191853689031     0.854188738519    12.000000000000
         C            1.803776532224    -0.732249310969    -0.528816261481    12.000000000000
         C           -0.982509467776    -1.191148310969     0.854339738519    12.000000000000
         C           -1.803805467776     0.732931689031    -0.528588261481    12.000000000000
         H            0.743684532224     0.967407689031    -1.256325261481     1.007825032230
         H           -0.745664667776    -0.996266410969    -1.296515361481     1.007825032230
         H            1.021064532224     0.591034689031     1.768126738519     1.007825032230
         H            1.951902532224     1.689792689031     0.748123738519     1.007825032230
         H            0.225253532224     1.968983689031     0.989281738519     1.007825032230
         H            2.779537532224    -0.252204310969    -0.656183261481     1.007825032230
         H            1.868481532224    -1.379140310969     0.351487738519     1.007825032230
         H            1.623036532224    -1.366123310969    -1.403296261481     1.007825032230
         H           -0.225073467776    -1.968274310969     0.989344738519     1.007825032230
         H           -1.020785467776    -0.590314310969     1.768272738519     1.007825032230
         H           -1.951755467776    -1.689091310969     0.748411738519     1.007825032230
         H           -1.868395467776     1.379836689031     0.351713738519     1.007825032230
         H           -2.779582467776     0.252882689031    -0.655819261481     1.007825032230
         H           -1.623182467776     1.366791689031    -1.403102261481     1.007825032230

  Basis Set: AUG-CC-PVTZ
    Blend: AUG-CC-PVTZ
  Basis Set: (AUG-CC-PVTZ AUX)
    Blend: AUG-CC-PVTZ-JKFIT
	 Reference Energy          =    -235.4443650884439876 [Eh]
	 Singles Energy            =      -0.0000000000000000 [Eh]
	 Same-Spin Energy          =      -0.2544274892221384 [Eh]
	 Opposite-Spin Energy      =      -0.9533254945860441 [Eh]
	 Correlation Energy        =      -1.2077529838081824 [Eh]
	 Total Energy              =    -236.6521180722521649 [Eh]

	 ================> DF-SCS-MP2 Energies <==================
	-----------------------------------------------------------
	 SCS Same-Spin Scale       =       0.3333333333333333 [-]
	 SCS Opposite-Spin Scale   =       1.2000000000000000 [-]
	 SCS Same-Spin Energy      =      -0.0848091630740461 [Eh]
	 SCS Opposite-Spin Energy  =      -1.1439905935032528 [Eh]
	 SCS Correlation Energy    =      -1.2287997565772990 [Eh]
	 SCS Total Energy          =    -236.6731648450212901 [Eh]
	-----------------------------------------------------------

  Dipole Moment: [D]
     X:     0.0017      Y:     0.0279      Z:    -0.1046     Total:     0.1083

*** Psi4 exiting successfully. Buy a developer a beer!
