                               Psi4 1.3.2 release

  ==> Input File <==

--------------------------------------------------------------------------
#psi4
#
memory 32 gb

molecule  {
0 1
  C        0.7029120     0.3173470    -0.3805850
  C       -0.7029620    -0.3173540    -0.3804860
  C        0.9826470     1.1914400     0.8430940
  C        1.8037460    -0.7325620    -0.5400470
  C       -0.9825370    -1.1914260     0.8432460
  C       -1.8038160     0.7325530    -0.5398170
  H        0.7436150     0.9671320    -1.2674360
  H       -0.7437850    -0.9671540    -1.2673200
  H        1.0211370     0.5905480     1.7569780
  H        1.9518370     1.6894640     0.7370170
  H        0.2251830     1.9685050     0.9782860
  H        2.7795120    -0.2525090    -0.6673740
  H        1.8684660    -1.3795410     0.3401940
  H        1.6230310    -1.3663620    -1.4145870
  H       -0.2250570    -1.9684910     0.9783510
  H       -0.9491341    -0.5687429     1.7426266
  H       -1.9517420    -1.6894490     0.7373050
  H       -1.8684140     1.3795480     0.3404210
  H       -2.7795990     0.2525000    -0.6670030
  H       -1.6232180     1.3663380    -1.4143930
units angstrom
no_reorient  #important for SAPT in psi4, default
symmetry c1  #important for SAPT in psi4, default
}

set PROPERTIES_ORIGIN ["COM"]
properties('MP2/aug-cc-pvtz', properties = ['dipole'])
--------------------------------------------------------------------------

    Molecular point group: c1
  Charge       = 0
  Multiplicity = 1
  Basis Set: AUG-CC-PVTZ
    Blend: AUG-CC-PVTZ
  Basis Set: (AUG-CC-PVTZ AUX)
    Blend: AUG-CC-PVTZ-JKFIT

    Orbital Energies [Eh]
    ---------------------

    Doubly Occupied:

       1A    -11.220525     2A    -11.219673     3A    -11.207477
       4A    -11.207427     5A    -11.207350     6A    -11.207069
       7A     -1.101882     8A     -1.009409     9A     -0.929391
      10A     -0.920028    11A     -0.833949    12A     -0.731235
      13A     -0.641739    14A     -0.607726    15A     -0.604386
      16A     -0.560763    17A     -0.550731    18A     -0.537583
      19A     -0.522846    20A     -0.519332    21A     -0.487412
      22A     -0.484740    23A     -0.444909    24A     -0.444079
      25A     -0.436179

  @DF-RHF Final Energy:  -235.44578182438980

   => Energetics <=

    Nuclear Repulsion Energy =            264.1540949435565153
    One-Electron Energy =                -839.9240692116738956
    Two-Electron Energy =                 340.3241924437276111
    Total Energy =                       -235.4457818243897691
  Basis Set: (AUG-CC-PVTZ AUX)
    Blend: AUG-CC-PVTZ-RI
    Molecular point group: c1

    Geometry (in Angstrom), charge = 0, multiplicity = 1:

       Center              X                  Y                   Z               Mass
    ------------   -----------------  -----------------  -----------------  -----------------
         C            0.702072673972     0.317092294490    -0.369727555880    12.000000000000
         C           -0.703801326028    -0.317608705510    -0.369628555880    12.000000000000
         C            0.981807673972     1.191185294490     0.853951444120    12.000000000000
         C            1.802906673972    -0.732816705510    -0.529189555880    12.000000000000
         C           -0.983376326028    -1.191680705510     0.854103444120    12.000000000000
         C           -1.804655326028     0.732298294490    -0.528959555880    12.000000000000
         H            0.742775673972     0.966877294490    -1.256578555880     1.007825032230
         H           -0.744624326028    -0.967408705510    -1.256462555880     1.007825032230
         H            1.020297673972     0.590293294490     1.767835444120     1.007825032230
         H            1.950997673972     1.689209294490     0.747874444120     1.007825032230
         H            0.224343673972     1.968250294490     0.989143444120     1.007825032230
         H            2.778672673972    -0.252763705510    -0.656516555880     1.007825032230
         H            1.867626673972    -1.379795705510     0.351051444120     1.007825032230
         H            1.622191673972    -1.366616705510    -1.403729555880     1.007825032230
         H           -0.225896326028    -1.968745705510     0.989208444120     1.007825032230
         H           -0.949973426028    -0.568997605510     1.753484044120     1.007825032230
         H           -1.952581326028    -1.689703705510     0.748162444120     1.007825032230
         H           -1.869253326028     1.379293294490     0.351278444120     1.007825032230
         H           -2.780438326028     0.252245294490    -0.656145555880     1.007825032230
         H           -1.624057326028     1.366083294490    -1.403535555880     1.007825032230

  Basis Set: AUG-CC-PVTZ
    Blend: AUG-CC-PVTZ
  Basis Set: (AUG-CC-PVTZ AUX)
    Blend: AUG-CC-PVTZ-JKFIT
	 Reference Energy          =    -235.4457818243897975 [Eh]
	 Singles Energy            =      -0.0000000000000000 [Eh]
	 Same-Spin Energy          =      -0.2544787479972813 [Eh]
	 Opposite-Spin Energy      =      -0.9530593964214558 [Eh]
	 Correlation Energy        =      -1.2075381444187370 [Eh]
	 Total Energy              =    -236.6533199688085460 [Eh]

	 ================> DF-SCS-MP2 Energies <==================
	-----------------------------------------------------------
	 SCS Same-Spin Scale       =       0.3333333333333333 [-]
	 SCS Opposite-Spin Scale   =       1.2000000000000000 [-]
	 SCS Same-Spin Energy      =      -0.0848262493324271 [Eh]
	 SCS Opposite-Spin Energy  =      -1.1436712757057468 [Eh]
	 SCS Correlation Energy    =      -1.2284975250381738 [Eh]
	 SCS Total Energy          =    -236.6742793494279624 [Eh]
	-----------------------------------------------------------

  Dipole Moment: [D]
     X:     0.0231      Y:     0.0021      Z:    -0.1523     Total:     0.1540

*** Psi4 exiting successfully. Buy a developer a beer!
