                               Psi4 1.3.2 release

  ==> Input File <==

--------------------------------------------------------------------------
#psi4
#
memory 32 gb

molecule  {
0 1
  C        0.7029120     0.3173470    -0.3805850
  C       -0.7029620    -0.3173540    -0.3804860
  C        0.9826470     1.1914400     0.8430940
  C        1.8037460    -0.7325620    -0.5400470
  C       -0.9825370    -1.1914260     0.8432460
  C       -1.8038160     0.7325530    -0.5398170
  H        0.7436150     0.9671320    -1.2674360
  H       -0.7437850    -0.9671540    -1.2673200
  H        1.0211370     0.5905480     1.7569780
  H        1.9518370     1.6894640     0.7370170
  H        0.2251830     1.9685050     0.9782860
  H        2.7795120    -0.2525090    -0.6673740
  H        1.8684660    -1.3795410     0.3401940
  H        1.6230310    -1.3663620    -1.4145870
  H       -0.2250570    -1.9684910     0.9783510
  H       -1.0209040    -0.5905180     1.7571240
  H       -2.0402692    -1.7349384     0.7276283
  H       -1.8684140     1.3795480     0.3404210
  H       -2.7795990     0.2525000    -0.6670030
  H       -1.6232180     1.3663380    -1.4143930
units angstrom
no_reorient  #important for SAPT in psi4, default
symmetry c1  #important for SAPT in psi4, default
}

set PROPERTIES_ORIGIN ["COM"]
properties('MP2/aug-cc-pvtz', properties = ['dipole'])
--------------------------------------------------------------------------

    Molecular point group: c1
  Charge       = 0
  Multiplicity = 1
  Basis Set: AUG-CC-PVTZ
    Blend: AUG-CC-PVTZ
  Basis Set: (AUG-CC-PVTZ AUX)
    Blend: AUG-CC-PVTZ-JKFIT

    Orbital Energies [Eh]
    ---------------------

    Doubly Occupied:

       1A    -11.221705     2A    -11.221126     3A    -11.219241
       4A    -11.208192     5A    -11.207872     6A    -11.207510
       7A     -1.101955     8A     -1.008438     9A     -0.928245
      10A     -0.917003    11A     -0.833252    12A     -0.731427
      13A     -0.637161    14A     -0.609049    15A     -0.605025
      16A     -0.561254    17A     -0.551770    18A     -0.533236
      19A     -0.521157    20A     -0.508639    21A     -0.488295
      22A     -0.486701    23A     -0.446668    24A     -0.445472
      25A     -0.433909

  @DF-RHF Final Energy:  -235.44004438510439

   => Energetics <=

    Nuclear Repulsion Energy =            263.6327622384702067
    One-Electron Energy =                -838.8770058159436758
    Two-Electron Energy =                 339.8041991923691398
    Total Energy =                       -235.4400443851043860
  Basis Set: (AUG-CC-PVTZ AUX)
    Blend: AUG-CC-PVTZ-RI
    Molecular point group: c1

    Geometry (in Angstrom), charge = 0, multiplicity = 1:

       Center              X                  Y                   Z               Mass
    ------------   -----------------  -----------------  -----------------  -----------------
         C            0.703948789097     0.317879557303    -0.369783977288    12.000000000000
         C           -0.701925210903    -0.316821442697    -0.369684977288    12.000000000000
         C            0.983683789097     1.191972557303     0.853895022712    12.000000000000
         C            1.804782789097    -0.732029442697    -0.529245977288    12.000000000000
         C           -0.981500210903    -1.190893442697     0.854047022712    12.000000000000
         C           -1.802779210903     0.733085557303    -0.529015977288    12.000000000000
         H            0.744651789097     0.967664557303    -1.256634977288     1.007825032230
         H           -0.742748210903    -0.966621442697    -1.256518977288     1.007825032230
         H            1.022173789097     0.591080557303     1.767779022712     1.007825032230
         H            1.952873789097     1.689996557303     0.747818022712     1.007825032230
         H            0.226219789097     1.969037557303     0.989087022712     1.007825032230
         H            2.780548789097    -0.251976442697    -0.656572977288     1.007825032230
         H            1.869502789097    -1.379008442697     0.350995022712     1.007825032230
         H            1.624067789097    -1.365829442697    -1.403785977288     1.007825032230
         H           -0.224020210903    -1.967958442697     0.989152022712     1.007825032230
         H           -1.019867210903    -0.589985442697     1.767925022712     1.007825032230
         H           -2.039232410903    -1.734405842697     0.738429322712     1.007825032230
         H           -1.867377210903     1.380080557303     0.351222022712     1.007825032230
         H           -2.778562210903     0.253032557303    -0.656201977288     1.007825032230
         H           -1.622181210903     1.366870557303    -1.403591977288     1.007825032230

  Basis Set: AUG-CC-PVTZ
    Blend: AUG-CC-PVTZ
  Basis Set: (AUG-CC-PVTZ AUX)
    Blend: AUG-CC-PVTZ-JKFIT
	 Reference Energy          =    -235.4400443851043860 [Eh]
	 Singles Energy            =      -0.0000000000000000 [Eh]
	 Same-Spin Energy          =      -0.2543686995999100 [Eh]
	 Opposite-Spin Energy      =      -0.9536578166420804 [Eh]
	 Correlation Energy        =      -1.2080265162419903 [Eh]
	 Total Energy              =    -236.6480709013463866 [Eh]

	 ================> DF-SCS-MP2 Energies <==================
	-----------------------------------------------------------
	 SCS Same-Spin Scale       =       0.3333333333333333 [-]
	 SCS Opposite-Spin Scale   =       1.2000000000000000 [-]
	 SCS Same-Spin Energy      =      -0.0847895665333033 [Eh]
	 SCS Opposite-Spin Energy  =      -1.1443893799704965 [Eh]
	 SCS Correlation Energy    =      -1.2291789465037999 [Eh]
	 SCS Total Energy          =    -236.6692233316081797 [Eh]
	-----------------------------------------------------------

  Dipole Moment: [D]
     X:     0.0757      Y:     0.0476      Z:    -0.1545     Total:     0.1785

*** Psi4 exiting successfully. Buy a developer a beer!
