                               Psi4 1.4a3.dev225

  ==> Input File <==

--------------------------------------------------------------------------
#psi4
#
memory 32 gb

molecule  {
0 1
  C        0.7029150     0.3173330    -0.3805920
  C       -0.7029660    -0.3173390    -0.3804920
  C        0.9826460     1.1915080     0.8430290
  C        1.8037540    -0.7325950    -0.5399760
  C       -0.9825320    -1.1914940     0.8431800
  C       -1.8038280     0.7325860    -0.5397480
  H        0.7436620     0.9670620    -1.2674850
  H       -0.7419728    -0.9375539    -1.2270629
  H        1.0210420     0.5906890     1.7569670
  H        1.9518800     1.6894470     0.7369640
  H        0.2252310     1.9686380     0.9781220
  H        2.7795150    -0.2525500    -0.6673430
  H        1.8684590    -1.3794860     0.3403280
  H        1.6230140    -1.3664690    -1.4144560
  H       -0.2250960    -1.9686200     0.9781850
  H       -1.0208080    -0.5906600     1.7571130
  H       -1.9517780    -1.6894370     0.7372520
  H       -1.8684180     1.3794910     0.3405540
  H       -2.7796050     0.2525370    -0.6669790
  H       -1.6232050     1.3664460    -1.4142620
units angstrom
no_reorient  #important for SAPT in psi4, default
symmetry c1  #important for SAPT in psi4, default
}

set PROPERTIES_ORIGIN ["COM"]
properties('MP2/aug-cc-pvtz', properties = ['dipole'])
--------------------------------------------------------------------------

    Molecular point group: c1
  Charge       = 0
  Multiplicity = 1
  Basis Set: AUG-CC-PVTZ
    Blend: AUG-CC-PVTZ
  Basis Set: (AUG-CC-PVTZ AUX)
    Blend: AUG-CC-PVTZ-JKFIT

    Orbital Energies [Eh]
    ---------------------

    Doubly Occupied:

       1A    -11.219842     2A    -11.213775     3A    -11.207528
       4A    -11.206943     5A    -11.206653     6A    -11.206563
       7A     -1.102769     8A     -1.009942     9A     -0.929129
      10A     -0.919526    11A     -0.836127    12A     -0.736411
      13A     -0.642029    14A     -0.608560    15A     -0.604077
      16A     -0.560636    17A     -0.550330    18A     -0.536569
      19A     -0.520345    20A     -0.519862    21A     -0.489119
      22A     -0.485758    23A     -0.448520    24A     -0.444521
      25A     -0.435561

  @DF-RHF Final Energy:  -235.44562985362188

   => Energetics <=

    Nuclear Repulsion Energy =            264.3044319788663756
    One-Electron Energy =                -840.2179395427111785
    Two-Electron Energy =                 340.4678777102229787
    Total Energy =                       -235.4456298536218810
  Basis Set: (AUG-CC-PVTZ AUX)
    Blend: AUG-CC-PVTZ-RI
    Molecular point group: c1

    Geometry (in Angstrom), charge = 0, multiplicity = 1:

       Center              X                  Y                   Z               Mass
    ------------   -----------------  -----------------  -----------------  -----------------
         C            0.702894058936     0.316987472644    -0.370375745596    12.000000000000
         C           -0.702986941064    -0.317684527356    -0.370275745596    12.000000000000
         C            0.982625058936     1.191162472644     0.853245254404    12.000000000000
         C            1.803733058936    -0.732940527356    -0.529759745596    12.000000000000
         C           -0.982552941064    -1.191839527356     0.853396254404    12.000000000000
         C           -1.803848941064     0.732240472644    -0.529531745596    12.000000000000
         H            0.743641058936     0.966716472644    -1.257268745596     1.007825032230
         H           -0.741993741064    -0.937899427356    -1.216846645596     1.007825032230
         H            1.021021058936     0.590343472644     1.767183254404     1.007825032230
         H            1.951859058936     1.689101472644     0.747180254404     1.007825032230
         H            0.225210058936     1.968292472644     0.988338254404     1.007825032230
         H            2.779494058936    -0.252895527356    -0.657126745596     1.007825032230
         H            1.868438058936    -1.379831527356     0.350544254404     1.007825032230
         H            1.622993058936    -1.366814527356    -1.404239745596     1.007825032230
         H           -0.225116941064    -1.968965527356     0.988401254404     1.007825032230
         H           -1.020828941064    -0.591005527356     1.767329254404     1.007825032230
         H           -1.951798941064    -1.689782527356     0.747468254404     1.007825032230
         H           -1.868438941064     1.379145472644     0.350770254404     1.007825032230
         H           -2.779625941064     0.252191472644    -0.656762745596     1.007825032230
         H           -1.623225941064     1.366100472644    -1.404045745596     1.007825032230

  Basis Set: AUG-CC-PVTZ
    Blend: AUG-CC-PVTZ
  Basis Set: (AUG-CC-PVTZ AUX)
    Blend: AUG-CC-PVTZ-JKFIT
	 Reference Energy          =    -235.4456298536218810 [Eh]
	 Singles Energy            =      -0.0000000000000000 [Eh]
	 Same-Spin Energy          =      -0.2543620821889547 [Eh]
	 Opposite-Spin Energy      =      -0.9526136532407405 [Eh]
	 Correlation Energy        =      -1.2069757354296953 [Eh]
	 Total Energy              =    -236.6526055890515750 [Eh]

	 ================> DF-SCS-MP2 Energies <==================
	-----------------------------------------------------------
	 SCS Same-Spin Scale       =       0.3333333333333333 [-]
	 SCS Opposite-Spin Scale   =       1.2000000000000000 [-]
	 SCS Same-Spin Energy      =      -0.0847873607296516 [Eh]
	 SCS Opposite-Spin Energy  =      -1.1431363838888886 [Eh]
	 SCS Correlation Energy    =      -1.2279237446185403 [Eh]
	 SCS Total Energy          =    -236.6735535982404315 [Eh]
	-----------------------------------------------------------

  Dipole Moment: [D]
     X:    -0.0012      Y:    -0.0242      Z:    -0.1764     Total:     0.1780

*** Psi4 exiting successfully. Buy a developer a beer!
