                               Psi4 1.3.2 release

  ==> Input File <==

--------------------------------------------------------------------------
#psi4
#
memory 32 gb

molecule  {
0 1
  C        0.7029120     0.3173470    -0.3805850
  C       -0.5644485    -0.2781825    -0.3103884
  C        0.9826470     1.1914400     0.8430940
  C        1.8037460    -0.7325620    -0.5400470
  C       -0.9825370    -1.1914260     0.8432460
  C       -1.8038160     0.7325530    -0.5398170
  H        0.7436150     0.9671320    -1.2674360
  H       -0.7437850    -0.9671540    -1.2673200
  H        1.0211370     0.5905480     1.7569780
  H        1.9518370     1.6894640     0.7370170
  H        0.2251830     1.9685050     0.9782860
  H        2.7795120    -0.2525090    -0.6673740
  H        1.8684660    -1.3795410     0.3401940
  H        1.6230310    -1.3663620    -1.4145870
  H       -0.2250570    -1.9684910     0.9783510
  H       -1.0209040    -0.5905180     1.7571240
  H       -1.9517420    -1.6894490     0.7373050
  H       -1.8684140     1.3795480     0.3404210
  H       -2.7795990     0.2525000    -0.6670030
  H       -1.6232180     1.3663380    -1.4143930
units angstrom
no_reorient  #important for SAPT in psi4, default
symmetry c1  #important for SAPT in psi4, default
}

set PROPERTIES_ORIGIN ["COM"]
properties('MP2/aug-cc-pvtz', properties = ['dipole'])
--------------------------------------------------------------------------

    Molecular point group: c1
  Charge       = 0
  Multiplicity = 1
  Basis Set: AUG-CC-PVTZ
    Blend: AUG-CC-PVTZ
  Basis Set: (AUG-CC-PVTZ AUX)
    Blend: AUG-CC-PVTZ-JKFIT

    Orbital Energies [Eh]
    ---------------------

    Doubly Occupied:

       1A    -11.227364     2A    -11.216315     3A    -11.210226
       4A    -11.209757     5A    -11.208807     6A    -11.208577
       7A     -1.119592     8A     -1.001537     9A     -0.930668
      10A     -0.917643    11A     -0.854149    12A     -0.722155
      13A     -0.647786    14A     -0.610903    15A     -0.602329
      16A     -0.560319    17A     -0.548861    18A     -0.541973
      19A     -0.522586    20A     -0.519591    21A     -0.490539
      22A     -0.485375    23A     -0.476490    24A     -0.428099
      25A     -0.408313

  @DF-RHF Final Energy:  -235.41787859588328

   => Energetics <=

    Nuclear Repulsion Energy =            265.4112518837676475
    One-Electron Energy =                -842.3183569350666176
    Two-Electron Energy =                 341.4892264554156327
    Total Energy =                       -235.4178785958832805
  Basis Set: (AUG-CC-PVTZ AUX)
    Blend: AUG-CC-PVTZ-RI
    Molecular point group: c1

    Geometry (in Angstrom), charge = 0, multiplicity = 1:

       Center              X                  Y                   Z               Mass
    ------------   -----------------  -----------------  -----------------  -----------------
         C            0.683609791634     0.311888312972    -0.379665850043    12.000000000000
         C           -0.583750708366    -0.283641187028    -0.309469250043    12.000000000000
         C            0.963344791634     1.185981312972     0.844013149957    12.000000000000
         C            1.784443791634    -0.738020687028    -0.539127850043    12.000000000000
         C           -1.001839208366    -1.196884687028     0.844165149957    12.000000000000
         C           -1.823118208366     0.727094312972    -0.538897850043    12.000000000000
         H            0.724312791634     0.961673312972    -1.266516850043     1.007825032230
         H           -0.763087208366    -0.972612687028    -1.266400850043     1.007825032230
         H            1.001834791634     0.585089312972     1.757897149957     1.007825032230
         H            1.932534791634     1.684005312972     0.737936149957     1.007825032230
         H            0.205880791634     1.963046312972     0.979205149957     1.007825032230
         H            2.760209791634    -0.257967687028    -0.666454850043     1.007825032230
         H            1.849163791634    -1.384999687028     0.341113149957     1.007825032230
         H            1.603728791634    -1.371820687028    -1.413667850043     1.007825032230
         H           -0.244359208366    -1.973949687028     0.979270149957     1.007825032230
         H           -1.040206208366    -0.595976687028     1.758043149957     1.007825032230
         H           -1.971044208366    -1.694907687028     0.738224149957     1.007825032230
         H           -1.887716208366     1.374089312972     0.341340149957     1.007825032230
         H           -2.798901208366     0.247041312972    -0.666083850043     1.007825032230
         H           -1.642520208366     1.360879312972    -1.413473850043     1.007825032230

  Basis Set: AUG-CC-PVTZ
    Blend: AUG-CC-PVTZ
  Basis Set: (AUG-CC-PVTZ AUX)
    Blend: AUG-CC-PVTZ-JKFIT
	 Reference Energy          =    -235.4178785958832805 [Eh]
	 Singles Energy            =      -0.0000000000000000 [Eh]
	 Same-Spin Energy          =      -0.2559805594010572 [Eh]
	 Opposite-Spin Energy      =      -0.9557616573578787 [Eh]
	 Correlation Energy        =      -1.2117422167589358 [Eh]
	 Total Energy              =    -236.6296208126422300 [Eh]

	 ================> DF-SCS-MP2 Energies <==================
	-----------------------------------------------------------
	 SCS Same-Spin Scale       =       0.3333333333333333 [-]
	 SCS Opposite-Spin Scale   =       1.2000000000000000 [-]
	 SCS Same-Spin Energy      =      -0.0853268531336857 [Eh]
	 SCS Opposite-Spin Energy  =      -1.1469139888294544 [Eh]
	 SCS Correlation Energy    =      -1.2322408419631401 [Eh]
	 SCS Total Energy          =    -236.6501194378464277 [Eh]
	-----------------------------------------------------------

  Dipole Moment: [D]
     X:     0.0914      Y:     0.0128      Z:    -0.0706     Total:     0.1162

*** Psi4 exiting successfully. Buy a developer a beer!
