                               Psi4 1.3.2 release

  ==> Input File <==

--------------------------------------------------------------------------
#psi4
#
memory 32 gb

molecule  {
0 1
  C        0.7275028     0.2423639    -0.2397261
  C       -0.7029620    -0.3173540    -0.3804860
  C        0.9826470     1.1914400     0.8430940
  C        1.8037460    -0.7325620    -0.5400470
  C       -0.9825370    -1.1914260     0.8432460
  C       -1.8038160     0.7325530    -0.5398170
  H        0.7436150     0.9671320    -1.2674360
  H       -0.7437850    -0.9671540    -1.2673200
  H        1.0211370     0.5905480     1.7569780
  H        1.9518370     1.6894640     0.7370170
  H        0.2251830     1.9685050     0.9782860
  H        2.7795120    -0.2525090    -0.6673740
  H        1.8684660    -1.3795410     0.3401940
  H        1.6230310    -1.3663620    -1.4145870
  H       -0.2250570    -1.9684910     0.9783510
  H       -1.0209040    -0.5905180     1.7571240
  H       -1.9517420    -1.6894490     0.7373050
  H       -1.8684140     1.3795480     0.3404210
  H       -2.7795990     0.2525000    -0.6670030
  H       -1.6232180     1.3663380    -1.4143930
units angstrom
no_reorient  #important for SAPT in psi4, default
symmetry c1  #important for SAPT in psi4, default
}

set PROPERTIES_ORIGIN ["COM"]
properties('MP2/aug-cc-pvtz', properties = ['dipole'])
--------------------------------------------------------------------------

    Molecular point group: c1
  Charge       = 0
  Multiplicity = 1
  Basis Set: AUG-CC-PVTZ
    Blend: AUG-CC-PVTZ
  Basis Set: (AUG-CC-PVTZ AUX)
    Blend: AUG-CC-PVTZ-JKFIT

    Orbital Energies [Eh]
    ---------------------

    Doubly Occupied:

       1A    -11.229956     2A    -11.223524     3A    -11.209278
       4A    -11.209230     5A    -11.208216     6A    -11.205747
       7A     -1.110538     8A     -1.018663     9A     -0.939471
      10A     -0.923131    11A     -0.829663    12A     -0.722300
      13A     -0.639938    14A     -0.619343    15A     -0.608810
      16A     -0.563185    17A     -0.549905    18A     -0.543133
      19A     -0.527096    20A     -0.520813    21A     -0.503683
      22A     -0.479575    23A     -0.458242    24A     -0.445967
      25A     -0.393231

  @DF-RHF Final Energy:  -235.41916370089848

   => Energetics <=

    Nuclear Repulsion Energy =            265.0306772475497610
    One-Electron Energy =                -841.5344067704583040
    Two-Electron Energy =                 341.0845658220100631
    Total Energy =                       -235.4191637008984799
  Basis Set: (AUG-CC-PVTZ AUX)
    Blend: AUG-CC-PVTZ-RI
    Molecular point group: c1

    Geometry (in Angstrom), charge = 0, multiplicity = 1:

       Center              X                  Y                   Z               Mass
    ------------   -----------------  -----------------  -----------------  -----------------
         C            0.724076558850     0.252813497161    -0.248668058312    12.000000000000
         C           -0.706388241150    -0.306904402839    -0.389427958312    12.000000000000
         C            0.979220758850     1.201889597161     0.834152041688    12.000000000000
         C            1.800319758850    -0.722112402839    -0.548988958312    12.000000000000
         C           -0.985963241150    -1.180976402839     0.834304041688    12.000000000000
         C           -1.807242241150     0.743002597161    -0.548758958312    12.000000000000
         H            0.740188758850     0.977581597161    -1.276377958312     1.007825032230
         H           -0.747211241150    -0.956704402839    -1.276261958312     1.007825032230
         H            1.017710758850     0.600997597161     1.748036041688     1.007825032230
         H            1.948410758850     1.699913597161     0.728075041688     1.007825032230
         H            0.221756758850     1.978954597161     0.969344041688     1.007825032230
         H            2.776085758850    -0.242059402839    -0.676315958312     1.007825032230
         H            1.865039758850    -1.369091402839     0.331252041688     1.007825032230
         H            1.619604758850    -1.355912402839    -1.423528958312     1.007825032230
         H           -0.228483241150    -1.958041402839     0.969409041688     1.007825032230
         H           -1.024330241150    -0.580068402839     1.748182041688     1.007825032230
         H           -1.955168241150    -1.678999402839     0.728363041688     1.007825032230
         H           -1.871840241150     1.389997597161     0.331479041688     1.007825032230
         H           -2.783025241150     0.262949597161    -0.675944958312     1.007825032230
         H           -1.626644241150     1.376787597161    -1.423334958312     1.007825032230

  Basis Set: AUG-CC-PVTZ
    Blend: AUG-CC-PVTZ
  Basis Set: (AUG-CC-PVTZ AUX)
    Blend: AUG-CC-PVTZ-JKFIT
	 Reference Energy          =    -235.4191637008984799 [Eh]
	 Singles Energy            =      -0.0000000000000000 [Eh]
	 Same-Spin Energy          =      -0.2558625332501455 [Eh]
	 Opposite-Spin Energy      =      -0.9555211182977241 [Eh]
	 Correlation Energy        =      -1.2113836515478695 [Eh]
	 Total Energy              =    -236.6305473524463423 [Eh]

	 ================> DF-SCS-MP2 Energies <==================
	-----------------------------------------------------------
	 SCS Same-Spin Scale       =       0.3333333333333333 [-]
	 SCS Opposite-Spin Scale   =       1.2000000000000000 [-]
	 SCS Same-Spin Energy      =      -0.0852875110833818 [Eh]
	 SCS Opposite-Spin Energy  =      -1.1466253419572690 [Eh]
	 SCS Correlation Energy    =      -1.2319128530406509 [Eh]
	 SCS Total Energy          =    -236.6510765539391343 [Eh]
	-----------------------------------------------------------

  Dipole Moment: [D]
     X:    -0.0019      Y:    -0.0419      Z:    -0.0519     Total:     0.0667

*** Psi4 exiting successfully. Buy a developer a beer!
