                               Psi4 1.3.2 release

  ==> Input File <==

--------------------------------------------------------------------------
#psi4
#
memory 32 gb

molecule  {
0 1
  C        0.7029120     0.3173470    -0.3805850
  C       -0.7029620    -0.3173540    -0.3804860
  C        0.9826470     1.1914400     0.8430940
  C        1.8037460    -0.7325620    -0.5400470
  C       -0.9772146    -1.1482207     0.8741574
  C       -1.8038160     0.7325530    -0.5398170
  H        0.7436150     0.9671320    -1.2674360
  H       -0.7437850    -0.9671540    -1.2673200
  H        1.0211370     0.5905480     1.7569780
  H        1.9518370     1.6894640     0.7370170
  H        0.2251830     1.9685050     0.9782860
  H        2.7795120    -0.2525090    -0.6673740
  H        1.8684660    -1.3795410     0.3401940
  H        1.6230310    -1.3663620    -1.4145870
  H       -0.2250570    -1.9684910     0.9783510
  H       -1.0209040    -0.5905180     1.7571240
  H       -1.9517420    -1.6894490     0.7373050
  H       -1.8684140     1.3795480     0.3404210
  H       -2.7795990     0.2525000    -0.6670030
  H       -1.6232180     1.3663380    -1.4143930
units angstrom
no_reorient  #important for SAPT in psi4, default
symmetry c1  #important for SAPT in psi4, default
}

set PROPERTIES_ORIGIN ["COM"]
properties('MP2/aug-cc-pvtz', properties = ['dipole'])
--------------------------------------------------------------------------

    Molecular point group: c1
  Charge       = 0
  Multiplicity = 1
  Basis Set: AUG-CC-PVTZ
    Blend: AUG-CC-PVTZ
  Basis Set: (AUG-CC-PVTZ AUX)
    Blend: AUG-CC-PVTZ-JKFIT

    Orbital Energies [Eh]
    ---------------------

    Doubly Occupied:

       1A    -11.220760     2A    -11.219781     3A    -11.207501
       4A    -11.207336     5A    -11.207204     6A    -11.207101
       7A     -1.102094     8A     -1.009391     9A     -0.928656
      10A     -0.920175    11A     -0.834723    12A     -0.732827
      13A     -0.639824    14A     -0.609192    15A     -0.602481
      16A     -0.561514    17A     -0.557605    18A     -0.533288
      19A     -0.522335    20A     -0.514862    21A     -0.490674
      22A     -0.483394    23A     -0.449423    24A     -0.442258
      25A     -0.433257

  @DF-RHF Final Energy:  -235.44311874809043

   => Energetics <=

    Nuclear Repulsion Energy =            264.2324035254462729
    One-Electron Energy =                -840.0757358347871104
    Two-Electron Energy =                 340.4002135612504389
    Total Energy =                       -235.4431187480904555
  Basis Set: (AUG-CC-PVTZ AUX)
    Blend: AUG-CC-PVTZ-RI
    Molecular point group: c1

    Geometry (in Angstrom), charge = 0, multiplicity = 1:

       Center              X                  Y                   Z               Mass
    ------------   -----------------  -----------------  -----------------  -----------------
         C            0.702170952290     0.311326173235    -0.374204964490    12.000000000000
         C           -0.703703047710    -0.323374826765    -0.374105964490    12.000000000000
         C            0.981905952290     1.185419173235     0.849474035510    12.000000000000
         C            1.803004952290    -0.738582826765    -0.533666964490    12.000000000000
         C           -0.977955647710    -1.154241526765     0.880537435510    12.000000000000
         C           -1.804557047710     0.726532173235    -0.533436964490    12.000000000000
         H            0.742873952290     0.961111173235    -1.261055964490     1.007825032230
         H           -0.744526047710    -0.973174826765    -1.260939964490     1.007825032230
         H            1.020395952290     0.584527173235     1.763358035510     1.007825032230
         H            1.951095952290     1.683443173235     0.743397035510     1.007825032230
         H            0.224441952290     1.962484173235     0.984666035510     1.007825032230
         H            2.778770952290    -0.258529826765    -0.660993964490     1.007825032230
         H            1.867724952290    -1.385561826765     0.346574035510     1.007825032230
         H            1.622289952290    -1.372382826765    -1.408206964490     1.007825032230
         H           -0.225798047710    -1.974511826765     0.984731035510     1.007825032230
         H           -1.021645047710    -0.596538826765     1.763504035510     1.007825032230
         H           -1.952483047710    -1.695469826765     0.743685035510     1.007825032230
         H           -1.869155047710     1.373527173235     0.346801035510     1.007825032230
         H           -2.780340047710     0.246479173235    -0.660622964490     1.007825032230
         H           -1.623959047710     1.360317173235    -1.408012964490     1.007825032230

  Basis Set: AUG-CC-PVTZ
    Blend: AUG-CC-PVTZ
  Basis Set: (AUG-CC-PVTZ AUX)
    Blend: AUG-CC-PVTZ-JKFIT
	 Reference Energy          =    -235.4431187480904271 [Eh]
	 Singles Energy            =      -0.0000000000000000 [Eh]
	 Same-Spin Energy          =      -0.2544947610015831 [Eh]
	 Opposite-Spin Energy      =      -0.9531907678371645 [Eh]
	 Correlation Energy        =      -1.2076855288387476 [Eh]
	 Total Energy              =    -236.6508042769291649 [Eh]

	 ================> DF-SCS-MP2 Energies <==================
	-----------------------------------------------------------
	 SCS Same-Spin Scale       =       0.3333333333333333 [-]
	 SCS Opposite-Spin Scale   =       1.2000000000000000 [-]
	 SCS Same-Spin Energy      =      -0.0848315870005277 [Eh]
	 SCS Opposite-Spin Energy  =      -1.1438289214045974 [Eh]
	 SCS Correlation Energy    =      -1.2286605084051250 [Eh]
	 SCS Total Energy          =    -236.6717792564955403 [Eh]
	-----------------------------------------------------------

  Dipole Moment: [D]
     X:     0.0009      Y:     0.0142      Z:    -0.1293     Total:     0.1301

*** Psi4 exiting successfully. Buy a developer a beer!
