                               Psi4 1.3.2 release

  ==> Input File <==

--------------------------------------------------------------------------
#psi4
#
memory 32 gb

molecule  {
0 1
  C        0.7029120     0.3173470    -0.3805850
  C       -0.7029620    -0.3173540    -0.3804860
  C        0.9826470     1.1914400     0.8430940
  C        1.8037460    -0.7325620    -0.5400470
  C       -0.9825370    -1.1914260     0.8432460
  C       -1.8038160     0.7325530    -0.5398170
  H        0.7436150     0.9671320    -1.2674360
  H       -0.7437850    -0.9671540    -1.2673200
  H        1.0211370     0.5905480     1.7569780
  H        1.9518370     1.6894640     0.7370170
  H        0.2251830     1.9685050     0.9782860
  H        2.7795120    -0.2525090    -0.6673740
  H        1.8684660    -1.3795410     0.3401940
  H        1.6230310    -1.3663620    -1.4145870
  H       -0.2250570    -1.9684910     0.9783510
  H       -1.0029654    -0.5847954     1.7539147
  H       -1.9517420    -1.6894490     0.7373050
  H       -1.8684140     1.3795480     0.3404210
  H       -2.7795990     0.2525000    -0.6670030
  H       -1.6232180     1.3663380    -1.4143930
units angstrom
no_reorient  #important for SAPT in psi4, default
symmetry c1  #important for SAPT in psi4, default
}

set PROPERTIES_ORIGIN ["COM"]
properties('MP2/aug-cc-pvtz', properties = ['dipole'])
--------------------------------------------------------------------------

    Molecular point group: c1
  Charge       = 0
  Multiplicity = 1
  Basis Set: AUG-CC-PVTZ
    Blend: AUG-CC-PVTZ
  Basis Set: (AUG-CC-PVTZ AUX)
    Blend: AUG-CC-PVTZ-JKFIT

    Orbital Energies [Eh]
    ---------------------

    Doubly Occupied:

       1A    -11.220548     2A    -11.219944     3A    -11.207452
       4A    -11.207421     5A    -11.207169     6A    -11.207085
       7A     -1.101687     8A     -1.009396     9A     -0.929362
      10A     -0.919807    11A     -0.834197    12A     -0.731706
      13A     -0.640551    14A     -0.608121    15A     -0.604324
      16A     -0.560754    17A     -0.550538    18A     -0.537059
      19A     -0.520996    20A     -0.520057    21A     -0.487534
      22A     -0.485561    23A     -0.445262    24A     -0.444679
      25A     -0.435854

  @DF-RHF Final Energy:  -235.44639036282146

   => Energetics <=

    Nuclear Repulsion Energy =            264.0765162970427582
    One-Electron Energy =                -839.7716831936891140
    Two-Electron Energy =                 340.2487765338248664
    Total Energy =                       -235.4463903628214894
  Basis Set: (AUG-CC-PVTZ AUX)
    Blend: AUG-CC-PVTZ-RI
    Molecular point group: c1

    Geometry (in Angstrom), charge = 0, multiplicity = 1:

       Center              X                  Y                   Z               Mass
    ------------   -----------------  -----------------  -----------------  -----------------
         C            0.702702714791     0.317280172737    -0.369859671652    12.000000000000
         C           -0.703171285209    -0.317420827263    -0.369760671652    12.000000000000
         C            0.982437714791     1.191373172737     0.853819328348    12.000000000000
         C            1.803536714791    -0.732628827263    -0.529321671652    12.000000000000
         C           -0.982746285209    -1.191492827263     0.853971328348    12.000000000000
         C           -1.804025285209     0.732486172737    -0.529091671652    12.000000000000
         H            0.743405714791     0.967065172737    -1.256710671652     1.007825032230
         H           -0.743994285209    -0.967220827263    -1.256594671652     1.007825032230
         H            1.020927714791     0.590481172737     1.767703328348     1.007825032230
         H            1.951627714791     1.689397172737     0.747742328348     1.007825032230
         H            0.224973714791     1.968438172737     0.989011328348     1.007825032230
         H            2.779302714791    -0.252575827263    -0.656648671652     1.007825032230
         H            1.868256714791    -1.379607827263     0.350919328348     1.007825032230
         H            1.622821714791    -1.366428827263    -1.403861671652     1.007825032230
         H           -0.225266285209    -1.968557827263     0.989076328348     1.007825032230
         H           -1.003174685209    -0.584862227263     1.764640028348     1.007825032230
         H           -1.951951285209    -1.689515827263     0.748030328348     1.007825032230
         H           -1.868623285209     1.379481172737     0.351146328348     1.007825032230
         H           -2.779808285209     0.252433172737    -0.656277671652     1.007825032230
         H           -1.623427285209     1.366271172737    -1.403667671652     1.007825032230

  Basis Set: AUG-CC-PVTZ
    Blend: AUG-CC-PVTZ
  Basis Set: (AUG-CC-PVTZ AUX)
    Blend: AUG-CC-PVTZ-JKFIT
	 Reference Energy          =    -235.4463903628214609 [Eh]
	 Singles Energy            =      -0.0000000000000000 [Eh]
	 Same-Spin Energy          =      -0.2544087516116919 [Eh]
	 Opposite-Spin Energy      =      -0.9529636180444425 [Eh]
	 Correlation Energy        =      -1.2073723696561345 [Eh]
	 Total Energy              =    -236.6537627324775883 [Eh]

	 ================> DF-SCS-MP2 Energies <==================
	-----------------------------------------------------------
	 SCS Same-Spin Scale       =       0.3333333333333333 [-]
	 SCS Opposite-Spin Scale   =       1.2000000000000000 [-]
	 SCS Same-Spin Energy      =      -0.0848029172038973 [Eh]
	 SCS Opposite-Spin Energy  =      -1.1435563416533310 [Eh]
	 SCS Correlation Energy    =      -1.2283592588572283 [Eh]
	 SCS Total Energy          =    -236.6747496216786999 [Eh]
	-----------------------------------------------------------

  Dipole Moment: [D]
     X:     0.0058      Y:     0.0005      Z:    -0.1452     Total:     0.1453

*** Psi4 exiting successfully. Buy a developer a beer!
