                               Psi4 1.3.2 release

  ==> Input File <==

--------------------------------------------------------------------------
#psi4
#
memory 32 gb

molecule  {
0 1
  C        0.7029120     0.3173470    -0.3805850
  C       -0.7029620    -0.3173540    -0.3804860
  C        0.9826470     1.1914400     0.8430940
  C        1.8037460    -0.7325620    -0.5400470
  C       -0.9378739    -1.2187410     0.8327749
  C       -1.8038160     0.7325530    -0.5398170
  H        0.7436150     0.9671320    -1.2674360
  H       -0.7437850    -0.9671540    -1.2673200
  H        1.0211370     0.5905480     1.7569780
  H        1.9518370     1.6894640     0.7370170
  H        0.2251830     1.9685050     0.9782860
  H        2.7795120    -0.2525090    -0.6673740
  H        1.8684660    -1.3795410     0.3401940
  H        1.6230310    -1.3663620    -1.4145870
  H       -0.2250570    -1.9684910     0.9783510
  H       -1.0209040    -0.5905180     1.7571240
  H       -1.9517420    -1.6894490     0.7373050
  H       -1.8684140     1.3795480     0.3404210
  H       -2.7795990     0.2525000    -0.6670030
  H       -1.6232180     1.3663380    -1.4143930
units angstrom
no_reorient  #important for SAPT in psi4, default
symmetry c1  #important for SAPT in psi4, default
}

set PROPERTIES_ORIGIN ["COM"]
properties('MP2/aug-cc-pvtz', properties = ['dipole'])
--------------------------------------------------------------------------

    Molecular point group: c1
  Charge       = 0
  Multiplicity = 1
  Basis Set: AUG-CC-PVTZ
    Blend: AUG-CC-PVTZ
  Basis Set: (AUG-CC-PVTZ AUX)
    Blend: AUG-CC-PVTZ-JKFIT

    Orbital Energies [Eh]
    ---------------------

    Doubly Occupied:

       1A    -11.220721     2A    -11.219655     3A    -11.208579
       4A    -11.207768     5A    -11.207603     6A    -11.206712
       7A     -1.101772     8A     -1.008507     9A     -0.930883
      10A     -0.920195    11A     -0.833971    12A     -0.731784
      13A     -0.638503    14A     -0.613026    15A     -0.605711
      16A     -0.561744    17A     -0.549858    18A     -0.534874
      19A     -0.521197    20A     -0.514095    21A     -0.492713
      22A     -0.485025    23A     -0.448508    24A     -0.442485
      25A     -0.433086

  @DF-RHF Final Energy:  -235.44311429707045

   => Energetics <=

    Nuclear Repulsion Energy =            264.1165807632901874
    One-Electron Energy =                -839.8414419036929530
    Two-Electron Energy =                 340.2817468433322574
    Total Energy =                       -235.4431142970704514
  Basis Set: (AUG-CC-PVTZ AUX)
    Blend: AUG-CC-PVTZ-RI
    Molecular point group: c1

    Geometry (in Angstrom), charge = 0, multiplicity = 1:

       Center              X                  Y                   Z               Mass
    ------------   -----------------  -----------------  -----------------  -----------------
         C            0.696688536025     0.321153696379    -0.368438008358    12.000000000000
         C           -0.709185463975    -0.313547303621    -0.368339008358    12.000000000000
         C            0.976423536025     1.195246696379     0.855240991642    12.000000000000
         C            1.797522536025    -0.728755303621    -0.527900008358    12.000000000000
         C           -0.944097363975    -1.214934303621     0.844921891642    12.000000000000
         C           -1.810039463975     0.736359696379    -0.527670008358    12.000000000000
         H            0.737391536025     0.970938696379    -1.255289008358     1.007825032230
         H           -0.750008463975    -0.963347303621    -1.255173008358     1.007825032230
         H            1.014913536025     0.594354696379     1.769124991642     1.007825032230
         H            1.945613536025     1.693270696379     0.749163991642     1.007825032230
         H            0.218959536025     1.972311696379     0.990432991642     1.007825032230
         H            2.773288536025    -0.248702303621    -0.655227008358     1.007825032230
         H            1.862242536025    -1.375734303621     0.352340991642     1.007825032230
         H            1.616807536025    -1.362555303621    -1.402440008358     1.007825032230
         H           -0.231280463975    -1.964684303621     0.990497991642     1.007825032230
         H           -1.027127463975    -0.586711303621     1.769270991642     1.007825032230
         H           -1.957965463975    -1.685642303621     0.749451991642     1.007825032230
         H           -1.874637463975     1.383354696379     0.352567991642     1.007825032230
         H           -2.785822463975     0.256306696379    -0.654856008358     1.007825032230
         H           -1.629441463975     1.370144696379    -1.402246008358     1.007825032230

  Basis Set: AUG-CC-PVTZ
    Blend: AUG-CC-PVTZ
  Basis Set: (AUG-CC-PVTZ AUX)
    Blend: AUG-CC-PVTZ-JKFIT
	 Reference Energy          =    -235.4431142970704514 [Eh]
	 Singles Energy            =      -0.0000000000000000 [Eh]
	 Same-Spin Energy          =      -0.2544790613025887 [Eh]
	 Opposite-Spin Energy      =      -0.9531301656173328 [Eh]
	 Correlation Energy        =      -1.2076092269199215 [Eh]
	 Total Energy              =    -236.6507235239903650 [Eh]

	 ================> DF-SCS-MP2 Energies <==================
	-----------------------------------------------------------
	 SCS Same-Spin Scale       =       0.3333333333333333 [-]
	 SCS Opposite-Spin Scale   =       1.2000000000000000 [-]
	 SCS Same-Spin Energy      =      -0.0848263537675296 [Eh]
	 SCS Opposite-Spin Energy  =      -1.1437561987407994 [Eh]
	 SCS Correlation Energy    =      -1.2285825525083289 [Eh]
	 SCS Total Energy          =    -236.6716968495787796 [Eh]
	-----------------------------------------------------------

  Dipole Moment: [D]
     X:     0.0029      Y:    -0.0011      Z:    -0.1563     Total:     0.1564

*** Psi4 exiting successfully. Buy a developer a beer!
