                               Psi4 1.3.2 release

  ==> Input File <==

--------------------------------------------------------------------------
#psi4
#
memory 32 gb

molecule  {
0 1
  C        0.7029120     0.3173470    -0.3805850
  C       -0.7029620    -0.3173540    -0.3804860
  C        0.9826470     1.1914400     0.8430940
  C        1.8037460    -0.7325620    -0.5400470
  C       -1.0047442    -1.1773670     0.8479232
  C       -1.8038160     0.7325530    -0.5398170
  H        0.7436150     0.9671320    -1.2674360
  H       -0.7437850    -0.9671540    -1.2673200
  H        1.0211370     0.5905480     1.7569780
  H        1.9518370     1.6894640     0.7370170
  H        0.2251830     1.9685050     0.9782860
  H        2.7795120    -0.2525090    -0.6673740
  H        1.8684660    -1.3795410     0.3401940
  H        1.6230310    -1.3663620    -1.4145870
  H       -0.2250570    -1.9684910     0.9783510
  H       -1.0209040    -0.5905180     1.7571240
  H       -1.9517420    -1.6894490     0.7373050
  H       -1.8684140     1.3795480     0.3404210
  H       -2.7795990     0.2525000    -0.6670030
  H       -1.6232180     1.3663380    -1.4143930
units angstrom
no_reorient  #important for SAPT in psi4, default
symmetry c1  #important for SAPT in psi4, default
}

set PROPERTIES_ORIGIN ["COM"]
properties('MP2/aug-cc-pvtz', properties = ['dipole'])
--------------------------------------------------------------------------

    Molecular point group: c1
  Charge       = 0
  Multiplicity = 1
  Basis Set: AUG-CC-PVTZ
    Blend: AUG-CC-PVTZ
  Basis Set: (AUG-CC-PVTZ AUX)
    Blend: AUG-CC-PVTZ-JKFIT

    Orbital Energies [Eh]
    ---------------------

    Doubly Occupied:

       1A    -11.220794     2A    -11.220132     3A    -11.207384
       4A    -11.207292     5A    -11.207117     6A    -11.206970
       7A     -1.101660     8A     -1.009938     9A     -0.928827
      10A     -0.919579    11A     -0.834576    12A     -0.732172
      13A     -0.641278    14A     -0.607723    15A     -0.602512
      16A     -0.560463    17A     -0.551498    18A     -0.537875
      19A     -0.522493    20A     -0.519986    21A     -0.488192
      22A     -0.482800    23A     -0.446749    24A     -0.442428
      25A     -0.436838

  @DF-RHF Final Energy:  -235.44571675059916

   => Energetics <=

    Nuclear Repulsion Energy =            264.0250109877482032
    One-Electron Energy =                -839.6669015980514814
    Two-Electron Energy =                 340.1961738597041744
    Total Energy =                       -235.4457167505991606
  Basis Set: (AUG-CC-PVTZ AUX)
    Blend: AUG-CC-PVTZ-RI
    Molecular point group: c1

    Geometry (in Angstrom), charge = 0, multiplicity = 1:

       Center              X                  Y                   Z               Mass
    ------------   -----------------  -----------------  -----------------  -----------------
         C            0.706007404789     0.315387924785    -0.370549035521    12.000000000000
         C           -0.699866595211    -0.319313075215    -0.370450035521    12.000000000000
         C            0.985742404789     1.189480924785     0.853129964479    12.000000000000
         C            1.806841404789    -0.734521075215    -0.530011035521    12.000000000000
         C           -1.001648795211    -1.179326075215     0.857959164479    12.000000000000
         C           -1.800720595211     0.730593924785    -0.529781035521    12.000000000000
         H            0.746710404789     0.965172924785    -1.257400035521     1.007825032230
         H           -0.740689595211    -0.969113075215    -1.257284035521     1.007825032230
         H            1.024232404789     0.588588924785     1.767013964479     1.007825032230
         H            1.954932404789     1.687504924785     0.747052964479     1.007825032230
         H            0.228278404789     1.966545924785     0.988321964479     1.007825032230
         H            2.782607404789    -0.254468075215    -0.657338035521     1.007825032230
         H            1.871561404789    -1.381500075215     0.350229964479     1.007825032230
         H            1.626126404789    -1.368321075215    -1.404551035521     1.007825032230
         H           -0.221961595211    -1.970450075215     0.988386964479     1.007825032230
         H           -1.017808595211    -0.592477075215     1.767159964479     1.007825032230
         H           -1.948646595211    -1.691408075215     0.747340964479     1.007825032230
         H           -1.865318595211     1.377588924785     0.350456964479     1.007825032230
         H           -2.776503595211     0.250540924785    -0.656967035521     1.007825032230
         H           -1.620122595211     1.364378924785    -1.404357035521     1.007825032230

  Basis Set: AUG-CC-PVTZ
    Blend: AUG-CC-PVTZ
  Basis Set: (AUG-CC-PVTZ AUX)
    Blend: AUG-CC-PVTZ-JKFIT
	 Reference Energy          =    -235.4457167505991606 [Eh]
	 Singles Energy            =      -0.0000000000000000 [Eh]
	 Same-Spin Energy          =      -0.2543912934164831 [Eh]
	 Opposite-Spin Energy      =      -0.9529629625131565 [Eh]
	 Correlation Energy        =      -1.2073542559296397 [Eh]
	 Total Energy              =    -236.6530710065287906 [Eh]

	 ================> DF-SCS-MP2 Energies <==================
	-----------------------------------------------------------
	 SCS Same-Spin Scale       =       0.3333333333333333 [-]
	 SCS Opposite-Spin Scale   =       1.2000000000000000 [-]
	 SCS Same-Spin Energy      =      -0.0847970978054944 [Eh]
	 SCS Opposite-Spin Energy  =      -1.1435555550157877 [Eh]
	 SCS Correlation Energy    =      -1.2283526528212820 [Eh]
	 SCS Total Energy          =    -236.6740694034204466 [Eh]
	-----------------------------------------------------------

  Dipole Moment: [D]
     X:    -0.0022      Y:     0.0045      Z:    -0.1391     Total:     0.1392

*** Psi4 exiting successfully. Buy a developer a beer!
