                               Psi4 1.3.2 release

  ==> Input File <==

--------------------------------------------------------------------------
#psi4
#
memory 32 gb

molecule  {
0 1
  C        0.6912740     0.3408345    -0.4276141
  C       -0.7029620    -0.3173540    -0.3804860
  C        0.9826470     1.1914400     0.8430940
  C        1.8037460    -0.7325620    -0.5400470
  C       -0.9825370    -1.1914260     0.8432460
  C       -1.8038160     0.7325530    -0.5398170
  H        0.7436150     0.9671320    -1.2674360
  H       -0.7437850    -0.9671540    -1.2673200
  H        1.0211370     0.5905480     1.7569780
  H        1.9518370     1.6894640     0.7370170
  H        0.2251830     1.9685050     0.9782860
  H        2.7795120    -0.2525090    -0.6673740
  H        1.8684660    -1.3795410     0.3401940
  H        1.6230310    -1.3663620    -1.4145870
  H       -0.2250570    -1.9684910     0.9783510
  H       -1.0209040    -0.5905180     1.7571240
  H       -1.9517420    -1.6894490     0.7373050
  H       -1.8684140     1.3795480     0.3404210
  H       -2.7795990     0.2525000    -0.6670030
  H       -1.6232180     1.3663380    -1.4143930
units angstrom
no_reorient  #important for SAPT in psi4, default
symmetry c1  #important for SAPT in psi4, default
}

set PROPERTIES_ORIGIN ["COM"]
properties('MP2/aug-cc-pvtz', properties = ['dipole'])
--------------------------------------------------------------------------

    Molecular point group: c1
  Charge       = 0
  Multiplicity = 1
  Basis Set: AUG-CC-PVTZ
    Blend: AUG-CC-PVTZ
  Basis Set: (AUG-CC-PVTZ AUX)
    Blend: AUG-CC-PVTZ-JKFIT

    Orbital Energies [Eh]
    ---------------------

    Doubly Occupied:

       1A    -11.220124     2A    -11.218545     3A    -11.207981
       4A    -11.207618     5A    -11.207368     6A    -11.206963
       7A     -1.099474     8A     -1.006349     9A     -0.927878
      10A     -0.917434    11A     -0.836855    12A     -0.737803
      13A     -0.640454    14A     -0.606592    15A     -0.600874
      16A     -0.560165    17A     -0.550777    18A     -0.535587
      19A     -0.520158    20A     -0.518969    21A     -0.492275
      22A     -0.482215    23A     -0.455935    24A     -0.437722
      25A     -0.433378

  @DF-RHF Final Energy:  -235.44374393182798

   => Energetics <=

    Nuclear Repulsion Energy =            263.6972298267433530
    One-Electron Energy =                -839.0229608518370696
    Two-Electron Energy =                 339.8819870932657636
    Total Energy =                       -235.4437439318280099
  Basis Set: (AUG-CC-PVTZ AUX)
    Blend: AUG-CC-PVTZ-RI
    Molecular point group: c1

    Geometry (in Angstrom), charge = 0, multiplicity = 1:

       Center              X                  Y                   Z               Mass
    ------------   -----------------  -----------------  -----------------  -----------------
         C            0.692896508933     0.337561493875    -0.410372481830    12.000000000000
         C           -0.701339491067    -0.320627006125    -0.363244381830    12.000000000000
         C            0.984269508933     1.188166993875     0.860335618170    12.000000000000
         C            1.805368508933    -0.735835006125    -0.522805381830    12.000000000000
         C           -0.980914491067    -1.194699006125     0.860487618170    12.000000000000
         C           -1.802193491067     0.729279993875    -0.522575381830    12.000000000000
         H            0.745237508933     0.963858993875    -1.250194381830     1.007825032230
         H           -0.742162491067    -0.970427006125    -1.250078381830     1.007825032230
         H            1.022759508933     0.587274993875     1.774219618170     1.007825032230
         H            1.953459508933     1.686190993875     0.754258618170     1.007825032230
         H            0.226805508933     1.965231993875     0.995527618170     1.007825032230
         H            2.781134508933    -0.255782006125    -0.650132381830     1.007825032230
         H            1.870088508933    -1.382814006125     0.357435618170     1.007825032230
         H            1.624653508933    -1.369635006125    -1.397345381830     1.007825032230
         H           -0.223434491067    -1.971764006125     0.995592618170     1.007825032230
         H           -1.019281491067    -0.593791006125     1.774365618170     1.007825032230
         H           -1.950119491067    -1.692722006125     0.754546618170     1.007825032230
         H           -1.866791491067     1.376274993875     0.357662618170     1.007825032230
         H           -2.777976491067     0.249226993875    -0.649761381830     1.007825032230
         H           -1.621595491067     1.363064993875    -1.397151381830     1.007825032230

  Basis Set: AUG-CC-PVTZ
    Blend: AUG-CC-PVTZ
  Basis Set: (AUG-CC-PVTZ AUX)
    Blend: AUG-CC-PVTZ-JKFIT
	 Reference Energy          =    -235.4437439318279814 [Eh]
	 Singles Energy            =      -0.0000000000000000 [Eh]
	 Same-Spin Energy          =      -0.2541498016290507 [Eh]
	 Opposite-Spin Energy      =      -0.9527764215017324 [Eh]
	 Correlation Energy        =      -1.2069262231307829 [Eh]
	 Total Energy              =    -236.6506701549587603 [Eh]

	 ================> DF-SCS-MP2 Energies <==================
	-----------------------------------------------------------
	 SCS Same-Spin Scale       =       0.3333333333333333 [-]
	 SCS Opposite-Spin Scale   =       1.2000000000000000 [-]
	 SCS Same-Spin Energy      =      -0.0847166005430169 [Eh]
	 SCS Opposite-Spin Energy  =      -1.1433317058020789 [Eh]
	 SCS Correlation Energy    =      -1.2280483063450958 [Eh]
	 SCS Total Energy          =    -236.6717922381730830 [Eh]
	-----------------------------------------------------------

  Dipole Moment: [D]
     X:    -0.0074      Y:     0.0004      Z:    -0.1573     Total:     0.1574

*** Psi4 exiting successfully. Buy a developer a beer!
