                               Psi4 1.3.2 release

  ==> Input File <==

--------------------------------------------------------------------------
#psi4
#
memory 32 gb

molecule  {
0 1
  C        0.6779373     0.3635201    -0.4745858
  C       -0.7029620    -0.3173540    -0.3804860
  C        0.9826470     1.1914400     0.8430940
  C        1.8037460    -0.7325620    -0.5400470
  C       -0.9825370    -1.1914260     0.8432460
  C       -1.8038160     0.7325530    -0.5398170
  H        0.7436150     0.9671320    -1.2674360
  H       -0.7437850    -0.9671540    -1.2673200
  H        1.0211370     0.5905480     1.7569780
  H        1.9518370     1.6894640     0.7370170
  H        0.2251830     1.9685050     0.9782860
  H        2.7795120    -0.2525090    -0.6673740
  H        1.8684660    -1.3795410     0.3401940
  H        1.6230310    -1.3663620    -1.4145870
  H       -0.2250570    -1.9684910     0.9783510
  H       -1.0209040    -0.5905180     1.7571240
  H       -1.9517420    -1.6894490     0.7373050
  H       -1.8684140     1.3795480     0.3404210
  H       -2.7795990     0.2525000    -0.6670030
  H       -1.6232180     1.3663380    -1.4143930
units angstrom
no_reorient  #important for SAPT in psi4, default
symmetry c1  #important for SAPT in psi4, default
}

set PROPERTIES_ORIGIN ["COM"]
properties('MP2/aug-cc-pvtz', properties = ['dipole'])
--------------------------------------------------------------------------

    Molecular point group: c1
  Charge       = 0
  Multiplicity = 1
  Basis Set: AUG-CC-PVTZ
    Blend: AUG-CC-PVTZ
  Basis Set: (AUG-CC-PVTZ AUX)
    Blend: AUG-CC-PVTZ-JKFIT

    Orbital Energies [Eh]
    ---------------------

    Doubly Occupied:

       1A    -11.220307     2A    -11.217577     3A    -11.209066
       4A    -11.208118     5A    -11.207904     6A    -11.206547
       7A     -1.097771     8A     -1.003452     9A     -0.927396
      10A     -0.914522    11A     -0.840044    12A     -0.745132
      13A     -0.640762    14A     -0.606048    15A     -0.596431
      16A     -0.559639    17A     -0.550902    18A     -0.534574
      19A     -0.520495    20A     -0.517719    21A     -0.499228
      22A     -0.479426    23A     -0.464815    24A     -0.430942
      25A     -0.427060

  @DF-RHF Final Energy:  -235.43359043211260

   => Energetics <=

    Nuclear Repulsion Energy =            263.3385804525687490
    One-Electron Energy =                -838.2925880150031617
    Two-Electron Energy =                 339.5204171303217890
    Total Energy =                       -235.4335904321126236
  Basis Set: (AUG-CC-PVTZ AUX)
    Blend: AUG-CC-PVTZ-RI
    Molecular point group: c1

    Geometry (in Angstrom), charge = 0, multiplicity = 1:

       Center              X                  Y                   Z               Mass
    ------------   -----------------  -----------------  -----------------  -----------------
         C            0.681418376295     0.357085688449    -0.450798329517    12.000000000000
         C           -0.699480923705    -0.323788411551    -0.356698529517    12.000000000000
         C            0.986128076295     1.185005588449     0.866881470483    12.000000000000
         C            1.807227076295    -0.738996411551    -0.516259529517    12.000000000000
         C           -0.979055923705    -1.197860411551     0.867033470483    12.000000000000
         C           -1.800334923705     0.726118588449    -0.516029529517    12.000000000000
         H            0.747096076295     0.960697588449    -1.243648529517     1.007825032230
         H           -0.740303923705    -0.973588411551    -1.243532529517     1.007825032230
         H            1.024618076295     0.584113588449     1.780765470483     1.007825032230
         H            1.955318076295     1.683029588449     0.760804470483     1.007825032230
         H            0.228664076295     1.962070588449     1.002073470483     1.007825032230
         H            2.782993076295    -0.258943411551    -0.643586529517     1.007825032230
         H            1.871947076295    -1.385975411551     0.363981470483     1.007825032230
         H            1.626512076295    -1.372796411551    -1.390799529517     1.007825032230
         H           -0.221575923705    -1.974925411551     1.002138470483     1.007825032230
         H           -1.017422923705    -0.596952411551     1.780911470483     1.007825032230
         H           -1.948260923705    -1.695883411551     0.761092470483     1.007825032230
         H           -1.864932923705     1.373113588449     0.364208470483     1.007825032230
         H           -2.776117923705     0.246065588449    -0.643215529517     1.007825032230
         H           -1.619736923705     1.359903588449    -1.390605529517     1.007825032230

  Basis Set: AUG-CC-PVTZ
    Blend: AUG-CC-PVTZ
  Basis Set: (AUG-CC-PVTZ AUX)
    Blend: AUG-CC-PVTZ-JKFIT
	 Reference Energy          =    -235.4335904321125952 [Eh]
	 Singles Energy            =      -0.0000000000000000 [Eh]
	 Same-Spin Energy          =      -0.2540487207310389 [Eh]
	 Opposite-Spin Energy      =      -0.9530241206696319 [Eh]
	 Correlation Energy        =      -1.2070728414006708 [Eh]
	 Total Energy              =    -236.6406632735132689 [Eh]

	 ================> DF-SCS-MP2 Energies <==================
	-----------------------------------------------------------
	 SCS Same-Spin Scale       =       0.3333333333333333 [-]
	 SCS Opposite-Spin Scale   =       1.2000000000000000 [-]
	 SCS Same-Spin Energy      =      -0.0846829069103463 [Eh]
	 SCS Opposite-Spin Energy  =      -1.1436289448035584 [Eh]
	 SCS Correlation Energy    =      -1.2283118517139047 [Eh]
	 SCS Total Energy          =    -236.6619022838264925 [Eh]
	-----------------------------------------------------------

  Dipole Moment: [D]
     X:    -0.0191      Y:    -0.0052      Z:    -0.1644     Total:     0.1656

*** Psi4 exiting successfully. Buy a developer a beer!
