                               Psi4 1.3.2 release

  ==> Input File <==

--------------------------------------------------------------------------
#psi4
#
memory 32 gb

molecule  {
0 1
  C        0.7029120     0.3173470    -0.3805850
  C       -0.7029620    -0.3173540    -0.3804860
  C        0.9826470     1.1914400     0.8430940
  C        1.8037460    -0.7325620    -0.5400470
  C       -0.9825370    -1.1914260     0.8432460
  C       -1.8038160     0.7325530    -0.5398170
  H        0.7436150     0.9671320    -1.2674360
  H       -0.7437850    -0.9671540    -1.2673200
  H        1.0211370     0.5905480     1.7569780
  H        1.9518370     1.6894640     0.7370170
  H        0.2251830     1.9685050     0.9782860
  H        2.7795120    -0.2525090    -0.6673740
  H        1.8684660    -1.3795410     0.3401940
  H        1.6230310    -1.3663620    -1.4145870
  H       -0.2250570    -1.9684910     0.9783510
  H       -1.0209040    -0.5905180     1.7571240
  H       -1.7746875    -1.5984701     0.7566583
  H       -1.8684140     1.3795480     0.3404210
  H       -2.7795990     0.2525000    -0.6670030
  H       -1.6232180     1.3663380    -1.4143930
units angstrom
no_reorient  #important for SAPT in psi4, default
symmetry c1  #important for SAPT in psi4, default
}

set PROPERTIES_ORIGIN ["COM"]
properties('MP2/aug-cc-pvtz', properties = ['dipole'])
--------------------------------------------------------------------------

    Molecular point group: c1
  Charge       = 0
  Multiplicity = 1
  Basis Set: AUG-CC-PVTZ
    Blend: AUG-CC-PVTZ
  Basis Set: (AUG-CC-PVTZ AUX)
    Blend: AUG-CC-PVTZ-JKFIT

    Orbital Energies [Eh]
    ---------------------

    Doubly Occupied:

       1A    -11.219137     2A    -11.218552     3A    -11.207495
       4A    -11.206435     5A    -11.206017     6A    -11.181753
       7A     -1.102786     8A     -1.015063     9A     -0.941563
      10A     -0.922436    11A     -0.837811    12A     -0.734806
      13A     -0.650504    14A     -0.607448    15A     -0.603452
      16A     -0.560201    17A     -0.558267    18A     -0.548933
      19A     -0.527139    20A     -0.519074    21A     -0.486593
      22A     -0.484584    23A     -0.444201    24A     -0.443620
      25A     -0.437679

  @DF-RHF Final Energy:  -235.41263577846181

   => Energetics <=

    Nuclear Repulsion Energy =            265.0690147179445830
    One-Electron Energy =                -841.6322043273383997
    Two-Electron Energy =                 341.1505538309319832
    Total Energy =                       -235.4126357784618335
  Basis Set: (AUG-CC-PVTZ AUX)
    Blend: AUG-CC-PVTZ-RI
    Molecular point group: c1

    Geometry (in Angstrom), charge = 0, multiplicity = 1:

       Center              X                  Y                   Z               Mass
    ------------   -----------------  -----------------  -----------------  -----------------
         C            0.700840424415     0.316282334136    -0.370123744022    12.000000000000
         C           -0.705033575585    -0.318418665864    -0.370024744022    12.000000000000
         C            0.980575424415     1.190375334136     0.853555255978    12.000000000000
         C            1.801674424415    -0.733626665864    -0.529585744022    12.000000000000
         C           -0.984608575585    -1.192490665864     0.853707255978    12.000000000000
         C           -1.805887575585     0.731488334136    -0.529355744022    12.000000000000
         H            0.741543424415     0.966067334136    -1.256974744022     1.007825032230
         H           -0.745856575585    -0.968218665864    -1.256858744022     1.007825032230
         H            1.019065424415     0.589483334136     1.767439255978     1.007825032230
         H            1.949765424415     1.688399334136     0.747478255978     1.007825032230
         H            0.223111424415     1.967440334136     0.988747255978     1.007825032230
         H            2.777440424415    -0.253573665864    -0.656912744022     1.007825032230
         H            1.866394424415    -1.380605665864     0.350655255978     1.007825032230
         H            1.620959424415    -1.367426665864    -1.404125744022     1.007825032230
         H           -0.227128575585    -1.969555665864     0.988812255978     1.007825032230
         H           -1.022975575585    -0.591582665864     1.767585255978     1.007825032230
         H           -1.776759075585    -1.599534765864     0.767119555978     1.007825032230
         H           -1.870485575585     1.378483334136     0.350882255978     1.007825032230
         H           -2.781670575585     0.251435334136    -0.656541744022     1.007825032230
         H           -1.625289575585     1.365273334136    -1.403931744022     1.007825032230

  Basis Set: AUG-CC-PVTZ
    Blend: AUG-CC-PVTZ
  Basis Set: (AUG-CC-PVTZ AUX)
    Blend: AUG-CC-PVTZ-JKFIT
	 Reference Energy          =    -235.4126357784618051 [Eh]
	 Singles Energy            =      -0.0000000000000000 [Eh]
	 Same-Spin Energy          =      -0.2545237579418155 [Eh]
	 Opposite-Spin Energy      =      -0.9523086494482496 [Eh]
	 Correlation Energy        =      -1.2068324073900651 [Eh]
	 Total Energy              =    -236.6194681858518720 [Eh]

	 ================> DF-SCS-MP2 Energies <==================
	-----------------------------------------------------------
	 SCS Same-Spin Scale       =       0.3333333333333333 [-]
	 SCS Opposite-Spin Scale   =       1.2000000000000000 [-]
	 SCS Same-Spin Energy      =      -0.0848412526472718 [Eh]
	 SCS Opposite-Spin Energy  =      -1.1427703793378994 [Eh]
	 SCS Correlation Energy    =      -1.2276116319851713 [Eh]
	 SCS Total Energy          =    -236.6402474104469889 [Eh]
	-----------------------------------------------------------

  Dipole Moment: [D]
     X:    -0.1025      Y:    -0.0640      Z:    -0.1246     Total:     0.1736

*** Psi4 exiting successfully. Buy a developer a beer!
