                               Psi4 1.3.2 release

  ==> Input File <==

--------------------------------------------------------------------------
#psi4
#
memory 32 gb

molecule  {
0 1
  C        0.7029120     0.3173470    -0.3805850
  C       -0.6796222    -0.3101475    -0.3697152
  C        0.9826470     1.1914400     0.8430940
  C        1.8037460    -0.7325620    -0.5400470
  C       -0.9825370    -1.1914260     0.8432460
  C       -1.8038160     0.7325530    -0.5398170
  H        0.7436150     0.9671320    -1.2674360
  H       -0.7437850    -0.9671540    -1.2673200
  H        1.0211370     0.5905480     1.7569780
  H        1.9518370     1.6894640     0.7370170
  H        0.2251830     1.9685050     0.9782860
  H        2.7795120    -0.2525090    -0.6673740
  H        1.8684660    -1.3795410     0.3401940
  H        1.6230310    -1.3663620    -1.4145870
  H       -0.2250570    -1.9684910     0.9783510
  H       -1.0209040    -0.5905180     1.7571240
  H       -1.9517420    -1.6894490     0.7373050
  H       -1.8684140     1.3795480     0.3404210
  H       -2.7795990     0.2525000    -0.6670030
  H       -1.6232180     1.3663380    -1.4143930
units angstrom
no_reorient  #important for SAPT in psi4, default
symmetry c1  #important for SAPT in psi4, default
}

set PROPERTIES_ORIGIN ["COM"]
properties('MP2/aug-cc-pvtz', properties = ['dipole'])
--------------------------------------------------------------------------

    Molecular point group: c1
  Charge       = 0
  Multiplicity = 1
  Basis Set: AUG-CC-PVTZ
    Blend: AUG-CC-PVTZ
  Basis Set: (AUG-CC-PVTZ AUX)
    Blend: AUG-CC-PVTZ-JKFIT

    Orbital Energies [Eh]
    ---------------------

    Doubly Occupied:

       1A    -11.221182     2A    -11.219713     3A    -11.207822
       4A    -11.207649     5A    -11.207278     6A    -11.207275
       7A     -1.103915     8A     -1.008059     9A     -0.929339
      10A     -0.919480    11A     -0.837245    12A     -0.730098
      13A     -0.641509    14A     -0.608482    15A     -0.603790
      16A     -0.560513    17A     -0.550338    18A     -0.537333
      19A     -0.520863    20A     -0.519804    21A     -0.487891
      22A     -0.485110    23A     -0.444662    24A     -0.441976
      25A     -0.439631

  @DF-RHF Final Energy:  -235.44553797589839

   => Energetics <=

    Nuclear Repulsion Energy =            264.2701059844119413
    One-Electron Energy =                -840.1493746560448699
    Two-Electron Energy =                 340.4337306957344822
    Total Energy =                       -235.4455379758983895
  Basis Set: (AUG-CC-PVTZ AUX)
    Blend: AUG-CC-PVTZ-RI
    Molecular point group: c1

    Geometry (in Angstrom), charge = 0, multiplicity = 1:

       Center              X                  Y                   Z               Mass
    ------------   -----------------  -----------------  -----------------  -----------------
         C            0.699660094913     0.316342871124    -0.371398223557    12.000000000000
         C           -0.682874105087    -0.311151628876    -0.360528423557    12.000000000000
         C            0.979395094913     1.190435871124     0.852280776443    12.000000000000
         C            1.800494094913    -0.733566128876    -0.530860223557    12.000000000000
         C           -0.985788905087    -1.192430128876     0.852432776443    12.000000000000
         C           -1.807067905087     0.731548871124    -0.530630223557    12.000000000000
         H            0.740363094913     0.966127871124    -1.258249223557     1.007825032230
         H           -0.747036905087    -0.968158128876    -1.258133223557     1.007825032230
         H            1.017885094913     0.589543871124     1.766164776443     1.007825032230
         H            1.948585094913     1.688459871124     0.746203776443     1.007825032230
         H            0.221931094913     1.967500871124     0.987472776443     1.007825032230
         H            2.776260094913    -0.253513128876    -0.658187223557     1.007825032230
         H            1.865214094913    -1.380545128876     0.349380776443     1.007825032230
         H            1.619779094913    -1.367366128876    -1.405400223557     1.007825032230
         H           -0.228308905087    -1.969495128876     0.987537776443     1.007825032230
         H           -1.024155905087    -0.591522128876     1.766310776443     1.007825032230
         H           -1.954993905087    -1.690453128876     0.746491776443     1.007825032230
         H           -1.871665905087     1.378543871124     0.349607776443     1.007825032230
         H           -2.782850905087     0.251495871124    -0.657816223557     1.007825032230
         H           -1.626469905087     1.365333871124    -1.405206223557     1.007825032230

  Basis Set: AUG-CC-PVTZ
    Blend: AUG-CC-PVTZ
  Basis Set: (AUG-CC-PVTZ AUX)
    Blend: AUG-CC-PVTZ-JKFIT
	 Reference Energy          =    -235.4455379758983895 [Eh]
	 Singles Energy            =      -0.0000000000000000 [Eh]
	 Same-Spin Energy          =      -0.2545012168290965 [Eh]
	 Opposite-Spin Energy      =      -0.9531236328404641 [Eh]
	 Correlation Energy        =      -1.2076248496695605 [Eh]
	 Total Energy              =    -236.6531628255679607 [Eh]

	 ================> DF-SCS-MP2 Energies <==================
	-----------------------------------------------------------
	 SCS Same-Spin Scale       =       0.3333333333333333 [-]
	 SCS Opposite-Spin Scale   =       1.2000000000000000 [-]
	 SCS Same-Spin Energy      =      -0.0848337389430322 [Eh]
	 SCS Opposite-Spin Energy  =      -1.1437483594085569 [Eh]
	 SCS Correlation Energy    =      -1.2285820983515892 [Eh]
	 SCS Total Energy          =    -236.6741200742499700 [Eh]
	-----------------------------------------------------------

  Dipole Moment: [D]
     X:     0.0132      Y:     0.0007      Z:    -0.1346     Total:     0.1352

*** Psi4 exiting successfully. Buy a developer a beer!
