                               Psi4 1.3.2 release

  ==> Input File <==

--------------------------------------------------------------------------
#psi4
#
memory 32 gb

molecule  {
0 1
  C        0.7029120     0.3173470    -0.3805850
  C       -0.7029620    -0.3173540    -0.3804860
  C        0.9826470     1.1914400     0.8430940
  C        1.8037460    -0.7325620    -0.5400470
  C       -0.9825370    -1.1914260     0.8432460
  C       -1.8038160     0.7325530    -0.5398170
  H        0.7436150     0.9671320    -1.2674360
  H       -0.7437850    -0.9671540    -1.2673200
  H        1.0211370     0.5905480     1.7569780
  H        1.9518370     1.6894640     0.7370170
  H        0.2251830     1.9685050     0.9782860
  H        2.7795120    -0.2525090    -0.6673740
  H        1.8684660    -1.3795410     0.3401940
  H        1.6230310    -1.3663620    -1.4145870
  H       -0.2250570    -1.9684910     0.9783510
  H       -0.9850206    -0.5792575     1.7504279
  H       -1.9517420    -1.6894490     0.7373050
  H       -1.8684140     1.3795480     0.3404210
  H       -2.7795990     0.2525000    -0.6670030
  H       -1.6232180     1.3663380    -1.4143930
units angstrom
no_reorient  #important for SAPT in psi4, default
symmetry c1  #important for SAPT in psi4, default
}

set PROPERTIES_ORIGIN ["COM"]
properties('MP2/aug-cc-pvtz', properties = ['dipole'])
--------------------------------------------------------------------------

    Molecular point group: c1
  Charge       = 0
  Multiplicity = 1
  Basis Set: AUG-CC-PVTZ
    Blend: AUG-CC-PVTZ
  Basis Set: (AUG-CC-PVTZ AUX)
    Blend: AUG-CC-PVTZ-JKFIT

    Orbital Energies [Eh]
    ---------------------

    Doubly Occupied:

       1A    -11.220526     2A    -11.219865     3A    -11.207458
       4A    -11.207397     5A    -11.207253     6A    -11.207081
       7A     -1.101748     8A     -1.009398     9A     -0.929368
      10A     -0.919875    11A     -0.834112    12A     -0.731547
      13A     -0.640928    14A     -0.607986    15A     -0.604345
      16A     -0.560755    17A     -0.550535    18A     -0.537245
      19A     -0.521645    20A     -0.519841    21A     -0.487482
      22A     -0.485318    23A     -0.445052    24A     -0.444584
      25A     -0.435975

  @DF-RHF Final Energy:  -235.44625957605919

   => Energetics <=

    Nuclear Repulsion Energy =            264.1019173945447278
    One-Electron Energy =                -839.8217157848573606
    Two-Electron Energy =                 340.2735388142534703
    Total Energy =                       -235.4462595760592194
  Basis Set: (AUG-CC-PVTZ AUX)
    Blend: AUG-CC-PVTZ-RI
    Molecular point group: c1

    Geometry (in Angstrom), charge = 0, multiplicity = 1:

       Center              X                  Y                   Z               Mass
    ------------   -----------------  -----------------  -----------------  -----------------
         C            0.702492689091     0.317215357229    -0.369818862191    12.000000000000
         C           -0.703381310909    -0.317485642771    -0.369719862191    12.000000000000
         C            0.982227689091     1.191308357229     0.853860137809    12.000000000000
         C            1.803326689091    -0.732693642771    -0.529280862191    12.000000000000
         C           -0.982956310909    -1.191557642771     0.854012137809    12.000000000000
         C           -1.804235310909     0.732421357229    -0.529050862191    12.000000000000
         H            0.743195689091     0.967000357229    -1.256669862191     1.007825032230
         H           -0.744204310909    -0.967285642771    -1.256553862191     1.007825032230
         H            1.020717689091     0.590416357229     1.767744137809     1.007825032230
         H            1.951417689091     1.689332357229     0.747783137809     1.007825032230
         H            0.224763689091     1.968373357229     0.989052137809     1.007825032230
         H            2.779092689091    -0.252640642771    -0.656607862191     1.007825032230
         H            1.868046689091    -1.379672642771     0.350960137809     1.007825032230
         H            1.622611689091    -1.366493642771    -1.403820862191     1.007825032230
         H           -0.225476310909    -1.968622642771     0.989117137809     1.007825032230
         H           -0.985439910909    -0.579389142771     1.761194037809     1.007825032230
         H           -1.952161310909    -1.689580642771     0.748071137809     1.007825032230
         H           -1.868833310909     1.379416357229     0.351187137809     1.007825032230
         H           -2.780018310909     0.252368357229    -0.656236862191     1.007825032230
         H           -1.623637310909     1.366206357229    -1.403626862191     1.007825032230

  Basis Set: AUG-CC-PVTZ
    Blend: AUG-CC-PVTZ
  Basis Set: (AUG-CC-PVTZ AUX)
    Blend: AUG-CC-PVTZ-JKFIT
	 Reference Energy          =    -235.4462595760591910 [Eh]
	 Singles Energy            =      -0.0000000000000000 [Eh]
	 Same-Spin Energy          =      -0.2544282377245354 [Eh]
	 Opposite-Spin Energy      =      -0.9529903973666723 [Eh]
	 Correlation Energy        =      -1.2074186350912077 [Eh]
	 Total Energy              =    -236.6536782111504067 [Eh]

	 ================> DF-SCS-MP2 Energies <==================
	-----------------------------------------------------------
	 SCS Same-Spin Scale       =       0.3333333333333333 [-]
	 SCS Opposite-Spin Scale   =       1.2000000000000000 [-]
	 SCS Same-Spin Energy      =      -0.0848094125748451 [Eh]
	 SCS Opposite-Spin Energy  =      -1.1435884768400069 [Eh]
	 SCS Correlation Energy    =      -1.2283978894148520 [Eh]
	 SCS Total Energy          =    -236.6746574654740414 [Eh]
	-----------------------------------------------------------

  Dipole Moment: [D]
     X:     0.0116      Y:     0.0011      Z:    -0.1474     Total:     0.1479

*** Psi4 exiting successfully. Buy a developer a beer!
