                               Psi4 1.3.2 release

  ==> Input File <==

--------------------------------------------------------------------------
#psi4
#
memory 32 gb

molecule  {
0 1
  C        0.7029120     0.3173470    -0.3805850
  C       -0.7029620    -0.3173540    -0.3804860
  C        0.9826470     1.1914400     0.8430940
  C        1.8037460    -0.7325620    -0.5400470
  C       -0.9825370    -1.1914260     0.8432460
  C       -1.8038160     0.7325530    -0.5398170
  H        0.7436150     0.9671320    -1.2674360
  H       -0.7437850    -0.9671540    -1.2673200
  H        1.0211370     0.5905480     1.7569780
  H        1.9518370     1.6894640     0.7370170
  H        0.2251830     1.9685050     0.9782860
  H        2.7795120    -0.2525090    -0.6673740
  H        1.8684660    -1.3795410     0.3401940
  H        1.6230310    -1.3663620    -1.4145870
  H       -0.2250570    -1.9684910     0.9783510
  H       -1.0209040    -0.5905180     1.7571240
  H       -1.8632148    -1.6439596     0.7469817
  H       -1.8684140     1.3795480     0.3404210
  H       -2.7795990     0.2525000    -0.6670030
  H       -1.6232180     1.3663380    -1.4143930
units angstrom
no_reorient  #important for SAPT in psi4, default
symmetry c1  #important for SAPT in psi4, default
}

set PROPERTIES_ORIGIN ["COM"]
properties('MP2/aug-cc-pvtz', properties = ['dipole'])
--------------------------------------------------------------------------

    Molecular point group: c1
  Charge       = 0
  Multiplicity = 1
  Basis Set: AUG-CC-PVTZ
    Blend: AUG-CC-PVTZ
  Basis Set: (AUG-CC-PVTZ AUX)
    Blend: AUG-CC-PVTZ-JKFIT

    Orbital Energies [Eh]
    ---------------------

    Doubly Occupied:

       1A    -11.219741     2A    -11.219157     3A    -11.207449
       4A    -11.206862     5A    -11.206470     6A    -11.194370
       7A     -1.101846     8A     -1.011415     9A     -0.933621
      10A     -0.921723    11A     -0.835847    12A     -0.732979
      13A     -0.644647    14A     -0.607730    15A     -0.603783
      16A     -0.560393    17A     -0.549974    18A     -0.546201
      19A     -0.525622    20A     -0.519549    21A     -0.487011
      22A     -0.485058    23A     -0.444701    24A     -0.444094
      25A     -0.436865

  @DF-RHF Final Energy:  -235.44041884149533

   => Energetics <=

    Nuclear Repulsion Energy =            264.5249045505140657
    One-Electron Energy =                -840.6364324474405976
    Two-Electron Energy =                 340.6711090554312023
    Total Energy =                       -235.4404188414953296
  Basis Set: (AUG-CC-PVTZ AUX)
    Blend: AUG-CC-PVTZ-RI
    Molecular point group: c1

    Geometry (in Angstrom), charge = 0, multiplicity = 1:

       Center              X                  Y                   Z               Mass
    ------------   -----------------  -----------------  -----------------  -----------------
         C            0.701876546756     0.316814742639    -0.370010489224    12.000000000000
         C           -0.703997453244    -0.317886257361    -0.369911489224    12.000000000000
         C            0.981611546756     1.190907742639     0.853668510776    12.000000000000
         C            1.802710546756    -0.733094257361    -0.529472489224    12.000000000000
         C           -0.983572453244    -1.191958257361     0.853820510776    12.000000000000
         C           -1.804851453244     0.732020742639    -0.529242489224    12.000000000000
         H            0.742579546756     0.966599742639    -1.256861489224     1.007825032230
         H           -0.744820453244    -0.967686257361    -1.256745489224     1.007825032230
         H            1.020101546756     0.590015742639     1.767552510776     1.007825032230
         H            1.950801546756     1.688931742639     0.747591510776     1.007825032230
         H            0.224147546756     1.967972742639     0.988860510776     1.007825032230
         H            2.778476546756    -0.253041257361    -0.656799489224     1.007825032230
         H            1.867430546756    -1.380073257361     0.350768510776     1.007825032230
         H            1.621995546756    -1.366894257361    -1.404012489224     1.007825032230
         H           -0.226092453244    -1.969023257361     0.988925510776     1.007825032230
         H           -1.021939453244    -0.591050257361     1.767698510776     1.007825032230
         H           -1.864250253244    -1.644491857361     0.757556210776     1.007825032230
         H           -1.869449453244     1.379015742639     0.350995510776     1.007825032230
         H           -2.780634453244     0.251967742639    -0.656428489224     1.007825032230
         H           -1.624253453244     1.365805742639    -1.403818489224     1.007825032230

  Basis Set: AUG-CC-PVTZ
    Blend: AUG-CC-PVTZ
  Basis Set: (AUG-CC-PVTZ AUX)
    Blend: AUG-CC-PVTZ-JKFIT
	 Reference Energy          =    -235.4404188414953296 [Eh]
	 Singles Energy            =      -0.0000000000000000 [Eh]
	 Same-Spin Energy          =      -0.2544323352881427 [Eh]
	 Opposite-Spin Energy      =      -0.9524483577077969 [Eh]
	 Correlation Energy        =      -1.2068806929959397 [Eh]
	 Total Energy              =    -236.6472995344912817 [Eh]

	 ================> DF-SCS-MP2 Energies <==================
	-----------------------------------------------------------
	 SCS Same-Spin Scale       =       0.3333333333333333 [-]
	 SCS Opposite-Spin Scale   =       1.2000000000000000 [-]
	 SCS Same-Spin Energy      =      -0.0848107784293809 [Eh]
	 SCS Opposite-Spin Energy  =      -1.1429380292493563 [Eh]
	 SCS Correlation Energy    =      -1.2277488076787373 [Eh]
	 SCS Total Energy          =    -236.6681676491740802 [Eh]
	-----------------------------------------------------------

  Dipole Moment: [D]
     X:    -0.0597      Y:    -0.0372      Z:    -0.1332     Total:     0.1506

*** Psi4 exiting successfully. Buy a developer a beer!
