                               Psi4 1.3.2 release

  ==> Input File <==

--------------------------------------------------------------------------
#psi4
#
memory 32 gb

molecule  {
0 1
  C        0.7029120     0.3173470    -0.3805850
  C       -0.7029620    -0.3173540    -0.3804860
  C        0.9826470     1.1914400     0.8430940
  C        1.8037460    -0.7325620    -0.5400470
  C       -0.9875188    -1.2335664     0.8108436
  C       -1.8038160     0.7325530    -0.5398170
  H        0.7436150     0.9671320    -1.2674360
  H       -0.7437850    -0.9671540    -1.2673200
  H        1.0211370     0.5905480     1.7569780
  H        1.9518370     1.6894640     0.7370170
  H        0.2251830     1.9685050     0.9782860
  H        2.7795120    -0.2525090    -0.6673740
  H        1.8684660    -1.3795410     0.3401940
  H        1.6230310    -1.3663620    -1.4145870
  H       -0.2250570    -1.9684910     0.9783510
  H       -1.0209040    -0.5905180     1.7571240
  H       -1.9517420    -1.6894490     0.7373050
  H       -1.8684140     1.3795480     0.3404210
  H       -2.7795990     0.2525000    -0.6670030
  H       -1.6232180     1.3663380    -1.4143930
units angstrom
no_reorient  #important for SAPT in psi4, default
symmetry c1  #important for SAPT in psi4, default
}

set PROPERTIES_ORIGIN ["COM"]
properties('MP2/aug-cc-pvtz', properties = ['dipole'])
--------------------------------------------------------------------------

    Molecular point group: c1
  Charge       = 0
  Multiplicity = 1
  Basis Set: AUG-CC-PVTZ
    Blend: AUG-CC-PVTZ
  Basis Set: (AUG-CC-PVTZ AUX)
    Blend: AUG-CC-PVTZ-JKFIT

    Orbital Energies [Eh]
    ---------------------

    Doubly Occupied:

       1A    -11.220989     2A    -11.220265     3A    -11.207904
       4A    -11.207759     5A    -11.207661     6A    -11.206879
       7A     -1.101417     8A     -1.009637     9A     -0.930353
      10A     -0.919697    11A     -0.834264    12A     -0.731792
      13A     -0.640772    14A     -0.608636    15A     -0.605612
      16A     -0.561274    17A     -0.546872    18A     -0.541258
      19A     -0.523384    20A     -0.516954    21A     -0.488920
      22A     -0.482657    23A     -0.447151    24A     -0.440760
      25A     -0.436896

  @DF-RHF Final Energy:  -235.44362660899412

   => Energetics <=

    Nuclear Repulsion Energy =            263.8818599939221485
    One-Electron Energy =                -839.3714427757146268
    Two-Electron Energy =                 340.0459561727983555
    Total Energy =                       -235.4436266089941228
  Basis Set: (AUG-CC-PVTZ AUX)
    Blend: AUG-CC-PVTZ-RI
    Molecular point group: c1

    Geometry (in Angstrom), charge = 0, multiplicity = 1:

       Center              X                  Y                   Z               Mass
    ------------   -----------------  -----------------  -----------------  -----------------
         C            0.703606918444     0.323219725049    -0.365381720192    12.000000000000
         C           -0.702267081556    -0.311481274951    -0.365282720192    12.000000000000
         C            0.983341918444     1.197312725049     0.858297279808    12.000000000000
         C            1.804440918444    -0.726689274951    -0.524843720192    12.000000000000
         C           -0.986823881556    -1.227693674951     0.826046879808    12.000000000000
         C           -1.803121081556     0.738425725049    -0.524613720192    12.000000000000
         H            0.744309918444     0.973004725049    -1.252232720192     1.007825032230
         H           -0.743090081556    -0.961281274951    -1.252116720192     1.007825032230
         H            1.021831918444     0.596420725049     1.772181279808     1.007825032230
         H            1.952531918444     1.695336725049     0.752220279808     1.007825032230
         H            0.225877918444     1.974377725049     0.993489279808     1.007825032230
         H            2.780206918444    -0.246636274951    -0.652170720192     1.007825032230
         H            1.869160918444    -1.373668274951     0.355397279808     1.007825032230
         H            1.623725918444    -1.360489274951    -1.399383720192     1.007825032230
         H           -0.224362081556    -1.962618274951     0.993554279808     1.007825032230
         H           -1.020209081556    -0.584645274951     1.772327279808     1.007825032230
         H           -1.951047081556    -1.683576274951     0.752508279808     1.007825032230
         H           -1.867719081556     1.385420725049     0.355624279808     1.007825032230
         H           -2.778904081556     0.258372725049    -0.651799720192     1.007825032230
         H           -1.622523081556     1.372210725049    -1.399189720192     1.007825032230

  Basis Set: AUG-CC-PVTZ
    Blend: AUG-CC-PVTZ
  Basis Set: (AUG-CC-PVTZ AUX)
    Blend: AUG-CC-PVTZ-JKFIT
	 Reference Energy          =    -235.4436266089941228 [Eh]
	 Singles Energy            =      -0.0000000000000000 [Eh]
	 Same-Spin Energy          =      -0.2543920854186490 [Eh]
	 Opposite-Spin Energy      =      -0.9529856298632723 [Eh]
	 Correlation Energy        =      -1.2073777152819214 [Eh]
	 Total Energy              =    -236.6510043242760446 [Eh]

	 ================> DF-SCS-MP2 Energies <==================
	-----------------------------------------------------------
	 SCS Same-Spin Scale       =       0.3333333333333333 [-]
	 SCS Opposite-Spin Scale   =       1.2000000000000000 [-]
	 SCS Same-Spin Energy      =      -0.0847973618062163 [Eh]
	 SCS Opposite-Spin Energy  =      -1.1435827558359266 [Eh]
	 SCS Correlation Energy    =      -1.2283801176421429 [Eh]
	 SCS Total Energy          =    -236.6720067266362548 [Eh]
	-----------------------------------------------------------

  Dipole Moment: [D]
     X:     0.0024      Y:    -0.0121      Z:    -0.1675     Total:     0.1680

*** Psi4 exiting successfully. Buy a developer a beer!
