                               Psi4 1.4a3.dev225

  ==> Input File <==

--------------------------------------------------------------------------
#psi4
#
memory 32 gb

molecule  {
0 1
  C        0.7029150     0.3173330    -0.3805920
  C       -0.7029660    -0.3173390    -0.3804920
  C        0.9826460     1.1915080     0.8430290
  C        1.8037540    -0.7325950    -0.5399760
  C       -0.9916705    -1.2200686     0.8831797
  C       -1.8038280     0.7325860    -0.5397480
  H        0.7436620     0.9670620    -1.2674850
  H       -0.7438300    -0.9670830    -1.2673690
  H        1.0210420     0.5906890     1.7569670
  H        1.9518800     1.6894470     0.7369640
  H        0.2252310     1.9686380     0.9781220
  H        2.7795150    -0.2525500    -0.6673430
  H        1.8684590    -1.3794860     0.3403280
  H        1.6230140    -1.3664690    -1.4144560
  H       -0.2250960    -1.9686200     0.9781850
  H       -1.0208080    -0.5906600     1.7571130
  H       -1.9517780    -1.6894370     0.7372520
  H       -1.8684180     1.3794910     0.3405540
  H       -2.7796050     0.2525370    -0.6669790
  H       -1.6232050     1.3664460    -1.4142620
units angstrom
no_reorient  #important for SAPT in psi4, default
symmetry c1  #important for SAPT in psi4, default
}

set PROPERTIES_ORIGIN ["COM"]
properties('MP2/aug-cc-pvtz', properties = ['dipole'])
--------------------------------------------------------------------------

    Molecular point group: c1
  Charge       = 0
  Multiplicity = 1
  Basis Set: AUG-CC-PVTZ
    Blend: AUG-CC-PVTZ
  Basis Set: (AUG-CC-PVTZ AUX)
    Blend: AUG-CC-PVTZ-JKFIT

    Orbital Energies [Eh]
    ---------------------

    Doubly Occupied:

       1A    -11.222505     2A    -11.220199     3A    -11.207500
       4A    -11.207414     5A    -11.207126     6A    -11.204877
       7A     -1.098027     8A     -1.006610     9A     -0.929568
      10A     -0.920503    11A     -0.834753    12A     -0.730857
      13A     -0.639062    14A     -0.608123    15A     -0.602737
      16A     -0.560697    17A     -0.553152    18A     -0.538684
      19A     -0.523941    20A     -0.521138    21A     -0.489297
      22A     -0.484029    23A     -0.446198    24A     -0.440781
      25A     -0.433659

  @DF-RHF Final Energy:  -235.44491696122174

   => Energetics <=

    Nuclear Repulsion Energy =            263.3238007624863144
    One-Electron Energy =                -838.2745644093921555
    Two-Electron Energy =                 339.5058466856841619
    Total Energy =                       -235.4449169612217361
  Basis Set: (AUG-CC-PVTZ AUX)
    Blend: AUG-CC-PVTZ-RI
    Molecular point group: c1

    Geometry (in Angstrom), charge = 0, multiplicity = 1:

       Center              X                  Y                   Z               Mass
    ------------   -----------------  -----------------  -----------------  -----------------
         C            0.704189312854     0.321315161782    -0.375478256307    12.000000000000
         C           -0.701691687146    -0.313356838218    -0.375378256307    12.000000000000
         C            0.983920312854     1.195490161782     0.848142743693    12.000000000000
         C            1.805028312854    -0.728612838218    -0.534862256307    12.000000000000
         C           -0.990396187146    -1.216086438218     0.888293443693    12.000000000000
         C           -1.802553687146     0.736568161782    -0.534634256307    12.000000000000
         H            0.744936312854     0.971044161782    -1.262371256307     1.007825032230
         H           -0.742555687146    -0.963100838218    -1.262255256307     1.007825032230
         H            1.022316312854     0.594671161782     1.762080743693     1.007825032230
         H            1.953154312854     1.693429161782     0.742077743693     1.007825032230
         H            0.226505312854     1.972620161782     0.983235743693     1.007825032230
         H            2.780789312854    -0.248567838218    -0.662229256307     1.007825032230
         H            1.869733312854    -1.375503838218     0.345441743693     1.007825032230
         H            1.624288312854    -1.362486838218    -1.409342256307     1.007825032230
         H           -0.223821687146    -1.964637838218     0.983298743693     1.007825032230
         H           -1.019533687146    -0.586677838218     1.762226743693     1.007825032230
         H           -1.950503687146    -1.685454838218     0.742365743693     1.007825032230
         H           -1.867143687146     1.383473161782     0.345667743693     1.007825032230
         H           -2.778330687146     0.256519161782    -0.661865256307     1.007825032230
         H           -1.621930687146     1.370428161782    -1.409148256307     1.007825032230

  Basis Set: AUG-CC-PVTZ
    Blend: AUG-CC-PVTZ
  Basis Set: (AUG-CC-PVTZ AUX)
    Blend: AUG-CC-PVTZ-JKFIT
	 Reference Energy          =    -235.4449169612217361 [Eh]
	 Singles Energy            =      -0.0000000000000000 [Eh]
	 Same-Spin Energy          =      -0.2540973716292038 [Eh]
	 Opposite-Spin Energy      =      -0.9527666715243546 [Eh]
	 Correlation Energy        =      -1.2068640431535584 [Eh]
	 Total Energy              =    -236.6517810043752945 [Eh]

	 ================> DF-SCS-MP2 Energies <==================
	-----------------------------------------------------------
	 SCS Same-Spin Scale       =       0.3333333333333333 [-]
	 SCS Opposite-Spin Scale   =       1.2000000000000000 [-]
	 SCS Same-Spin Energy      =      -0.0846991238764012 [Eh]
	 SCS Opposite-Spin Energy  =      -1.1433200058292254 [Eh]
	 SCS Correlation Energy    =      -1.2280191297056267 [Eh]
	 SCS Total Energy          =    -236.6729360909273510 [Eh]
	-----------------------------------------------------------

  Dipole Moment: [D]
     X:     0.0029      Y:     0.0106      Z:    -0.1537     Total:     0.1541

*** Psi4 exiting successfully. Buy a developer a beer!
