                               Psi4 1.3.2 release

  ==> Input File <==

--------------------------------------------------------------------------
#psi4
#
memory 32 gb

molecule  {
0 1
  C        0.7128372     0.2930862    -0.3335558
  C       -0.7029620    -0.3173540    -0.3804860
  C        0.9826470     1.1914400     0.8430940
  C        1.8037460    -0.7325620    -0.5400470
  C       -0.9825370    -1.1914260     0.8432460
  C       -1.8038160     0.7325530    -0.5398170
  H        0.7436150     0.9671320    -1.2674360
  H       -0.7437850    -0.9671540    -1.2673200
  H        1.0211370     0.5905480     1.7569780
  H        1.9518370     1.6894640     0.7370170
  H        0.2251830     1.9685050     0.9782860
  H        2.7795120    -0.2525090    -0.6673740
  H        1.8684660    -1.3795410     0.3401940
  H        1.6230310    -1.3663620    -1.4145870
  H       -0.2250570    -1.9684910     0.9783510
  H       -1.0209040    -0.5905180     1.7571240
  H       -1.9517420    -1.6894490     0.7373050
  H       -1.8684140     1.3795480     0.3404210
  H       -2.7795990     0.2525000    -0.6670030
  H       -1.6232180     1.3663380    -1.4143930
units angstrom
no_reorient  #important for SAPT in psi4, default
symmetry c1  #important for SAPT in psi4, default
}

set PROPERTIES_ORIGIN ["COM"]
properties('MP2/aug-cc-pvtz', properties = ['dipole'])
--------------------------------------------------------------------------

    Molecular point group: c1
  Charge       = 0
  Multiplicity = 1
  Basis Set: AUG-CC-PVTZ
    Blend: AUG-CC-PVTZ
  Basis Set: (AUG-CC-PVTZ AUX)
    Blend: AUG-CC-PVTZ-JKFIT

    Orbital Energies [Eh]
    ---------------------

    Doubly Occupied:

       1A    -11.222775     2A    -11.220914     3A    -11.207989
       4A    -11.207646     5A    -11.207109     6A    -11.206405
       7A     -1.104215     8A     -1.012502     9A     -0.932002
      10A     -0.921276    11A     -0.832268    12A     -0.727359
      13A     -0.639997    14A     -0.611626    15A     -0.606111
      16A     -0.561423    17A     -0.550396    18A     -0.538482
      19A     -0.522220    20A     -0.520227    21A     -0.491994
      22A     -0.483130    23A     -0.450766    24A     -0.442712
      25A     -0.426494

  @DF-RHF Final Energy:  -235.44266447366809

   => Energetics <=

    Nuclear Repulsion Energy =            264.3958316680201506
    One-Electron Energy =                -840.3809192661120733
    Two-Electron Energy =                 340.5424231244238626
    Total Energy =                       -235.4426644736680601
  Basis Set: (AUG-CC-PVTZ AUX)
    Blend: AUG-CC-PVTZ-RI
    Molecular point group: c1

    Geometry (in Angstrom), charge = 0, multiplicity = 1:

       Center              X                  Y                   Z               Mass
    ------------   -----------------  -----------------  -----------------  -----------------
         C            0.711454718213     0.296467271117    -0.329421898618    12.000000000000
         C           -0.704344481787    -0.313972928883    -0.376352098618    12.000000000000
         C            0.981264518213     1.194821071117     0.847227901382    12.000000000000
         C            1.802363518213    -0.729180928883    -0.535913098618    12.000000000000
         C           -0.983919481787    -1.188044928883     0.847379901382    12.000000000000
         C           -1.805198481787     0.735934071117    -0.535683098618    12.000000000000
         H            0.742232518213     0.970513071117    -1.263302098618     1.007825032230
         H           -0.745167481787    -0.963772928883    -1.263186098618     1.007825032230
         H            1.019754518213     0.593929071117     1.761111901382     1.007825032230
         H            1.950454518213     1.692845071117     0.741150901382     1.007825032230
         H            0.223800518213     1.971886071117     0.982419901382     1.007825032230
         H            2.778129518213    -0.249127928883    -0.663240098618     1.007825032230
         H            1.867083518213    -1.376159928883     0.344327901382     1.007825032230
         H            1.621648518213    -1.362980928883    -1.410453098618     1.007825032230
         H           -0.226439481787    -1.965109928883     0.982484901382     1.007825032230
         H           -1.022286481787    -0.587136928883     1.761257901382     1.007825032230
         H           -1.953124481787    -1.686067928883     0.741438901382     1.007825032230
         H           -1.869796481787     1.382929071117     0.344554901382     1.007825032230
         H           -2.780981481787     0.255881071117    -0.662869098618     1.007825032230
         H           -1.624600481787     1.369719071117    -1.410259098618     1.007825032230

  Basis Set: AUG-CC-PVTZ
    Blend: AUG-CC-PVTZ
  Basis Set: (AUG-CC-PVTZ AUX)
    Blend: AUG-CC-PVTZ-JKFIT
	 Reference Energy          =    -235.4426644736680885 [Eh]
	 Singles Energy            =      -0.0000000000000000 [Eh]
	 Same-Spin Energy          =      -0.2547673725294722 [Eh]
	 Opposite-Spin Energy      =      -0.9534804692089758 [Eh]
	 Correlation Energy        =      -1.2082478417384479 [Eh]
	 Total Energy              =    -236.6509123154065435 [Eh]

	 ================> DF-SCS-MP2 Energies <==================
	-----------------------------------------------------------
	 SCS Same-Spin Scale       =       0.3333333333333333 [-]
	 SCS Opposite-Spin Scale   =       1.2000000000000000 [-]
	 SCS Same-Spin Energy      =      -0.0849224575098241 [Eh]
	 SCS Opposite-Spin Energy  =      -1.1441765630507710 [Eh]
	 SCS Correlation Energy    =      -1.2290990205605952 [Eh]
	 SCS Total Energy          =    -236.6717634942286850 [Eh]
	-----------------------------------------------------------

  Dipole Moment: [D]
     X:     0.0033      Y:    -0.0070      Z:    -0.1211     Total:     0.1214

*** Psi4 exiting successfully. Buy a developer a beer!
