                               Psi4 1.3.2 release

  ==> Input File <==

--------------------------------------------------------------------------
#psi4
#
memory 32 gb

molecule  {
0 1
  C        0.7029120     0.3173470    -0.3805850
  C       -0.7029620    -0.3173540    -0.3804860
  C        0.9826470     1.1914400     0.8430940
  C        1.8037460    -0.7325620    -0.5400470
  C       -0.9825370    -1.1914260     0.8432460
  C       -1.8038160     0.7325530    -0.5398170
  H        0.7436150     0.9671320    -1.2674360
  H       -0.7512062    -1.0852809    -1.4285372
  H        1.0211370     0.5905480     1.7569780
  H        1.9518370     1.6894640     0.7370170
  H        0.2251830     1.9685050     0.9782860
  H        2.7795120    -0.2525090    -0.6673740
  H        1.8684660    -1.3795410     0.3401940
  H        1.6230310    -1.3663620    -1.4145870
  H       -0.2250570    -1.9684910     0.9783510
  H       -1.0209040    -0.5905180     1.7571240
  H       -1.9517420    -1.6894490     0.7373050
  H       -1.8684140     1.3795480     0.3404210
  H       -2.7795990     0.2525000    -0.6670030
  H       -1.6232180     1.3663380    -1.4143930
units angstrom
no_reorient  #important for SAPT in psi4, default
symmetry c1  #important for SAPT in psi4, default
}

set PROPERTIES_ORIGIN ["COM"]
properties('MP2/aug-cc-pvtz', properties = ['dipole'])
--------------------------------------------------------------------------

    Molecular point group: c1
  Charge       = 0
  Multiplicity = 1
  Basis Set: AUG-CC-PVTZ
    Blend: AUG-CC-PVTZ
  Basis Set: (AUG-CC-PVTZ AUX)
    Blend: AUG-CC-PVTZ-JKFIT

    Orbital Energies [Eh]
    ---------------------

    Doubly Occupied:

       1A    -11.244642     2A    -11.222849     3A    -11.210157
       4A    -11.209889     5A    -11.209484     6A    -11.207226
       7A     -1.099932     8A     -1.008988     9A     -0.930943
      10A     -0.921118    11A     -0.830813    12A     -0.719748
      13A     -0.634092    14A     -0.607241    15A     -0.604855
      16A     -0.561704    17A     -0.552229    18A     -0.538614
      19A     -0.522147    20A     -0.520854    21A     -0.488894
      22A     -0.481771    23A     -0.447183    24A     -0.440777
      25A     -0.423484

  @DF-RHF Final Energy:  -235.42729018641248

   => Energetics <=

    Nuclear Repulsion Energy =            263.1578328573509111
    One-Electron Energy =                -837.8909764277170780
    Two-Electron Energy =                 339.3058533839536040
    Total Energy =                       -235.4272901864125060
  Basis Set: (AUG-CC-PVTZ AUX)
    Blend: AUG-CC-PVTZ-RI
    Molecular point group: c1

    Geometry (in Angstrom), charge = 0, multiplicity = 1:

       Center              X                  Y                   Z               Mass
    ------------   -----------------  -----------------  -----------------  -----------------
         C            0.702999525552     0.318729705636    -0.368010349294    12.000000000000
         C           -0.702874474448    -0.315971294364    -0.367911349294    12.000000000000
         C            0.982734525552     1.192822705636     0.855668650706    12.000000000000
         C            1.803833525552    -0.731179294364    -0.527472349294    12.000000000000
         C           -0.982449474448    -1.190043294364     0.855820650706    12.000000000000
         C           -1.803728474448     0.733935705636    -0.527242349294    12.000000000000
         H            0.743702525552     0.968514705636    -1.254861349294     1.007825032230
         H           -0.751118674448    -1.083898194364    -1.415962549294     1.007825032230
         H            1.021224525552     0.591930705636     1.769552650706     1.007825032230
         H            1.951924525552     1.690846705636     0.749591650706     1.007825032230
         H            0.225270525552     1.969887705636     0.990860650706     1.007825032230
         H            2.779599525552    -0.251126294364    -0.654799349294     1.007825032230
         H            1.868553525552    -1.378158294364     0.352768650706     1.007825032230
         H            1.623118525552    -1.364979294364    -1.402012349294     1.007825032230
         H           -0.224969474448    -1.967108294364     0.990925650706     1.007825032230
         H           -1.020816474448    -0.589135294364     1.769698650706     1.007825032230
         H           -1.951654474448    -1.688066294364     0.749879650706     1.007825032230
         H           -1.868326474448     1.380930705636     0.352995650706     1.007825032230
         H           -2.779511474448     0.253882705636    -0.654428349294     1.007825032230
         H           -1.623130474448     1.367720705636    -1.401818349294     1.007825032230

  Basis Set: AUG-CC-PVTZ
    Blend: AUG-CC-PVTZ
  Basis Set: (AUG-CC-PVTZ AUX)
    Blend: AUG-CC-PVTZ-JKFIT
	 Reference Energy          =    -235.4272901864124776 [Eh]
	 Singles Energy            =      -0.0000000000000000 [Eh]
	 Same-Spin Energy          =      -0.2545215050631591 [Eh]
	 Opposite-Spin Energy      =      -0.9546714437289383 [Eh]
	 Correlation Energy        =      -1.2091929487920974 [Eh]
	 Total Energy              =    -236.6364831352045712 [Eh]

	 ================> DF-SCS-MP2 Energies <==================
	-----------------------------------------------------------
	 SCS Same-Spin Scale       =       0.3333333333333333 [-]
	 SCS Opposite-Spin Scale   =       1.2000000000000000 [-]
	 SCS Same-Spin Energy      =      -0.0848405016877197 [Eh]
	 SCS Opposite-Spin Energy  =      -1.1456057324747260 [Eh]
	 SCS Correlation Energy    =      -1.2304462341624456 [Eh]
	 SCS Total Energy          =    -236.6577364205749348 [Eh]
	-----------------------------------------------------------

  Dipole Moment: [D]
     X:     0.0099      Y:     0.1330      Z:     0.0402     Total:     0.1393

*** Psi4 exiting successfully. Buy a developer a beer!
