                               Psi4 1.3.2 release

  ==> Input File <==

--------------------------------------------------------------------------
#psi4
#
memory 32 gb

molecule  {
0 1
  O        1.6031800    -0.7324980    -0.0000110
  O        0.6173340     1.3294240    -0.0000320
  N       -0.5665743    -0.4753348    -0.0001532
  C       -1.9301110     0.0126390     0.0000390
  C        0.5210560     0.1088720     0.0000320
  H       -0.5391190    -1.6216620     0.0000690
  H       -2.5003300    -0.2657770    -0.8906260
  H       -1.7714790     1.0904060    -0.0008230
  H       -2.4997010    -0.2644210     0.8915380
  H        2.3761990    -0.1366920    -0.0000490
units angstrom
no_reorient  #important for SAPT in psi4, default
symmetry c1  #important for SAPT in psi4, default
}

set PROPERTIES_ORIGIN ["COM"]
properties('MP2/aug-cc-pvtz', properties = ['dipole'])
--------------------------------------------------------------------------

    Molecular point group: c1
  Charge       = 0
  Multiplicity = 1
  Basis Set: AUG-CC-PVTZ
    Blend: AUG-CC-PVTZ
  Basis Set: (AUG-CC-PVTZ AUX)
    Blend: AUG-CC-PVTZ-JKFIT

    Orbital Energies [Eh]
    ---------------------

    Doubly Occupied:

       1A    -20.605181     2A    -20.505571     3A    -15.608442
       4A    -11.388052     5A    -11.276847     6A     -1.460451
       7A     -1.343450     8A     -1.258969     9A     -0.995552
      10A     -0.797469    11A     -0.763706    12A     -0.688056
      13A     -0.670565    14A     -0.633029    15A     -0.596246
      16A     -0.594074    17A     -0.535551    18A     -0.493580
      19A     -0.442114    20A     -0.408218

  @DF-RHF Final Energy:  -282.93179634700334

   => Energetics <=

    Nuclear Repulsion Energy =            184.2319310524916318
    One-Electron Energy =                -752.1972094258530888
    Two-Electron Energy =                 285.0334820263581150
    Total Energy =                       -282.9317963470033419
  Basis Set: (AUG-CC-PVTZ AUX)
    Blend: AUG-CC-PVTZ-RI
    Molecular point group: c1

    Geometry (in Angstrom), charge = 0, multiplicity = 1:

       Center              X                  Y                   Z               Mass
    ------------   -----------------  -----------------  -----------------  -----------------
         O            1.527193144292    -0.774376682460     0.000013938675    15.994914619570
         O            0.541347144292     1.287545317540    -0.000007061325    15.994914619570
         N           -0.642561155708    -0.517213482460    -0.000128261325    14.003074004430
         C           -2.006097855708    -0.029239682460     0.000063938675    12.000000000000
         C            0.445069144292     0.066993317540     0.000056938675    12.000000000000
         H           -0.615105855708    -1.663540682460     0.000093938675     1.007825032230
         H           -2.576316855708    -0.307655682460    -0.890601061325     1.007825032230
         H           -1.847465855708     1.048527317540    -0.000798061325     1.007825032230
         H           -2.575687855708    -0.306299682460     0.891562938675     1.007825032230
         H            2.300212144292    -0.178570682460    -0.000024061325     1.007825032230

  Basis Set: AUG-CC-PVTZ
    Blend: AUG-CC-PVTZ
  Basis Set: (AUG-CC-PVTZ AUX)
    Blend: AUG-CC-PVTZ-JKFIT
	 Reference Energy          =    -282.9317963470033419 [Eh]
	 Singles Energy            =      -0.0000000000000000 [Eh]
	 Same-Spin Energy          =      -0.2736565887131269 [Eh]
	 Opposite-Spin Energy      =      -0.8419157349232926 [Eh]
	 Correlation Energy        =      -1.1155723236364197 [Eh]
	 Total Energy              =    -284.0473686706397416 [Eh]

	 ================> DF-SCS-MP2 Energies <==================
	-----------------------------------------------------------
	 SCS Same-Spin Scale       =       0.3333333333333333 [-]
	 SCS Opposite-Spin Scale   =       1.2000000000000000 [-]
	 SCS Same-Spin Energy      =      -0.0912188629043756 [Eh]
	 SCS Opposite-Spin Energy  =      -1.0102988819079510 [Eh]
	 SCS Correlation Energy    =      -1.1015177448123268 [Eh]
	 SCS Total Energy          =    -284.0333140918156687 [Eh]
	-----------------------------------------------------------

  Dipole Moment: [D]
     X:    -1.7899      Y:    -2.6372      Z:     0.0004     Total:     3.1873

*** Psi4 exiting successfully. Buy a developer a beer!
