                               Psi4 1.3.2 release

  ==> Input File <==

--------------------------------------------------------------------------
#psi4
#
memory 32 gb

molecule  {
0 1
  O        1.6031800    -0.7324980    -0.0000110
  O        0.6173340     1.3294240    -0.0000320
  N       -0.6250510    -0.6151900    -0.0000260
  C       -1.9707271    -0.0799267     0.0000526
  C        0.5210560     0.1088720     0.0000320
  H       -0.5391190    -1.6216620     0.0000690
  H       -2.5003300    -0.2657770    -0.8906260
  H       -1.7714790     1.0904060    -0.0008230
  H       -2.4997010    -0.2644210     0.8915380
  H        2.3761990    -0.1366920    -0.0000490
units angstrom
no_reorient  #important for SAPT in psi4, default
symmetry c1  #important for SAPT in psi4, default
}

set PROPERTIES_ORIGIN ["COM"]
properties('MP2/aug-cc-pvtz', properties = ['dipole'])
--------------------------------------------------------------------------

    Molecular point group: c1
  Charge       = 0
  Multiplicity = 1
  Basis Set: AUG-CC-PVTZ
    Blend: AUG-CC-PVTZ
  Basis Set: (AUG-CC-PVTZ AUX)
    Blend: AUG-CC-PVTZ-JKFIT

    Orbital Energies [Eh]
    ---------------------

    Doubly Occupied:

       1A    -20.612399     2A    -20.530371     3A    -15.596183
       4A    -11.411065     5A    -11.268273     6A     -1.459808
       7A     -1.348820     8A     -1.241393     9A     -0.970313
      10A     -0.818495    11A     -0.756712    12A     -0.696613
      13A     -0.662280    14A     -0.625299    15A     -0.611012
      16A     -0.604140    17A     -0.518617    18A     -0.493329
      19A     -0.458757    20A     -0.411490

  @DF-RHF Final Energy:  -282.95420743846159

   => Energetics <=

    Nuclear Repulsion Energy =            181.4277636197797108
    One-Electron Energy =                -746.5732057248461615
    Two-Electron Energy =                 282.1912346666048279
    Total Energy =                       -282.9542074384615944
  Basis Set: (AUG-CC-PVTZ AUX)
    Blend: AUG-CC-PVTZ-RI
    Molecular point group: c1

    Geometry (in Angstrom), charge = 0, multiplicity = 1:

       Center              X                  Y                   Z               Mass
    ------------   -----------------  -----------------  -----------------  -----------------
         O            1.544602333213    -0.733471602579    -0.000011975472    15.994914619570
         O            0.558756333213     1.328450397421    -0.000032975472    15.994914619570
         N           -0.683628666787    -0.616163602579    -0.000026975472    14.003074004430
         C           -2.029304766787    -0.080900302579     0.000051624528    12.000000000000
         C            0.462478333213     0.107898397421     0.000031024528    12.000000000000
         H           -0.597696666787    -1.622635602579     0.000068024528     1.007825032230
         H           -2.558907666787    -0.266750602579    -0.890626975472     1.007825032230
         H           -1.830056666787     1.089432397421    -0.000823975472     1.007825032230
         H           -2.558278666787    -0.265394602579     0.891537024528     1.007825032230
         H            2.317621333213    -0.137665602579    -0.000049975472     1.007825032230

  Basis Set: AUG-CC-PVTZ
    Blend: AUG-CC-PVTZ
  Basis Set: (AUG-CC-PVTZ AUX)
    Blend: AUG-CC-PVTZ-JKFIT
	 Reference Energy          =    -282.9542074384615944 [Eh]
	 Singles Energy            =      -0.0000000000000000 [Eh]
	 Same-Spin Energy          =      -0.2734043500416581 [Eh]
	 Opposite-Spin Energy      =      -0.8420341581204085 [Eh]
	 Correlation Energy        =      -1.1154385081620666 [Eh]
	 Total Energy              =    -284.0696459466236661 [Eh]

	 ================> DF-SCS-MP2 Energies <==================
	-----------------------------------------------------------
	 SCS Same-Spin Scale       =       0.3333333333333333 [-]
	 SCS Opposite-Spin Scale   =       1.2000000000000000 [-]
	 SCS Same-Spin Energy      =      -0.0911347833472194 [Eh]
	 SCS Opposite-Spin Energy  =      -1.0104409897444901 [Eh]
	 SCS Correlation Energy    =      -1.1015757730917095 [Eh]
	 SCS Total Energy          =    -284.0557832115533188 [Eh]
	-----------------------------------------------------------

  Dipole Moment: [D]
     X:    -1.1975      Y:    -2.1956      Z:     0.0002     Total:     2.5009

*** Psi4 exiting successfully. Buy a developer a beer!
