                               Psi4 1.3.2 release

  ==> Input File <==

--------------------------------------------------------------------------
#psi4
#
memory 32 gb

molecule  {
0 1
  O        1.6031800    -0.7324980    -0.0000110
  O        0.6173340     1.3294240    -0.0000320
  N       -0.6250510    -0.6151900    -0.0000260
  C       -1.9189551     0.0353198     0.0000356
  C        0.5210560     0.1088720     0.0000320
  H       -0.5391190    -1.6216620     0.0000690
  H       -2.5003300    -0.2657770    -0.8906260
  H       -1.7714790     1.0904060    -0.0008230
  H       -2.4997010    -0.2644210     0.8915380
  H        2.3761990    -0.1366920    -0.0000490
units angstrom
no_reorient  #important for SAPT in psi4, default
symmetry c1  #important for SAPT in psi4, default
}

set PROPERTIES_ORIGIN ["COM"]
properties('MP2/aug-cc-pvtz', properties = ['dipole'])
--------------------------------------------------------------------------

    Molecular point group: c1
  Charge       = 0
  Multiplicity = 1
  Basis Set: AUG-CC-PVTZ
    Blend: AUG-CC-PVTZ
  Basis Set: (AUG-CC-PVTZ AUX)
    Blend: AUG-CC-PVTZ-JKFIT

    Orbital Energies [Eh]
    ---------------------

    Doubly Occupied:

       1A    -20.611353     2A    -20.530151     3A    -15.596031
       4A    -11.408845     5A    -11.267505     6A     -1.459430
       7A     -1.348941     8A     -1.242285     9A     -0.967678
      10A     -0.820594    11A     -0.757082    12A     -0.697105
      13A     -0.655040    14A     -0.619490    15A     -0.605996
      16A     -0.590412    17A     -0.562171    18A     -0.490711
      19A     -0.459206    20A     -0.405786

  @DF-RHF Final Energy:  -282.96472029435097

   => Energetics <=

    Nuclear Repulsion Energy =            181.9548963715514844
    One-Electron Energy =                -747.6476111691816868
    Two-Electron Energy =                 282.7279945032792057
    Total Energy =                       -282.9647202943509683
  Basis Set: (AUG-CC-PVTZ AUX)
    Blend: AUG-CC-PVTZ-RI
    Molecular point group: c1

    Geometry (in Angstrom), charge = 0, multiplicity = 1:

       Center              X                  Y                   Z               Mass
    ------------   -----------------  -----------------  -----------------  -----------------
         O            1.536322349142    -0.751903171462    -0.000009256634    15.994914619570
         O            0.550476349142     1.310018828538    -0.000030256634    15.994914619570
         N           -0.691908650858    -0.634595171462    -0.000024256634    14.003074004430
         C           -1.985812750858     0.015914628538     0.000037343366    12.000000000000
         C            0.454198349142     0.089466828538     0.000033743366    12.000000000000
         H           -0.605976650858    -1.641067171462     0.000070743366     1.007825032230
         H           -2.567187650858    -0.285182171462    -0.890624256634     1.007825032230
         H           -1.838336650858     1.071000828538    -0.000821256634     1.007825032230
         H           -2.566558650858    -0.283826171462     0.891539743366     1.007825032230
         H            2.309341349142    -0.156097171462    -0.000047256634     1.007825032230

  Basis Set: AUG-CC-PVTZ
    Blend: AUG-CC-PVTZ
  Basis Set: (AUG-CC-PVTZ AUX)
    Blend: AUG-CC-PVTZ-JKFIT
	 Reference Energy          =    -282.9647202943509683 [Eh]
	 Singles Energy            =      -0.0000000000000000 [Eh]
	 Same-Spin Energy          =      -0.2729444291252067 [Eh]
	 Opposite-Spin Energy      =      -0.8410112339360170 [Eh]
	 Correlation Energy        =      -1.1139556630612235 [Eh]
	 Total Energy              =    -284.0786759574122016 [Eh]

	 ================> DF-SCS-MP2 Energies <==================
	-----------------------------------------------------------
	 SCS Same-Spin Scale       =       0.3333333333333333 [-]
	 SCS Opposite-Spin Scale   =       1.2000000000000000 [-]
	 SCS Same-Spin Energy      =      -0.0909814763750689 [Eh]
	 SCS Opposite-Spin Energy  =      -1.0092134807232203 [Eh]
	 SCS Correlation Energy    =      -1.1001949570982892 [Eh]
	 SCS Total Energy          =    -284.0649152514492357 [Eh]
	-----------------------------------------------------------

  Dipole Moment: [D]
     X:    -1.1966      Y:    -2.1872      Z:     0.0001     Total:     2.4931

*** Psi4 exiting successfully. Buy a developer a beer!
