                               Psi4 1.3.2 release

  ==> Input File <==

--------------------------------------------------------------------------
#psi4
#
memory 32 gb

molecule  {
0 1
  O        1.6031800    -0.7324980    -0.0000110
  O        0.6173340     1.3294240    -0.0000320
  N       -0.6477569    -0.6603535     0.0000166
  C       -1.9301110     0.0126390     0.0000390
  C        0.5210560     0.1088720     0.0000320
  H       -0.5391190    -1.6216620     0.0000690
  H       -2.5003300    -0.2657770    -0.8906260
  H       -1.7714790     1.0904060    -0.0008230
  H       -2.4997010    -0.2644210     0.8915380
  H        2.3761990    -0.1366920    -0.0000490
units angstrom
no_reorient  #important for SAPT in psi4, default
symmetry c1  #important for SAPT in psi4, default
}

set PROPERTIES_ORIGIN ["COM"]
properties('MP2/aug-cc-pvtz', properties = ['dipole'])
--------------------------------------------------------------------------

    Molecular point group: c1
  Charge       = 0
  Multiplicity = 1
  Basis Set: AUG-CC-PVTZ
    Blend: AUG-CC-PVTZ
  Basis Set: (AUG-CC-PVTZ AUX)
    Blend: AUG-CC-PVTZ-JKFIT

    Orbital Energies [Eh]
    ---------------------

    Doubly Occupied:

       1A    -20.613877     2A    -20.537953     3A    -15.591264
       4A    -11.415731     5A    -11.265137     6A     -1.460178
       7A     -1.352184     8A     -1.236646     9A     -0.960958
      10A     -0.827746    11A     -0.753446    12A     -0.699849
      13A     -0.652580    14A     -0.622526    15A     -0.606814
      16A     -0.594888    17A     -0.554043    18A     -0.492005
      19A     -0.463657    20A     -0.405383

  @DF-RHF Final Energy:  -282.96091447773637

   => Energetics <=

    Nuclear Repulsion Energy =            181.0850081641644920
    One-Electron Energy =                -745.8781147934755609
    Two-Electron Energy =                 281.8321921515747022
    Total Energy =                       -282.9609144777363667
  Basis Set: (AUG-CC-PVTZ AUX)
    Blend: AUG-CC-PVTZ-RI
    Molecular point group: c1

    Geometry (in Angstrom), charge = 0, multiplicity = 1:

       Center              X                  Y                   Z               Mass
    ------------   -----------------  -----------------  -----------------  -----------------
         O            1.542344086894    -0.739847020882    -0.000017750752    15.994914619570
         O            0.556498086894     1.322074979118    -0.000038750752    15.994914619570
         N           -0.708592813106    -0.667702520882     0.000009849248    14.003074004430
         C           -1.990946913106     0.005289979118     0.000032249248    12.000000000000
         C            0.460220086894     0.101522979118     0.000025249248    12.000000000000
         H           -0.599954913106    -1.629011020882     0.000062249248     1.007825032230
         H           -2.561165913106    -0.273126020882    -0.890632750752     1.007825032230
         H           -1.832314913106     1.083056979118    -0.000829750752     1.007825032230
         H           -2.560536913106    -0.271770020882     0.891531249248     1.007825032230
         H            2.315363086894    -0.144041020882    -0.000055750752     1.007825032230

  Basis Set: AUG-CC-PVTZ
    Blend: AUG-CC-PVTZ
  Basis Set: (AUG-CC-PVTZ AUX)
    Blend: AUG-CC-PVTZ-JKFIT
	 Reference Energy          =    -282.9609144777363667 [Eh]
	 Singles Energy            =      -0.0000000000000000 [Eh]
	 Same-Spin Energy          =      -0.2729972637668577 [Eh]
	 Opposite-Spin Energy      =      -0.8415364972956484 [Eh]
	 Correlation Energy        =      -1.1145337610625061 [Eh]
	 Total Energy              =    -284.0754482387988560 [Eh]

	 ================> DF-SCS-MP2 Energies <==================
	-----------------------------------------------------------
	 SCS Same-Spin Scale       =       0.3333333333333333 [-]
	 SCS Opposite-Spin Scale   =       1.2000000000000000 [-]
	 SCS Same-Spin Energy      =      -0.0909990879222859 [Eh]
	 SCS Opposite-Spin Energy  =      -1.0098437967547780 [Eh]
	 SCS Correlation Energy    =      -1.1008428846770639 [Eh]
	 SCS Total Energy          =    -284.0617573624134025 [Eh]
	-----------------------------------------------------------

  Dipole Moment: [D]
     X:    -1.0064      Y:    -2.0155      Z:     0.0001     Total:     2.2528

*** Psi4 exiting successfully. Buy a developer a beer!
