                               Psi4 1.3.2 release

  ==> Input File <==

--------------------------------------------------------------------------
#psi4
#
memory 32 gb

molecule  {
0 1
  O        1.6031800    -0.7324980    -0.0000110
  O        0.6173340     1.3294240    -0.0000320
  N       -0.6362069    -0.6378708    -0.0000047
  C       -1.9301110     0.0126390     0.0000390
  C        0.5210560     0.1088720     0.0000320
  H       -0.5391190    -1.6216620     0.0000690
  H       -2.5003300    -0.2657770    -0.8906260
  H       -1.7714790     1.0904060    -0.0008230
  H       -2.4997010    -0.2644210     0.8915380
  H        2.3761990    -0.1366920    -0.0000490
units angstrom
no_reorient  #important for SAPT in psi4, default
symmetry c1  #important for SAPT in psi4, default
}

set PROPERTIES_ORIGIN ["COM"]
properties('MP2/aug-cc-pvtz', properties = ['dipole'])
--------------------------------------------------------------------------

    Molecular point group: c1
  Charge       = 0
  Multiplicity = 1
  Basis Set: AUG-CC-PVTZ
    Blend: AUG-CC-PVTZ
  Basis Set: (AUG-CC-PVTZ AUX)
    Blend: AUG-CC-PVTZ-JKFIT

    Orbital Energies [Eh]
    ---------------------

    Doubly Occupied:

       1A    -20.612687     2A    -20.534078     3A    -15.593590
       4A    -11.412536     5A    -11.266109     6A     -1.459761
       7A     -1.350473     8A     -1.239200     9A     -0.964234
      10A     -0.823824    11A     -0.755324    12A     -0.698326
      13A     -0.654231    14A     -0.620820    15A     -0.606225
      16A     -0.594844    17A     -0.554838    18A     -0.491560
      19A     -0.461449    20A     -0.406277

  @DF-RHF Final Energy:  -282.96412569952344

   => Energetics <=

    Nuclear Repulsion Energy =            181.4612397980982337
    One-Electron Energy =                -746.6499570118777456
    Two-Electron Energy =                 282.2245915142560193
    Total Energy =                       -282.9641256995234357
  Basis Set: (AUG-CC-PVTZ AUX)
    Blend: AUG-CC-PVTZ-RI
    Molecular point group: c1

    Geometry (in Angstrom), charge = 0, multiplicity = 1:

       Center              X                  Y                   Z               Mass
    ------------   -----------------  -----------------  -----------------  -----------------
         O            1.540188534016    -0.744042921201    -0.000013775577    15.994914619570
         O            0.554342534016     1.317879078799    -0.000034775577    15.994914619570
         N           -0.699198365984    -0.649415721201    -0.000007475577    14.003074004430
         C           -1.993102465984     0.001094078799     0.000036224423    12.000000000000
         C            0.458064534016     0.097327078799     0.000029224423    12.000000000000
         H           -0.602110465984    -1.633206921201     0.000066224423     1.007825032230
         H           -2.563321465984    -0.277321921201    -0.890628775577     1.007825032230
         H           -1.834470465984     1.078861078799    -0.000825775577     1.007825032230
         H           -2.562692465984    -0.275965921201     0.891535224423     1.007825032230
         H            2.313207534016    -0.148236921201    -0.000051775577     1.007825032230

  Basis Set: AUG-CC-PVTZ
    Blend: AUG-CC-PVTZ
  Basis Set: (AUG-CC-PVTZ AUX)
    Blend: AUG-CC-PVTZ-JKFIT
	 Reference Energy          =    -282.9641256995234357 [Eh]
	 Singles Energy            =      -0.0000000000000000 [Eh]
	 Same-Spin Energy          =      -0.2729756356984325 [Eh]
	 Opposite-Spin Energy      =      -0.8412522974964268 [Eh]
	 Correlation Energy        =      -1.1142279331948592 [Eh]
	 Total Energy              =    -284.0783536327182901 [Eh]

	 ================> DF-SCS-MP2 Energies <==================
	-----------------------------------------------------------
	 SCS Same-Spin Scale       =       0.3333333333333333 [-]
	 SCS Opposite-Spin Scale   =       1.2000000000000000 [-]
	 SCS Same-Spin Energy      =      -0.0909918785661442 [Eh]
	 SCS Opposite-Spin Energy  =      -1.0095027569957122 [Eh]
	 SCS Correlation Energy    =      -1.1004946355618563 [Eh]
	 SCS Total Energy          =    -284.0646203350852943 [Eh]
	-----------------------------------------------------------

  Dipole Moment: [D]
     X:    -1.1038      Y:    -2.1022      Z:     0.0001     Total:     2.3744

*** Psi4 exiting successfully. Buy a developer a beer!
