                               Psi4 1.3.2 release

  ==> Input File <==

--------------------------------------------------------------------------
#psi4
#
memory 32 gb

molecule  {
0 1
  O        1.6031800    -0.7324980    -0.0000110
  O        0.6173340     1.3294240    -0.0000320
  N       -0.6250510    -0.6151900    -0.0000260
  C       -1.8831368     0.1021460     0.0000251
  C        0.5210560     0.1088720     0.0000320
  H       -0.5391190    -1.6216620     0.0000690
  H       -2.5003300    -0.2657770    -0.8906260
  H       -1.7714790     1.0904060    -0.0008230
  H       -2.4997010    -0.2644210     0.8915380
  H        2.3761990    -0.1366920    -0.0000490
units angstrom
no_reorient  #important for SAPT in psi4, default
symmetry c1  #important for SAPT in psi4, default
}

set PROPERTIES_ORIGIN ["COM"]
properties('MP2/aug-cc-pvtz', properties = ['dipole'])
--------------------------------------------------------------------------

    Molecular point group: c1
  Charge       = 0
  Multiplicity = 1
  Basis Set: AUG-CC-PVTZ
    Blend: AUG-CC-PVTZ
  Basis Set: (AUG-CC-PVTZ AUX)
    Blend: AUG-CC-PVTZ-JKFIT

    Orbital Energies [Eh]
    ---------------------

    Doubly Occupied:

       1A    -20.611059     2A    -20.530534     3A    -15.597067
       4A    -11.408007     5A    -11.269572     6A     -1.459650
       7A     -1.349524     8A     -1.243706     9A     -0.968047
      10A     -0.824455    11A     -0.756943    12A     -0.698968
      13A     -0.653082    14A     -0.625332    15A     -0.607917
      16A     -0.577149    17A     -0.575041    18A     -0.488916
      19A     -0.459880    20A     -0.401506

  @DF-RHF Final Energy:  -282.95256878414551

   => Energetics <=

    Nuclear Repulsion Energy =            182.3150193603928244
    One-Electron Energy =                -748.3224690681718130
    Two-Electron Energy =                 283.0548809236334478
    Total Energy =                       -282.9525687841455124
  Basis Set: (AUG-CC-PVTZ AUX)
    Blend: AUG-CC-PVTZ-RI
    Molecular point group: c1

    Geometry (in Angstrom), charge = 0, multiplicity = 1:

       Center              X                  Y                   Z               Mass
    ------------   -----------------  -----------------  -----------------  -----------------
         O            1.530593867464    -0.762590799360    -0.000007577351    15.994914619570
         O            0.544747867464     1.299331200640    -0.000028577351    15.994914619570
         N           -0.697637132536    -0.645282799360    -0.000022577351    14.003074004430
         C           -1.955722932536     0.072053200640     0.000028522649    12.000000000000
         C            0.448469867464     0.078779200640     0.000035422649    12.000000000000
         H           -0.611705132536    -1.651754799360     0.000072422649     1.007825032230
         H           -2.572916132536    -0.295869799360    -0.890622577351     1.007825032230
         H           -1.844065132536     1.060313200640    -0.000819577351     1.007825032230
         H           -2.572287132536    -0.294513799360     0.891541422649     1.007825032230
         H            2.303612867464    -0.166784799360    -0.000045577351     1.007825032230

  Basis Set: AUG-CC-PVTZ
    Blend: AUG-CC-PVTZ
  Basis Set: (AUG-CC-PVTZ AUX)
    Blend: AUG-CC-PVTZ-JKFIT
	 Reference Energy          =    -282.9525687841455124 [Eh]
	 Singles Energy            =      -0.0000000000000000 [Eh]
	 Same-Spin Energy          =      -0.2730081711573223 [Eh]
	 Opposite-Spin Energy      =      -0.8413716583206932 [Eh]
	 Correlation Energy        =      -1.1143798294780156 [Eh]
	 Total Energy              =    -284.0669486136235378 [Eh]

	 ================> DF-SCS-MP2 Energies <==================
	-----------------------------------------------------------
	 SCS Same-Spin Scale       =       0.3333333333333333 [-]
	 SCS Opposite-Spin Scale   =       1.2000000000000000 [-]
	 SCS Same-Spin Energy      =      -0.0910027237191074 [Eh]
	 SCS Opposite-Spin Energy  =      -1.0096459899848318 [Eh]
	 SCS Correlation Energy    =      -1.1006487137039391 [Eh]
	 SCS Total Energy          =    -284.0532174978494595 [Eh]
	-----------------------------------------------------------

  Dipole Moment: [D]
     X:    -1.1625      Y:    -2.1940      Z:     0.0002     Total:     2.4829

*** Psi4 exiting successfully. Buy a developer a beer!
