                               Psi4 1.3.2 release

  ==> Input File <==

--------------------------------------------------------------------------
#psi4
#
memory 32 gb

molecule  {
0 1
  O        1.6031800    -0.7324980    -0.0000110
  O        0.6173340     1.3294240    -0.0000320
  N       -0.6250510    -0.6151900    -0.0000260
  C       -1.9301110     0.0126390     0.0000390
  C        0.5210560     0.1088720     0.0000320
  H       -0.5391190    -1.6216620     0.0000690
  H       -2.5003300    -0.2657770    -0.8906260
  H       -1.7714790     1.0904060    -0.0008230
  H       -2.4997010    -0.2644210     0.8915380
  H        2.3761990    -0.1366920    -0.0000490
units angstrom
no_reorient  #important for SAPT in psi4, default
symmetry c1  #important for SAPT in psi4, default
}

set PROPERTIES_ORIGIN ["COM"]
properties('MP2/aug-cc-pvtz', properties = ['dipole'])
--------------------------------------------------------------------------

    Molecular point group: c1
  Charge       = 0
  Multiplicity = 1
  Basis Set: AUG-CC-PVTZ
    Blend: AUG-CC-PVTZ
  Basis Set: (AUG-CC-PVTZ AUX)
    Blend: AUG-CC-PVTZ-JKFIT

    Orbital Energies [Eh]
    ---------------------

    Doubly Occupied:

       1A    -20.611510     2A    -20.530113     3A    -15.595882
       4A    -11.409212     5A    -11.267235     6A     -1.459436
       7A     -1.348836     8A     -1.241959     9A     -0.967947
      10A     -0.819757    11A     -0.757068    12A     -0.696792
      13A     -0.656046    14A     -0.620205    15A     -0.605195
      16A     -0.594853    17A     -0.554686    18A     -0.491267
      19A     -0.459061    20A     -0.407053

  @DF-RHF Final Energy:  -282.96537478273649

   => Energetics <=

    Nuclear Repulsion Energy =            181.8432651811102403
    One-Electron Energy =                -747.4290507716382308
    Two-Electron Energy =                 282.6204108077914725
    Total Energy =                       -282.9653747827364896
  Basis Set: (AUG-CC-PVTZ AUX)
    Blend: AUG-CC-PVTZ-RI
    Molecular point group: c1

    Geometry (in Angstrom), charge = 0, multiplicity = 1:

       Center              X                  Y                   Z               Mass
    ------------   -----------------  -----------------  -----------------  -----------------
         O            1.538106531216    -0.748275792518    -0.000009800401    15.994914619570
         O            0.552260531216     1.313646207482    -0.000030800401    15.994914619570
         N           -0.690124468784    -0.630967792518    -0.000024800401    14.003074004430
         C           -1.995184468784    -0.003138792518     0.000040199599    12.000000000000
         C            0.455982531216     0.093094207482     0.000033199599    12.000000000000
         H           -0.604192468784    -1.637439792518     0.000070199599     1.007825032230
         H           -2.565403468784    -0.281554792518    -0.890624800401     1.007825032230
         H           -1.836552468784     1.074628207482    -0.000821800401     1.007825032230
         H           -2.564774468784    -0.280198792518     0.891539199599     1.007825032230
         H            2.311125531216    -0.152469792518    -0.000047800401     1.007825032230

  Basis Set: AUG-CC-PVTZ
    Blend: AUG-CC-PVTZ
  Basis Set: (AUG-CC-PVTZ AUX)
    Blend: AUG-CC-PVTZ-JKFIT
	 Reference Energy          =    -282.9653747827364896 [Eh]
	 Singles Energy            =      -0.0000000000000000 [Eh]
	 Same-Spin Energy          =      -0.2729816586062064 [Eh]
	 Opposite-Spin Energy      =      -0.8410599524432010 [Eh]
	 Correlation Energy        =      -1.1140416110494074 [Eh]
	 Total Energy              =    -284.0794163937858912 [Eh]

	 ================> DF-SCS-MP2 Energies <==================
	-----------------------------------------------------------
	 SCS Same-Spin Scale       =       0.3333333333333333 [-]
	 SCS Opposite-Spin Scale   =       1.2000000000000000 [-]
	 SCS Same-Spin Energy      =      -0.0909938862020688 [Eh]
	 SCS Opposite-Spin Energy  =      -1.0092719429318411 [Eh]
	 SCS Correlation Energy    =      -1.1002658291339098 [Eh]
	 SCS Total Energy          =    -284.0656406118703785 [Eh]
	-----------------------------------------------------------

  Dipole Moment: [D]
     X:    -1.2022      Y:    -2.1873      Z:     0.0001     Total:     2.4959

*** Psi4 exiting successfully. Buy a developer a beer!
