                               Psi4 1.3.2 release

  ==> Input File <==

--------------------------------------------------------------------------
#psi4
#
memory 32 gb

molecule  {
0 1
  O        1.6031800    -0.7324980    -0.0000110
  O        0.6173340     1.3294240    -0.0000320
  N       -0.6039351    -0.5692616    -0.0000686
  C       -1.9301110     0.0126390     0.0000390
  C        0.5210560     0.1088720     0.0000320
  H       -0.5391190    -1.6216620     0.0000690
  H       -2.5003300    -0.2657770    -0.8906260
  H       -1.7714790     1.0904060    -0.0008230
  H       -2.4997010    -0.2644210     0.8915380
  H        2.3761990    -0.1366920    -0.0000490
units angstrom
no_reorient  #important for SAPT in psi4, default
symmetry c1  #important for SAPT in psi4, default
}

set PROPERTIES_ORIGIN ["COM"]
properties('MP2/aug-cc-pvtz', properties = ['dipole'])
--------------------------------------------------------------------------

    Molecular point group: c1
  Charge       = 0
  Multiplicity = 1
  Basis Set: AUG-CC-PVTZ
    Blend: AUG-CC-PVTZ
  Basis Set: (AUG-CC-PVTZ AUX)
    Blend: AUG-CC-PVTZ-JKFIT

    Orbital Energies [Eh]
    ---------------------

    Doubly Occupied:

       1A    -20.609230     2A    -20.521989     3A    -15.600317
       4A    -11.402281     5A    -11.269924     6A     -1.459130
       7A     -1.345963     8A     -1.247858     9A     -0.976394
      10A     -0.811546    11A     -0.760111    12A     -0.693739
      13A     -0.660188    14A     -0.622242    15A     -0.601819
      16A     -0.595045    17A     -0.551494    18A     -0.491216
      19A     -0.453840    20A     -0.408155

  @DF-RHF Final Energy:  -282.96198056908560

   => Energetics <=

    Nuclear Repulsion Energy =            182.6232366135337486
    One-Electron Energy =                -749.0054706968846858
    Two-Electron Energy =                 283.4202535142653119
    Total Energy =                       -282.9619805690855969
  Basis Set: (AUG-CC-PVTZ AUX)
    Blend: AUG-CC-PVTZ-RI
    Molecular point group: c1

    Geometry (in Angstrom), charge = 0, multiplicity = 1:

       Center              X                  Y                   Z               Mass
    ------------   -----------------  -----------------  -----------------  -----------------
         O            1.534165713985    -0.756847315876    -0.000001850050    15.994914619570
         O            0.548319713985     1.305074684124    -0.000022850050    15.994914619570
         N           -0.672949386015    -0.593610915876    -0.000059450050    14.003074004430
         C           -1.999125286015    -0.011710315876     0.000048149950    12.000000000000
         C            0.452041713985     0.084522684124     0.000041149950    12.000000000000
         H           -0.608133286015    -1.646011315876     0.000078149950     1.007825032230
         H           -2.569344286015    -0.290126315876    -0.890616850050     1.007825032230
         H           -1.840493286015     1.066056684124    -0.000813850050     1.007825032230
         H           -2.568715286015    -0.288770315876     0.891547149950     1.007825032230
         H            2.307184713985    -0.161041315876    -0.000039850050     1.007825032230

  Basis Set: AUG-CC-PVTZ
    Blend: AUG-CC-PVTZ
  Basis Set: (AUG-CC-PVTZ AUX)
    Blend: AUG-CC-PVTZ-JKFIT
	 Reference Energy          =    -282.9619805690855969 [Eh]
	 Singles Energy            =      -0.0000000000000000 [Eh]
	 Same-Spin Energy          =      -0.2730802430026326 [Eh]
	 Opposite-Spin Energy      =      -0.8409586843697976 [Eh]
	 Correlation Energy        =      -1.1140389273724303 [Eh]
	 Total Energy              =    -284.0760194964580023 [Eh]

	 ================> DF-SCS-MP2 Energies <==================
	-----------------------------------------------------------
	 SCS Same-Spin Scale       =       0.3333333333333333 [-]
	 SCS Opposite-Spin Scale   =       1.2000000000000000 [-]
	 SCS Same-Spin Energy      =      -0.0910267476675442 [Eh]
	 SCS Opposite-Spin Energy  =      -1.0091504212437570 [Eh]
	 SCS Correlation Energy    =      -1.1001771689113011 [Eh]
	 SCS Total Energy          =    -284.0621577379968699 [Eh]
	-----------------------------------------------------------

  Dipole Moment: [D]
     X:    -1.4003      Y:    -2.3511      Z:     0.0002     Total:     2.7365

*** Psi4 exiting successfully. Buy a developer a beer!
