                               Psi4 1.3.2 release

  ==> Input File <==

--------------------------------------------------------------------------
#psi4
#
memory 32 gb

molecule  {
0 1
  O        1.6031800    -0.7324980    -0.0000110
  O        0.6173340     1.3294240    -0.0000320
  N       -0.5844349    -0.5226243    -0.0001110
  C       -1.9301110     0.0126390     0.0000390
  C        0.5210560     0.1088720     0.0000320
  H       -0.5391190    -1.6216620     0.0000690
  H       -2.5003300    -0.2657770    -0.8906260
  H       -1.7714790     1.0904060    -0.0008230
  H       -2.4997010    -0.2644210     0.8915380
  H        2.3761990    -0.1366920    -0.0000490
units angstrom
no_reorient  #important for SAPT in psi4, default
symmetry c1  #important for SAPT in psi4, default
}

set PROPERTIES_ORIGIN ["COM"]
properties('MP2/aug-cc-pvtz', properties = ['dipole'])
--------------------------------------------------------------------------

    Molecular point group: c1
  Charge       = 0
  Multiplicity = 1
  Basis Set: AUG-CC-PVTZ
    Blend: AUG-CC-PVTZ
  Basis Set: (AUG-CC-PVTZ AUX)
    Blend: AUG-CC-PVTZ-JKFIT

    Orbital Energies [Eh]
    ---------------------

    Doubly Occupied:

       1A    -20.607101     2A    -20.513745     3A    -15.604507
       4A    -11.395150     5A    -11.273148     6A     -1.459415
       7A     -1.343998     8A     -1.253767     9A     -0.985749
      10A     -0.803851    11A     -0.762423    12A     -0.690791
      13A     -0.665027    14A     -0.627051    15A     -0.597835
      16A     -0.595496    17A     -0.544850    18A     -0.491976
      19A     -0.448154    20A     -0.408553

  @DF-RHF Final Energy:  -282.95075697848893

   => Energetics <=

    Nuclear Repulsion Energy =            183.4211634196535101
    One-Electron Energy =                -750.5986673438569596
    Two-Electron Energy =                 284.2267469457144671
    Total Energy =                       -282.9507569784889256
  Basis Set: (AUG-CC-PVTZ AUX)
    Blend: AUG-CC-PVTZ-RI
    Molecular point group: c1

    Geometry (in Angstrom), charge = 0, multiplicity = 1:

       Center              X                  Y                   Z               Mass
    ------------   -----------------  -----------------  -----------------  -----------------
         O            1.530526431541    -0.765551139792     0.000006062975    15.994914619570
         O            0.544680431541     1.296370860208    -0.000014937025    15.994914619570
         N           -0.657088468459    -0.555677439792    -0.000093937025    14.003074004430
         C           -2.002764568459    -0.020414139792     0.000056062975    12.000000000000
         C            0.448402431541     0.075818860208     0.000049062975    12.000000000000
         H           -0.611772568459    -1.654715139792     0.000086062975     1.007825032230
         H           -2.572983568459    -0.298830139792    -0.890608937025     1.007825032230
         H           -1.844132568459     1.057352860208    -0.000805937025     1.007825032230
         H           -2.572354568459    -0.297474139792     0.891555062975     1.007825032230
         H            2.303545431541    -0.169745139792    -0.000031937025     1.007825032230

  Basis Set: AUG-CC-PVTZ
    Blend: AUG-CC-PVTZ
  Basis Set: (AUG-CC-PVTZ AUX)
    Blend: AUG-CC-PVTZ-JKFIT
	 Reference Energy          =    -282.9507569784889256 [Eh]
	 Singles Energy            =      -0.0000000000000000 [Eh]
	 Same-Spin Energy          =      -0.2733014469873814 [Eh]
	 Opposite-Spin Energy      =      -0.8412424878663052 [Eh]
	 Correlation Energy        =      -1.1145439348536865 [Eh]
	 Total Energy              =    -284.0653009133426394 [Eh]

	 ================> DF-SCS-MP2 Energies <==================
	-----------------------------------------------------------
	 SCS Same-Spin Scale       =       0.3333333333333333 [-]
	 SCS Opposite-Spin Scale   =       1.2000000000000000 [-]
	 SCS Same-Spin Energy      =      -0.0911004823291271 [Eh]
	 SCS Opposite-Spin Energy  =      -1.0094909854395662 [Eh]
	 SCS Correlation Energy    =      -1.1005914677686932 [Eh]
	 SCS Total Energy          =    -284.0513484462576344 [Eh]
	-----------------------------------------------------------

  Dipole Moment: [D]
     X:    -1.5975      Y:    -2.5028      Z:     0.0003     Total:     2.9692

*** Psi4 exiting successfully. Buy a developer a beer!
