                               Psi4 1.3.2 release

  ==> Input File <==

--------------------------------------------------------------------------
#psi4
#
memory 32 gb

molecule  {
0 1
  O        1.6031800    -0.7324980    -0.0000110
  O        0.6173340     1.3294240    -0.0000320
  N       -0.6720252    -0.7046970     0.0000593
  C       -1.9301110     0.0126390     0.0000390
  C        0.5210560     0.1088720     0.0000320
  H       -0.5391190    -1.6216620     0.0000690
  H       -2.5003300    -0.2657770    -0.8906260
  H       -1.7714790     1.0904060    -0.0008230
  H       -2.4997010    -0.2644210     0.8915380
  H        2.3761990    -0.1366920    -0.0000490
units angstrom
no_reorient  #important for SAPT in psi4, default
symmetry c1  #important for SAPT in psi4, default
}

set PROPERTIES_ORIGIN ["COM"]
properties('MP2/aug-cc-pvtz', properties = ['dipole'])
--------------------------------------------------------------------------

    Molecular point group: c1
  Charge       = 0
  Multiplicity = 1
  Basis Set: AUG-CC-PVTZ
    Blend: AUG-CC-PVTZ
  Basis Set: (AUG-CC-PVTZ AUX)
    Blend: AUG-CC-PVTZ-JKFIT

    Orbital Energies [Eh]
    ---------------------

    Doubly Occupied:

       1A    -20.616265     2A    -20.545369     3A    -15.586572
       4A    -11.421647     5A    -11.263681     6A     -1.461214
       7A     -1.355682     8A     -1.232314     9A     -0.956008
      10A     -0.834815    11A     -0.749320    12A     -0.702812
      13A     -0.649742    14A     -0.628060    15A     -0.607526
      16A     -0.595131    17A     -0.550001    18A     -0.493249
      19A     -0.467405    20A     -0.403345

  @DF-RHF Final Energy:  -282.94864010429148

   => Energetics <=

    Nuclear Repulsion Energy =            180.3508895197688560
    One-Electron Energy =                -744.3587444916540790
    Two-Electron Energy =                 281.0592148675937096
    Total Energy =                       -282.9486401042914849
  Basis Set: (AUG-CC-PVTZ AUX)
    Blend: AUG-CC-PVTZ-RI
    Molecular point group: c1

    Geometry (in Angstrom), charge = 0, multiplicity = 1:

       Center              X                  Y                   Z               Mass
    ------------   -----------------  -----------------  -----------------  -----------------
         O            1.546873230089    -0.731571284169    -0.000025719766    15.994914619570
         O            0.561027230089     1.330350715831    -0.000046719766    15.994914619570
         N           -0.728331969911    -0.703770284169     0.000044580234    14.003074004430
         C           -1.986417769911     0.013565715831     0.000024280234    12.000000000000
         C            0.464749230089     0.109798715831     0.000017280234    12.000000000000
         H           -0.595425769911    -1.620735284169     0.000054280234     1.007825032230
         H           -2.556636769911    -0.264850284169    -0.890640719766     1.007825032230
         H           -1.827785769911     1.091332715831    -0.000837719766     1.007825032230
         H           -2.556007769911    -0.263494284169     0.891523280234     1.007825032230
         H            2.319892230089    -0.135765284169    -0.000063719766     1.007825032230

  Basis Set: AUG-CC-PVTZ
    Blend: AUG-CC-PVTZ
  Basis Set: (AUG-CC-PVTZ AUX)
    Blend: AUG-CC-PVTZ-JKFIT
	 Reference Energy          =    -282.9486401042914849 [Eh]
	 Singles Energy            =      -0.0000000000000000 [Eh]
	 Same-Spin Energy          =      -0.2731202096051507 [Eh]
	 Opposite-Spin Energy      =      -0.8423686073241143 [Eh]
	 Correlation Energy        =      -1.1154888169292652 [Eh]
	 Total Energy              =    -284.0641289212207425 [Eh]

	 ================> DF-SCS-MP2 Energies <==================
	-----------------------------------------------------------
	 SCS Same-Spin Scale       =       0.3333333333333333 [-]
	 SCS Opposite-Spin Scale   =       1.2000000000000000 [-]
	 SCS Same-Spin Energy      =      -0.0910400698683836 [Eh]
	 SCS Opposite-Spin Energy  =      -1.0108423287889372 [Eh]
	 SCS Correlation Energy    =      -1.1018823986573207 [Eh]
	 SCS Total Energy          =    -284.0505225029488088 [Eh]
	-----------------------------------------------------------

  Dipole Moment: [D]
     X:    -0.8155      Y:    -1.8387      Z:    -0.0000     Total:     2.0114

*** Psi4 exiting successfully. Buy a developer a beer!
