                               Psi4 1.3.2 release

  ==> Input File <==

--------------------------------------------------------------------------
#psi4
#
memory 32 gb

molecule  {
0 1
  O        1.6031800    -0.7324980    -0.0000110
  O        0.6173340     1.3294240    -0.0000320
  N       -0.6250510    -0.6151900    -0.0000260
  C       -1.9074051     0.0578025     0.0000321
  C        0.5210560     0.1088720     0.0000320
  H       -0.5391190    -1.6216620     0.0000690
  H       -2.5003300    -0.2657770    -0.8906260
  H       -1.7714790     1.0904060    -0.0008230
  H       -2.4997010    -0.2644210     0.8915380
  H        2.3761990    -0.1366920    -0.0000490
units angstrom
no_reorient  #important for SAPT in psi4, default
symmetry c1  #important for SAPT in psi4, default
}

set PROPERTIES_ORIGIN ["COM"]
properties('MP2/aug-cc-pvtz', properties = ['dipole'])
--------------------------------------------------------------------------

    Molecular point group: c1
  Charge       = 0
  Multiplicity = 1
  Basis Set: AUG-CC-PVTZ
    Blend: AUG-CC-PVTZ
  Basis Set: (AUG-CC-PVTZ AUX)
    Blend: AUG-CC-PVTZ-JKFIT

    Orbital Energies [Eh]
    ---------------------

    Doubly Occupied:

       1A    -20.611225     2A    -20.530232     3A    -15.596277
       4A    -11.408520     5A    -11.267985     6A     -1.459463
       7A     -1.349089     8A     -1.242685     9A     -0.967587
      10A     -0.821656    11A     -0.757062    12A     -0.697556
      13A     -0.654222    14A     -0.619687    15A     -0.606950
      16A     -0.585940    17A     -0.568293    18A     -0.490134
      19A     -0.459389    20A     -0.404443

  @DF-RHF Final Energy:  -282.96244682628719

   => Energetics <=

    Nuclear Repulsion Energy =            182.0704695242181401
    One-Electron Energy =                -747.8690416586987340
    Two-Electron Energy =                 282.8361253081933455
    Total Energy =                       -282.9624468262871915
  Basis Set: (AUG-CC-PVTZ AUX)
    Blend: AUG-CC-PVTZ-RI
    Molecular point group: c1

    Geometry (in Angstrom), charge = 0, multiplicity = 1:

       Center              X                  Y                   Z               Mass
    ------------   -----------------  -----------------  -----------------  -----------------
         O            1.534475137985    -0.755498867937    -0.000008696873    15.994914619570
         O            0.548629137985     1.306423132063    -0.000029696873    15.994914619570
         N           -0.693755862015    -0.638190867937    -0.000023696873    14.003074004430
         C           -1.976109962015     0.034801632063     0.000034403127    12.000000000000
         C            0.452351137985     0.085871132063     0.000034303127    12.000000000000
         H           -0.607823862015    -1.644662867937     0.000071303127     1.007825032230
         H           -2.569034862015    -0.288777867937    -0.890623696873     1.007825032230
         H           -1.840183862015     1.067405132063    -0.000820696873     1.007825032230
         H           -2.568405862015    -0.287421867937     0.891540303127     1.007825032230
         H            2.307494137985    -0.159692867937    -0.000046696873     1.007825032230

  Basis Set: AUG-CC-PVTZ
    Blend: AUG-CC-PVTZ
  Basis Set: (AUG-CC-PVTZ AUX)
    Blend: AUG-CC-PVTZ-JKFIT
	 Reference Energy          =    -282.9624468262871915 [Eh]
	 Singles Energy            =      -0.0000000000000000 [Eh]
	 Same-Spin Energy          =      -0.2729359743622913 [Eh]
	 Opposite-Spin Energy      =      -0.8410454225954375 [Eh]
	 Correlation Energy        =      -1.1139813969577288 [Eh]
	 Total Energy              =    -284.0764282232449318 [Eh]

	 ================> DF-SCS-MP2 Energies <==================
	-----------------------------------------------------------
	 SCS Same-Spin Scale       =       0.3333333333333333 [-]
	 SCS Opposite-Spin Scale   =       1.2000000000000000 [-]
	 SCS Same-Spin Energy      =      -0.0909786581207638 [Eh]
	 SCS Opposite-Spin Energy  =      -1.0092545071145249 [Eh]
	 SCS Correlation Energy    =      -1.1002331652352886 [Eh]
	 SCS Total Energy          =    -284.0626799915224865 [Eh]
	-----------------------------------------------------------

  Dipole Moment: [D]
     X:    -1.1882      Y:    -2.1882      Z:     0.0002     Total:     2.4899

*** Psi4 exiting successfully. Buy a developer a beer!
