                               Psi4 1.3.2 release

  ==> Input File <==

--------------------------------------------------------------------------
#psi4
#
memory 32 gb

molecule  {
0 1
  O        1.6031800    -0.7324980    -0.0000110
  O        0.6173340     1.3294240    -0.0000320
  N       -0.6250510    -0.6151900    -0.0000260
  C       -1.8573357     0.1456156     0.0000181
  C        0.5210560     0.1088720     0.0000320
  H       -0.5391190    -1.6216620     0.0000690
  H       -2.5003300    -0.2657770    -0.8906260
  H       -1.7714790     1.0904060    -0.0008230
  H       -2.4997010    -0.2644210     0.8915380
  H        2.3761990    -0.1366920    -0.0000490
units angstrom
no_reorient  #important for SAPT in psi4, default
symmetry c1  #important for SAPT in psi4, default
}

set PROPERTIES_ORIGIN ["COM"]
properties('MP2/aug-cc-pvtz', properties = ['dipole'])
--------------------------------------------------------------------------

    Molecular point group: c1
  Charge       = 0
  Multiplicity = 1
  Basis Set: AUG-CC-PVTZ
    Blend: AUG-CC-PVTZ
  Basis Set: (AUG-CC-PVTZ AUX)
    Blend: AUG-CC-PVTZ-JKFIT

    Orbital Energies [Eh]
    ---------------------

    Doubly Occupied:

       1A    -20.611021     2A    -20.531033     3A    -15.598268
       4A    -11.407689     5A    -11.271999     6A     -1.460010
       7A     -1.350157     8A     -1.245015     9A     -0.969556
      10A     -0.828089    11A     -0.756829    12A     -0.701270
      13A     -0.652502    14A     -0.637125    15A     -0.607490
      16A     -0.574865    17A     -0.568919    18A     -0.487610
      19A     -0.460557    20A     -0.398187

  @DF-RHF Final Energy:  -282.93480690776005

   => Energetics <=

    Nuclear Repulsion Energy =            182.5798439189409805
    One-Electron Energy =                -748.7929145971152138
    Two-Electron Energy =                 283.2782637704142417
    Total Energy =                       -282.9348069077600485
  Basis Set: (AUG-CC-PVTZ AUX)
    Blend: AUG-CC-PVTZ-RI
    Molecular point group: c1

    Geometry (in Angstrom), charge = 0, multiplicity = 1:

       Center              X                  Y                   Z               Mass
    ------------   -----------------  -----------------  -----------------  -----------------
         O            1.526467453630    -0.769542966469    -0.000006457829    15.994914619570
         O            0.540621453630     1.292379033531    -0.000027457829    15.994914619570
         N           -0.701763546370    -0.652234966469    -0.000021457829    14.003074004430
         C           -1.934048246370     0.108570633531     0.000022642171    12.000000000000
         C            0.444343453630     0.071827033531     0.000036542171    12.000000000000
         H           -0.615831546370    -1.658706966469     0.000073542171     1.007825032230
         H           -2.577042546370    -0.302821966469    -0.890621457829     1.007825032230
         H           -1.848191546370     1.053361033531    -0.000818457829     1.007825032230
         H           -2.576413546370    -0.301465966469     0.891542542171     1.007825032230
         H            2.299486453630    -0.173736966469    -0.000044457829     1.007825032230

  Basis Set: AUG-CC-PVTZ
    Blend: AUG-CC-PVTZ
  Basis Set: (AUG-CC-PVTZ AUX)
    Blend: AUG-CC-PVTZ-JKFIT
	 Reference Energy          =    -282.9348069077600485 [Eh]
	 Singles Energy            =      -0.0000000000000000 [Eh]
	 Same-Spin Energy          =      -0.2732035412696190 [Eh]
	 Opposite-Spin Energy      =      -0.8420560467691325 [Eh]
	 Correlation Energy        =      -1.1152595880387515 [Eh]
	 Total Energy              =    -284.0500664957987738 [Eh]

	 ================> DF-SCS-MP2 Energies <==================
	-----------------------------------------------------------
	 SCS Same-Spin Scale       =       0.3333333333333333 [-]
	 SCS Opposite-Spin Scale   =       1.2000000000000000 [-]
	 SCS Same-Spin Energy      =      -0.0910678470898730 [Eh]
	 SCS Opposite-Spin Energy  =      -1.0104672561229588 [Eh]
	 SCS Correlation Energy    =      -1.1015351032128318 [Eh]
	 SCS Total Energy          =    -284.0363420109728736 [Eh]
	-----------------------------------------------------------

  Dipole Moment: [D]
     X:    -1.1246      Y:    -2.2052      Z:     0.0002     Total:     2.4754

*** Psi4 exiting successfully. Buy a developer a beer!
