                               Psi4 1.3.2 release

  ==> Input File <==

--------------------------------------------------------------------------
#psi4
#
memory 32 gb

molecule  {
0 1
  O        1.6031800    -0.7324980    -0.0000110
  O        0.6173340     1.3294240    -0.0000320
  N       -0.6250510    -0.6151900    -0.0000260
  C       -1.9512269    -0.0332894     0.0000458
  C        0.5210560     0.1088720     0.0000320
  H       -0.5391190    -1.6216620     0.0000690
  H       -2.5003300    -0.2657770    -0.8906260
  H       -1.7714790     1.0904060    -0.0008230
  H       -2.4997010    -0.2644210     0.8915380
  H        2.3761990    -0.1366920    -0.0000490
units angstrom
no_reorient  #important for SAPT in psi4, default
symmetry c1  #important for SAPT in psi4, default
}

set PROPERTIES_ORIGIN ["COM"]
properties('MP2/aug-cc-pvtz', properties = ['dipole'])
--------------------------------------------------------------------------

    Molecular point group: c1
  Charge       = 0
  Multiplicity = 1
  Basis Set: AUG-CC-PVTZ
    Blend: AUG-CC-PVTZ
  Basis Set: (AUG-CC-PVTZ AUX)
    Blend: AUG-CC-PVTZ-JKFIT

    Orbital Energies [Eh]
    ---------------------

    Doubly Occupied:

       1A    -20.611905     2A    -20.530163     3A    -15.595861
       4A    -11.410067     5A    -11.267330     6A     -1.459555
       7A     -1.348751     8A     -1.241529     9A     -0.968918
      10A     -0.818736    11A     -0.756938    12A     -0.696514
      13A     -0.658698    14A     -0.622656    15A     -0.604337
      16A     -0.603379    17A     -0.537315    18A     -0.492326
      19A     -0.458866    20A     -0.409387

  @DF-RHF Final Energy:  -282.96230648307846

   => Energetics <=

    Nuclear Repulsion Energy =            181.6301671196754910
    One-Electron Energy =                -746.9984888531149636
    Two-Electron Energy =                 282.4060152503609515
    Total Energy =                       -282.9623064830784642
  Basis Set: (AUG-CC-PVTZ AUX)
    Blend: AUG-CC-PVTZ-RI
    Molecular point group: c1

    Geometry (in Angstrom), charge = 0, multiplicity = 1:

       Center              X                  Y                   Z               Mass
    ------------   -----------------  -----------------  -----------------  -----------------
         O            1.541483633040    -0.740930385340    -0.000010887937    15.994914619570
         O            0.555637633040     1.320991614660    -0.000031887937    15.994914619570
         N           -0.686747366960    -0.623622385340    -0.000025887937    14.003074004430
         C           -2.012923266960    -0.041721785340     0.000045912063    12.000000000000
         C            0.459359633040     0.100439614660     0.000032112063    12.000000000000
         H           -0.600815366960    -1.630094385340     0.000069112063     1.007825032230
         H           -2.562026366960    -0.274209385340    -0.890625887937     1.007825032230
         H           -1.833175366960     1.081973614660    -0.000822887937     1.007825032230
         H           -2.561397366960    -0.272853385340     0.891538112063     1.007825032230
         H            2.314502633040    -0.145124385340    -0.000048887937     1.007825032230

  Basis Set: AUG-CC-PVTZ
    Blend: AUG-CC-PVTZ
  Basis Set: (AUG-CC-PVTZ AUX)
    Blend: AUG-CC-PVTZ-JKFIT
	 Reference Energy          =    -282.9623064830784642 [Eh]
	 Singles Energy            =      -0.0000000000000000 [Eh]
	 Same-Spin Energy          =      -0.2731395921871246 [Eh]
	 Opposite-Spin Energy      =      -0.8413962513379846 [Eh]
	 Correlation Energy        =      -1.1145358435251091 [Eh]
	 Total Energy              =    -284.0768423266035825 [Eh]

	 ================> DF-SCS-MP2 Energies <==================
	-----------------------------------------------------------
	 SCS Same-Spin Scale       =       0.3333333333333333 [-]
	 SCS Opposite-Spin Scale   =       1.2000000000000000 [-]
	 SCS Same-Spin Energy      =      -0.0910465307290415 [Eh]
	 SCS Opposite-Spin Energy  =      -1.0096755016055814 [Eh]
	 SCS Correlation Energy    =      -1.1007220323346230 [Eh]
	 SCS Total Energy          =    -284.0630285154130661 [Eh]
	-----------------------------------------------------------

  Dipole Moment: [D]
     X:    -1.2051      Y:    -2.1903      Z:     0.0001     Total:     2.5000

*** Psi4 exiting successfully. Buy a developer a beer!
