                               Psi4 1.3.2 release

  ==> Input File <==

--------------------------------------------------------------------------
#psi4
#
memory 32 gb

molecule  {
0 1
  O        1.6031800    -0.7324980    -0.0000110
  O        0.6173340     1.3294240    -0.0000320
  N       -0.6250510    -0.6151900    -0.0000260
  C       -1.9885877    -0.1272162     0.0000592
  C        0.5210560     0.1088720     0.0000320
  H       -0.5391190    -1.6216620     0.0000690
  H       -2.5003300    -0.2657770    -0.8906260
  H       -1.7714790     1.0904060    -0.0008230
  H       -2.4997010    -0.2644210     0.8915380
  H        2.3761990    -0.1366920    -0.0000490
units angstrom
no_reorient  #important for SAPT in psi4, default
symmetry c1  #important for SAPT in psi4, default
}

set PROPERTIES_ORIGIN ["COM"]
properties('MP2/aug-cc-pvtz', properties = ['dipole'])
--------------------------------------------------------------------------

    Molecular point group: c1
  Charge       = 0
  Multiplicity = 1
  Basis Set: AUG-CC-PVTZ
    Blend: AUG-CC-PVTZ
  Basis Set: (AUG-CC-PVTZ AUX)
    Blend: AUG-CC-PVTZ-JKFIT

    Orbital Energies [Eh]
    ---------------------

    Doubly Occupied:

       1A    -20.612981     2A    -20.530728     3A    -15.596810
       4A    -11.412188     5A    -11.270050     6A     -1.460180
       7A     -1.349030     8A     -1.241539     9A     -0.971974
      10A     -0.818895    11A     -0.756466    12A     -0.697001
      13A     -0.666739    14A     -0.627596    15A     -0.617384
      16A     -0.604281    17A     -0.499903    18A     -0.494289
      19A     -0.458631    20A     -0.413394

  @DF-RHF Final Energy:  -282.94204720519519

   => Energetics <=

    Nuclear Repulsion Energy =            181.2326118945798044
    One-Electron Energy =                -746.1491987656623905
    Two-Electron Energy =                 281.9745396658873915
    Total Energy =                       -282.9420472051951947
  Basis Set: (AUG-CC-PVTZ AUX)
    Blend: AUG-CC-PVTZ-RI
    Molecular point group: c1

    Geometry (in Angstrom), charge = 0, multiplicity = 1:

       Center              X                  Y                   Z               Mass
    ------------   -----------------  -----------------  -----------------  -----------------
         O            1.547458809368    -0.725908512362    -0.000013031022    15.994914619570
         O            0.561612809368     1.336013487638    -0.000034031022    15.994914619570
         N           -0.680772190632    -0.608600512362    -0.000028031022    14.003074004430
         C           -2.044308890632    -0.120626712362     0.000057168978    12.000000000000
         C            0.465334809368     0.115461487638     0.000029968978    12.000000000000
         H           -0.594840190632    -1.615072512362     0.000066968978     1.007825032230
         H           -2.556051190632    -0.259187512362    -0.890628031022     1.007825032230
         H           -1.827200190632     1.096995487638    -0.000825031022     1.007825032230
         H           -2.555422190632    -0.257831512362     0.891535968978     1.007825032230
         H            2.320477809368    -0.130102512362    -0.000051031022     1.007825032230

  Basis Set: AUG-CC-PVTZ
    Blend: AUG-CC-PVTZ
  Basis Set: (AUG-CC-PVTZ AUX)
    Blend: AUG-CC-PVTZ-JKFIT
	 Reference Energy          =    -282.9420472051951947 [Eh]
	 Singles Energy            =      -0.0000000000000000 [Eh]
	 Same-Spin Energy          =      -0.2737715114178536 [Eh]
	 Opposite-Spin Energy      =      -0.8429565150806988 [Eh]
	 Correlation Energy        =      -1.1167280264985524 [Eh]
	 Total Energy              =    -284.0587752316937440 [Eh]

	 ================> DF-SCS-MP2 Energies <==================
	-----------------------------------------------------------
	 SCS Same-Spin Scale       =       0.3333333333333333 [-]
	 SCS Opposite-Spin Scale   =       1.2000000000000000 [-]
	 SCS Same-Spin Energy      =      -0.0912571704726178 [Eh]
	 SCS Opposite-Spin Energy  =      -1.0115478180968385 [Eh]
	 SCS Correlation Energy    =      -1.1028049885694564 [Eh]
	 SCS Total Energy          =    -284.0448521937646547 [Eh]
	-----------------------------------------------------------

  Dipole Moment: [D]
     X:    -1.1800      Y:    -2.2009      Z:     0.0002     Total:     2.4972

*** Psi4 exiting successfully. Buy a developer a beer!
