                               Psi4 1.3.2 release

  ==> Input File <==

--------------------------------------------------------------------------
#psi4
#
memory 32 gb

molecule  {
0 1
  O        1.6031800    -0.7324980    -0.0000110
  O        0.6173340     1.3294240    -0.0000320
  N       -0.6142926    -0.5923179    -0.0000473
  C       -1.9301110     0.0126390     0.0000390
  C        0.5210560     0.1088720     0.0000320
  H       -0.5391190    -1.6216620     0.0000690
  H       -2.5003300    -0.2657770    -0.8906260
  H       -1.7714790     1.0904060    -0.0008230
  H       -2.4997010    -0.2644210     0.8915380
  H        2.3761990    -0.1366920    -0.0000490
units angstrom
no_reorient  #important for SAPT in psi4, default
symmetry c1  #important for SAPT in psi4, default
}

set PROPERTIES_ORIGIN ["COM"]
properties('MP2/aug-cc-pvtz', properties = ['dipole'])
--------------------------------------------------------------------------

    Molecular point group: c1
  Charge       = 0
  Multiplicity = 1
  Basis Set: AUG-CC-PVTZ
    Blend: AUG-CC-PVTZ
  Basis Set: (AUG-CC-PVTZ AUX)
    Blend: AUG-CC-PVTZ-JKFIT

    Orbital Energies [Eh]
    ---------------------

    Doubly Occupied:

       1A    -20.610355     2A    -20.526077     3A    -15.598128
       4A    -11.405785     5A    -11.268510     6A     -1.459219
       7A     -1.347316     8A     -1.244867     9A     -0.972025
      10A     -0.815634    11A     -0.758669    12A     -0.695259
      13A     -0.658031    14A     -0.620745    15A     -0.603673
      16A     -0.594919    17A     -0.553561    18A     -0.491146
      19A     -0.456518    20A     -0.407685

  @DF-RHF Final Energy:  -282.96465928783368

   => Energetics <=

    Nuclear Repulsion Energy =            182.2307410124800526
    One-Electron Energy =                -748.2145586355632076
    Two-Electron Energy =                 283.0191583352494717
    Total Energy =                       -282.9646592878336833
  Basis Set: (AUG-CC-PVTZ AUX)
    Blend: AUG-CC-PVTZ-RI
    Molecular point group: c1

    Geometry (in Angstrom), charge = 0, multiplicity = 1:

       Center              X                  Y                   Z               Mass
    ------------   -----------------  -----------------  -----------------  -----------------
         O            1.536098713027    -0.752544365762    -0.000005825226    15.994914619570
         O            0.550252713027     1.309377634238    -0.000026825226    15.994914619570
         N           -0.681373886973    -0.612364265762    -0.000042125226    14.003074004430
         C           -1.997192286973    -0.007407365762     0.000044174774    12.000000000000
         C            0.453974713027     0.088825634238     0.000037174774    12.000000000000
         H           -0.606200286973    -1.641708365762     0.000074174774     1.007825032230
         H           -2.567411286973    -0.285823365762    -0.890620825226     1.007825032230
         H           -1.838560286973     1.070359634238    -0.000817825226     1.007825032230
         H           -2.566782286973    -0.284467365762     0.891543174774     1.007825032230
         H            2.309117713027    -0.156738365762    -0.000043825226     1.007825032230

  Basis Set: AUG-CC-PVTZ
    Blend: AUG-CC-PVTZ
  Basis Set: (AUG-CC-PVTZ AUX)
    Blend: AUG-CC-PVTZ-JKFIT
	 Reference Energy          =    -282.9646592878336833 [Eh]
	 Singles Energy            =      -0.0000000000000000 [Eh]
	 Same-Spin Energy          =      -0.2730162041323824 [Eh]
	 Opposite-Spin Energy      =      -0.8409615917018940 [Eh]
	 Correlation Energy        =      -1.1139777958342765 [Eh]
	 Total Energy              =    -284.0786370836679566 [Eh]

	 ================> DF-SCS-MP2 Energies <==================
	-----------------------------------------------------------
	 SCS Same-Spin Scale       =       0.3333333333333333 [-]
	 SCS Opposite-Spin Scale   =       1.2000000000000000 [-]
	 SCS Same-Spin Energy      =      -0.0910054013774608 [Eh]
	 SCS Opposite-Spin Energy  =      -1.0091539100422728 [Eh]
	 SCS Correlation Energy    =      -1.1001593114197337 [Eh]
	 SCS Total Energy          =    -284.0648185992534422 [Eh]
	-----------------------------------------------------------

  Dipole Moment: [D]
     X:    -1.3011      Y:    -2.2704      Z:     0.0002     Total:     2.6168

*** Psi4 exiting successfully. Buy a developer a beer!
