                               Psi4 1.3.2 release

  ==> Input File <==

--------------------------------------------------------------------------
#psi4
#
memory 32 gb

molecule  {
0 1
  O        1.6031800    -0.7324980    -0.0000110
  O        0.6173340     1.3294240    -0.0000320
  N       -0.6978262    -0.7481666     0.0001019
  C       -1.9301110     0.0126390     0.0000390
  C        0.5210560     0.1088720     0.0000320
  H       -0.5391190    -1.6216620     0.0000690
  H       -2.5003300    -0.2657770    -0.8906260
  H       -1.7714790     1.0904060    -0.0008230
  H       -2.4997010    -0.2644210     0.8915380
  H        2.3761990    -0.1366920    -0.0000490
units angstrom
no_reorient  #important for SAPT in psi4, default
symmetry c1  #important for SAPT in psi4, default
}

set PROPERTIES_ORIGIN ["COM"]
properties('MP2/aug-cc-pvtz', properties = ['dipole'])
--------------------------------------------------------------------------

    Molecular point group: c1
  Charge       = 0
  Multiplicity = 1
  Basis Set: AUG-CC-PVTZ
    Blend: AUG-CC-PVTZ
  Basis Set: (AUG-CC-PVTZ AUX)
    Blend: AUG-CC-PVTZ-JKFIT

    Orbital Energies [Eh]
    ---------------------

    Doubly Occupied:

       1A    -20.618604     2A    -20.552241     3A    -15.581958
       4A    -11.426792     5A    -11.262916     6A     -1.462406
       7A     -1.359095     8A     -1.229187     9A     -0.953583
      10A     -0.840369    11A     -0.744758    12A     -0.705580
      13A     -0.647462    14A     -0.634909    15A     -0.608388
      16A     -0.595581    17A     -0.543669    18A     -0.494799
      19A     -0.469992    20A     -0.401157

  @DF-RHF Final Energy:  -282.92869586537677

   => Energetics <=

    Nuclear Repulsion Energy =            179.6419818734495095
    One-Electron Energy =                -742.8744630839630645
    Two-Electron Energy =                 280.3037853451368164
    Total Energy =                       -282.9286958653767670
  Basis Set: (AUG-CC-PVTZ AUX)
    Blend: AUG-CC-PVTZ-RI
    Molecular point group: c1

    Geometry (in Angstrom), charge = 0, multiplicity = 1:

       Center              X                  Y                   Z               Mass
    ------------   -----------------  -----------------  -----------------  -----------------
         O            1.551688417950    -0.723458641626    -0.000033670117    15.994914619570
         O            0.565842417950     1.338463358374    -0.000054670117    15.994914619570
         N           -0.749317782050    -0.739127241626     0.000079229883    14.003074004430
         C           -1.981602582050     0.021678358374     0.000016329883    12.000000000000
         C            0.469564417950     0.117911358374     0.000009329883    12.000000000000
         H           -0.590610582050    -1.612622641626     0.000046329883     1.007825032230
         H           -2.551821582050    -0.256737641626    -0.890648670117     1.007825032230
         H           -1.822970582050     1.099445358374    -0.000845670117     1.007825032230
         H           -2.551192582050    -0.255381641626     0.891515329883     1.007825032230
         H            2.324707417950    -0.127652641626    -0.000071670117     1.007825032230

  Basis Set: AUG-CC-PVTZ
    Blend: AUG-CC-PVTZ
  Basis Set: (AUG-CC-PVTZ AUX)
    Blend: AUG-CC-PVTZ-JKFIT
	 Reference Energy          =    -282.9286958653767670 [Eh]
	 Singles Energy            =      -0.0000000000000000 [Eh]
	 Same-Spin Energy          =      -0.2733438538906771 [Eh]
	 Opposite-Spin Energy      =      -0.8435269506961800 [Eh]
	 Correlation Energy        =      -1.1168708045868572 [Eh]
	 Total Energy              =    -284.0455666699636481 [Eh]

	 ================> DF-SCS-MP2 Energies <==================
	-----------------------------------------------------------
	 SCS Same-Spin Scale       =       0.3333333333333333 [-]
	 SCS Opposite-Spin Scale   =       1.2000000000000000 [-]
	 SCS Same-Spin Energy      =      -0.0911146179635590 [Eh]
	 SCS Opposite-Spin Energy  =      -1.0122323408354159 [Eh]
	 SCS Correlation Energy    =      -1.1033469587989750 [Eh]
	 SCS Total Energy          =    -284.0320428241757327 [Eh]
	-----------------------------------------------------------

  Dipole Moment: [D]
     X:    -0.6317      Y:    -1.6593      Z:    -0.0002     Total:     1.7755

*** Psi4 exiting successfully. Buy a developer a beer!
