                               Psi4 1.3.2 release

  ==> Input File <==

--------------------------------------------------------------------------
#psi4
#
memory 32 gb

molecule  {
0 1
  O        1.6031800    -0.7324980    -0.0000110
  O        0.6173340     1.3294240    -0.0000320
  N       -0.6250510    -0.6151900    -0.0000260
  C       -1.9408694    -0.0102331     0.0000424
  C        0.5210560     0.1088720     0.0000320
  H       -0.5391190    -1.6216620     0.0000690
  H       -2.5003300    -0.2657770    -0.8906260
  H       -1.7714790     1.0904060    -0.0008230
  H       -2.4997010    -0.2644210     0.8915380
  H        2.3761990    -0.1366920    -0.0000490
units angstrom
no_reorient  #important for SAPT in psi4, default
symmetry c1  #important for SAPT in psi4, default
}

set PROPERTIES_ORIGIN ["COM"]
properties('MP2/aug-cc-pvtz', properties = ['dipole'])
--------------------------------------------------------------------------

    Molecular point group: c1
  Charge       = 0
  Multiplicity = 1
  Basis Set: AUG-CC-PVTZ
    Blend: AUG-CC-PVTZ
  Basis Set: (AUG-CC-PVTZ AUX)
    Blend: AUG-CC-PVTZ-JKFIT

    Orbital Energies [Eh]
    ---------------------

    Doubly Occupied:

       1A    -20.611694     2A    -20.530117     3A    -15.595827
       4A    -11.409620     5A    -11.267177     6A     -1.459478
       7A     -1.348773     8A     -1.241707     9A     -0.968369
      10A     -0.819142    11A     -0.757019    12A     -0.696600
      13A     -0.657260    14A     -0.621346    15A     -0.604654
      16A     -0.599197    17A     -0.546284    18A     -0.491804
      19A     -0.458949    20A     -0.408251

  @DF-RHF Final Energy:  -282.96453002302331

   => Energetics <=

    Nuclear Repulsion Energy =            181.7351629681839142
    One-Electron Energy =                -747.2128492651370379
    Two-Electron Energy =                 282.5131562739298374
    Total Energy =                       -282.9645300230233147
  Basis Set: (AUG-CC-PVTZ AUX)
    Blend: AUG-CC-PVTZ-RI
    Molecular point group: c1

    Geometry (in Angstrom), charge = 0, multiplicity = 1:

       Center              X                  Y                   Z               Mass
    ------------   -----------------  -----------------  -----------------  -----------------
         O            1.539827140437    -0.744617818639    -0.000010344169    15.994914619570
         O            0.553981140437     1.317304181361    -0.000031344169    15.994914619570
         N           -0.688403859563    -0.627309818639    -0.000025344169    14.003074004430
         C           -2.004222259563    -0.022352918639     0.000043055831    12.000000000000
         C            0.457703140437     0.096752181361     0.000032655831    12.000000000000
         H           -0.602471859563    -1.633781818639     0.000069655831     1.007825032230
         H           -2.563682859563    -0.277896818639    -0.890625344169     1.007825032230
         H           -1.834831859563     1.078286181361    -0.000822344169     1.007825032230
         H           -2.563053859563    -0.276540818639     0.891538655831     1.007825032230
         H            2.312846140437    -0.148811818639    -0.000048344169     1.007825032230

  Basis Set: AUG-CC-PVTZ
    Blend: AUG-CC-PVTZ
  Basis Set: (AUG-CC-PVTZ AUX)
    Blend: AUG-CC-PVTZ-JKFIT
	 Reference Energy          =    -282.9645300230233147 [Eh]
	 Singles Energy            =      -0.0000000000000000 [Eh]
	 Same-Spin Energy          =      -0.2730469478012534 [Eh]
	 Opposite-Spin Energy      =      -0.8411891414034049 [Eh]
	 Correlation Energy        =      -1.1142360892046583 [Eh]
	 Total Energy              =    -284.0787661122279815 [Eh]

	 ================> DF-SCS-MP2 Energies <==================
	-----------------------------------------------------------
	 SCS Same-Spin Scale       =       0.3333333333333333 [-]
	 SCS Opposite-Spin Scale   =       1.2000000000000000 [-]
	 SCS Same-Spin Energy      =      -0.0910156492670845 [Eh]
	 SCS Opposite-Spin Energy  =      -1.0094269696840859 [Eh]
	 SCS Correlation Energy    =      -1.1004426189511702 [Eh]
	 SCS Total Energy          =    -284.0649726419744638 [Eh]
	-----------------------------------------------------------

  Dipole Moment: [D]
     X:    -1.2050      Y:    -2.1884      Z:     0.0001     Total:     2.4982

*** Psi4 exiting successfully. Buy a developer a beer!
