                               Psi4 1.3.2 release

  ==> Input File <==

--------------------------------------------------------------------------
#psi4
#
memory 32 gb

molecule  {
0 1
  O        2.1311420     1.3954640    -0.0176610
  N        1.0627510    -0.6484660    -0.0244750
  C       -0.3010510    -0.2870330    -0.0111410
  C       -0.7462090     1.0430900    -0.0008090
  C       -1.2331777    -1.3353744     0.2904199
  C       -2.1187510     1.2983570     0.0121880
  C       -2.6007710    -1.0606970     0.0034910
  C       -3.0516150     0.2608760     0.0143720
  C        2.1739960     0.1653740    -0.0182620
  C        3.4844190    -0.5970920     0.0337670
  H       -0.0265810     1.8504660    -0.0031070
  H       -0.8901320    -2.3671220    -0.0178770
  H        1.2400700    -1.6462960    -0.0274520
  H       -2.4575380     2.3317050     0.0202570
  H       -3.3108250    -1.8841690     0.0048350
  H       -4.1164700     0.4777890     0.0243200
  H        3.7138070    -0.8675720     1.0691040
  H        4.2730810     0.0577110    -0.3362890
  H        3.4596990    -1.5115770    -0.5654180
units angstrom
no_reorient  #important for SAPT in psi4, default
symmetry c1  #important for SAPT in psi4, default
}

set PROPERTIES_ORIGIN ["COM"]
properties('MP2/aug-cc-pvtz', properties = ['dipole'])
--------------------------------------------------------------------------

    Molecular point group: c1
  Charge       = 0
  Multiplicity = 1
  Basis Set: AUG-CC-PVTZ
    Blend: AUG-CC-PVTZ
  Basis Set: (AUG-CC-PVTZ AUX)
    Blend: AUG-CC-PVTZ-JKFIT

    Orbital Energies [Eh]
    ---------------------

    Doubly Occupied:

       1A    -20.530511     2A    -15.610551     3A    -11.367227
       4A    -11.298438     5A    -11.249661     6A    -11.247165
       7A    -11.245586     8A    -11.243276     9A    -11.230395
      10A    -11.227333    11A     -1.385317    12A     -1.259279
      13A     -1.141063    14A     -1.036065    15A     -1.014165
      16A     -0.984809    17A     -0.854254    18A     -0.834239
      19A     -0.777925    20A     -0.723695    21A     -0.681637
      22A     -0.670880    23A     -0.629789    24A     -0.616455
      25A     -0.606018    26A     -0.590989    27A     -0.577592
      28A     -0.567313    29A     -0.555599    30A     -0.516991
      31A     -0.502639    32A     -0.489894    33A     -0.441594
      34A     -0.428519    35A     -0.340242    36A     -0.309898

  @DF-RHF Final Energy:  -437.64525093645983

   => Energetics <=

    Nuclear Repulsion Energy =            483.2536260938537680
    One-Electron Energy =               -1552.2237453782011016
    Two-Electron Energy =                 631.3248683478874455
    Total Energy =                       -437.6452509364597745
  Basis Set: (AUG-CC-PVTZ AUX)
    Blend: AUG-CC-PVTZ-RI
    Molecular point group: c1

    Geometry (in Angstrom), charge = 0, multiplicity = 1:

       Center              X                  Y                   Z               Mass
    ------------   -----------------  -----------------  -----------------  -----------------
         O            2.144830167786     1.369529716421    -0.043076193688    15.994914619570
         N            1.076439167786    -0.674400283579    -0.049890193688    14.003074004430
         C           -0.287362832214    -0.312967283579    -0.036556193688    12.000000000000
         C           -0.732520832214     1.017155716421    -0.026224193688    12.000000000000
         C           -1.219489532214    -1.361308683579     0.265004706312    12.000000000000
         C           -2.105062832214     1.272422716421    -0.013227193688    12.000000000000
         C           -2.587082832214    -1.086631283579    -0.021924193688    12.000000000000
         C           -3.037926832214     0.234941716421    -0.011043193688    12.000000000000
         C            2.187684167786     0.139439716421    -0.043677193688    12.000000000000
         C            3.498107167786    -0.623026283579     0.008351806312    12.000000000000
         H           -0.012892832214     1.824531716421    -0.028522193688     1.007825032230
         H           -0.876443832214    -2.393056283579    -0.043292193688     1.007825032230
         H            1.253758167786    -1.672230283579    -0.052867193688     1.007825032230
         H           -2.443849832214     2.305770716421    -0.005158193688     1.007825032230
         H           -3.297136832214    -1.910103283579    -0.020580193688     1.007825032230
         H           -4.102781832214     0.451854716421    -0.001095193688     1.007825032230
         H            3.727495167786    -0.893506283579     1.043688806312     1.007825032230
         H            4.286769167786     0.031776716421    -0.361704193688     1.007825032230
         H            3.473387167786    -1.537511283579    -0.590833193688     1.007825032230

  Basis Set: AUG-CC-PVTZ
    Blend: AUG-CC-PVTZ
  Basis Set: (AUG-CC-PVTZ AUX)
    Blend: AUG-CC-PVTZ-JKFIT
	 Reference Energy          =    -437.6452509364598313 [Eh]
	 Singles Energy            =      -0.0000000000000000 [Eh]
	 Same-Spin Energy          =      -0.4684624636917160 [Eh]
	 Opposite-Spin Energy      =      -1.4603003701111401 [Eh]
	 Correlation Energy        =      -1.9287628338028560 [Eh]
	 Total Energy              =    -439.5740137702626953 [Eh]

	 ================> DF-SCS-MP2 Energies <==================
	-----------------------------------------------------------
	 SCS Same-Spin Scale       =       0.3333333333333333 [-]
	 SCS Opposite-Spin Scale   =       1.2000000000000000 [-]
	 SCS Same-Spin Energy      =      -0.1561541545639053 [Eh]
	 SCS Opposite-Spin Energy  =      -1.7523604441333680 [Eh]
	 SCS Correlation Energy    =      -1.9085145986972734 [Eh]
	 SCS Total Energy          =    -439.5537655351570834 [Eh]
	-----------------------------------------------------------

  Dipole Moment: [D]
     X:     0.0545      Y:    -3.2185      Z:    -0.1450     Total:     3.2223

*** Psi4 exiting successfully. Buy a developer a beer!
