                               Psi4 1.3.2 release

  ==> Input File <==

--------------------------------------------------------------------------
#psi4
#
memory 32 gb

molecule  {
0 1
  O        2.1311420     1.3954640    -0.0176610
  N        1.0627510    -0.6484660    -0.0244750
  C       -0.3010510    -0.2870330    -0.0111410
  C       -0.7462090     1.0430900    -0.0008090
  C       -1.2339858    -1.3348396     0.1904246
  C       -2.1187510     1.2983570     0.0121880
  C       -2.6007710    -1.0606970     0.0034910
  C       -3.0516150     0.2608760     0.0143720
  C        2.1739960     0.1653740    -0.0182620
  C        3.4844190    -0.5970920     0.0337670
  H       -0.0265810     1.8504660    -0.0031070
  H       -0.8901320    -2.3671220    -0.0178770
  H        1.2400700    -1.6462960    -0.0274520
  H       -2.4575380     2.3317050     0.0202570
  H       -3.3108250    -1.8841690     0.0048350
  H       -4.1164700     0.4777890     0.0243200
  H        3.7138070    -0.8675720     1.0691040
  H        4.2730810     0.0577110    -0.3362890
  H        3.4596990    -1.5115770    -0.5654180
units angstrom
no_reorient  #important for SAPT in psi4, default
symmetry c1  #important for SAPT in psi4, default
}

set PROPERTIES_ORIGIN ["COM"]
properties('MP2/aug-cc-pvtz', properties = ['dipole'])
--------------------------------------------------------------------------

    Molecular point group: c1
  Charge       = 0
  Multiplicity = 1
  Basis Set: AUG-CC-PVTZ
    Blend: AUG-CC-PVTZ
  Basis Set: (AUG-CC-PVTZ AUX)
    Blend: AUG-CC-PVTZ-JKFIT

    Orbital Energies [Eh]
    ---------------------

    Doubly Occupied:

       1A    -20.529829     2A    -15.609908     3A    -11.366696
       4A    -11.294592     5A    -11.246870     6A    -11.245817
       7A    -11.242251     8A    -11.240449     9A    -11.230516
      10A    -11.227369    11A     -1.384729    12A     -1.259078
      13A     -1.142257    14A     -1.036106    15A     -1.015997
      16A     -0.985226    17A     -0.855465    18A     -0.834798
      19A     -0.778327    20A     -0.724593    21A     -0.681330
      22A     -0.673330    23A     -0.629254    24A     -0.616507
      25A     -0.610054    26A     -0.590549    27A     -0.581271
      28A     -0.567071    29A     -0.556515    30A     -0.517912
      31A     -0.502584    32A     -0.494532    33A     -0.441934
      34A     -0.428511    35A     -0.340079    36A     -0.309786

  @DF-RHF Final Energy:  -437.66022817973897

   => Energetics <=

    Nuclear Repulsion Energy =            483.8078229500565044
    One-Electron Energy =               -1553.3519217819803089
    Two-Electron Energy =                 631.8838706521847826
    Total Energy =                       -437.6602281797389651
  Basis Set: (AUG-CC-PVTZ AUX)
    Blend: AUG-CC-PVTZ-RI
    Molecular point group: c1

    Geometry (in Angstrom), charge = 0, multiplicity = 1:

       Center              X                  Y                   Z               Mass
    ------------   -----------------  -----------------  -----------------  -----------------
         O            2.144901962513     1.369482202722    -0.034192224704    15.994914619570
         N            1.076510962513    -0.674447797278    -0.041006224704    14.003074004430
         C           -0.287291037487    -0.313014797278    -0.027672224704    12.000000000000
         C           -0.732449037487     1.017108202722    -0.017340224704    12.000000000000
         C           -1.220225837487    -1.360821397278     0.173893375296    12.000000000000
         C           -2.104991037487     1.272375202722    -0.004343224704    12.000000000000
         C           -2.587011037487    -1.086678797278    -0.013040224704    12.000000000000
         C           -3.037855037487     0.234894202722    -0.002159224704    12.000000000000
         C            2.187755962513     0.139392202722    -0.034793224704    12.000000000000
         C            3.498178962513    -0.623073797278     0.017235775296    12.000000000000
         H           -0.012821037487     1.824484202722    -0.019638224704     1.007825032230
         H           -0.876372037487    -2.393103797278    -0.034408224704     1.007825032230
         H            1.253829962513    -1.672277797278    -0.043983224704     1.007825032230
         H           -2.443778037487     2.305723202722     0.003725775296     1.007825032230
         H           -3.297065037487    -1.910150797278    -0.011696224704     1.007825032230
         H           -4.102710037487     0.451807202722     0.007788775296     1.007825032230
         H            3.727566962513    -0.893553797278     1.052572775296     1.007825032230
         H            4.286840962513     0.031729202722    -0.352820224704     1.007825032230
         H            3.473458962513    -1.537558797278    -0.581949224704     1.007825032230

  Basis Set: AUG-CC-PVTZ
    Blend: AUG-CC-PVTZ
  Basis Set: (AUG-CC-PVTZ AUX)
    Blend: AUG-CC-PVTZ-JKFIT
	 Reference Energy          =    -437.6602281797389651 [Eh]
	 Singles Energy            =      -0.0000000000000000 [Eh]
	 Same-Spin Energy          =      -0.4678746233650175 [Eh]
	 Opposite-Spin Energy      =      -1.4582123196157735 [Eh]
	 Correlation Energy        =      -1.9260869429807910 [Eh]
	 Total Energy              =    -439.5863151227197818 [Eh]

	 ================> DF-SCS-MP2 Energies <==================
	-----------------------------------------------------------
	 SCS Same-Spin Scale       =       0.3333333333333333 [-]
	 SCS Opposite-Spin Scale   =       1.2000000000000000 [-]
	 SCS Same-Spin Energy      =      -0.1559582077883391 [Eh]
	 SCS Opposite-Spin Energy  =      -1.7498547835389282 [Eh]
	 SCS Correlation Energy    =      -1.9058129913272674 [Eh]
	 SCS Total Energy          =    -439.5660411710662174 [Eh]
	-----------------------------------------------------------

  Dipole Moment: [D]
     X:     0.0552      Y:    -3.3367      Z:    -0.0730     Total:     3.3380

*** Psi4 exiting successfully. Buy a developer a beer!
