                               Psi4 1.3.2 release

  ==> Input File <==

--------------------------------------------------------------------------
#psi4
#
memory 32 gb

molecule  {
0 1
  O        2.1311420     1.3954640    -0.0176610
  N        1.0627510    -0.6484660    -0.0244750
  C       -0.3010510    -0.2870330    -0.0111410
  C       -0.7462090     1.0430900    -0.0008090
  C       -1.2356020    -1.3337700    -0.0095660
  C       -2.1187510     1.2983570     0.0121880
  C       -2.6007710    -1.0606970     0.0034910
  C       -3.0516150     0.2608760     0.0143720
  C        2.1739960     0.1653740    -0.0182620
  C        3.4844190    -0.5970920     0.0337670
  H       -0.0265810     1.8504660    -0.0031070
  H       -0.8901320    -2.3671220    -0.0178770
  H        1.2400700    -1.6462960    -0.0274520
  H       -2.4575380     2.3317050     0.0202570
  H       -3.3108250    -1.8841690     0.0048350
  H       -4.1164700     0.4777890     0.0243200
  H        3.7138070    -0.8675720     1.0691040
  H        4.2730810     0.0577110    -0.3362890
  H        3.4596990    -1.5115770    -0.5654180
units angstrom
no_reorient  #important for SAPT in psi4, default
symmetry c1  #important for SAPT in psi4, default
}

set PROPERTIES_ORIGIN ["COM"]
properties('MP2/aug-cc-pvtz', properties = ['dipole'])
--------------------------------------------------------------------------

    Molecular point group: c1
  Charge       = 0
  Multiplicity = 1
  Basis Set: AUG-CC-PVTZ
    Blend: AUG-CC-PVTZ
  Basis Set: (AUG-CC-PVTZ AUX)
    Blend: AUG-CC-PVTZ-JKFIT

    Orbital Energies [Eh]
    ---------------------

    Doubly Occupied:

       1A    -20.529304     2A    -15.609433     3A    -11.366279
       4A    -11.291380     5A    -11.246641     6A    -11.242609
       7A    -11.239442     8A    -11.238260     9A    -11.230721
      10A    -11.227503    11A     -1.384276    12A     -1.258957
      13A     -1.143353    14A     -1.036213    15A     -1.017501
      16A     -0.985528    17A     -0.856637    18A     -0.835291
      19A     -0.778747    20A     -0.725645    21A     -0.681257
      22A     -0.675680    23A     -0.628572    24A     -0.616899
      25A     -0.613545    26A     -0.590374    27A     -0.584109
      28A     -0.566958    29A     -0.557259    30A     -0.518508
      31A     -0.501517    32A     -0.499006    33A     -0.442312
      34A     -0.428436    35A     -0.340109    36A     -0.309784

  @DF-RHF Final Energy:  -437.67196162741476

   => Energetics <=

    Nuclear Repulsion Energy =            484.2600440122201917
    One-Electron Energy =               -1554.2679204605942687
    Two-Electron Energy =                 632.3359148209594878
    Total Energy =                       -437.6719616274147029
  Basis Set: (AUG-CC-PVTZ AUX)
    Blend: AUG-CC-PVTZ-RI
    Molecular point group: c1

    Geometry (in Angstrom), charge = 0, multiplicity = 1:

       Center              X                  Y                   Z               Mass
    ------------   -----------------  -----------------  -----------------  -----------------
         O            2.145045551969     1.369387175323    -0.016424286735    15.994914619570
         N            1.076654551969    -0.674542824677    -0.023238286735    14.003074004430
         C           -0.287147448031    -0.313109824677    -0.009904286735    12.000000000000
         C           -0.732305448031     1.017013175323     0.000427713265    12.000000000000
         C           -1.221698448031    -1.359846824677    -0.008329286735    12.000000000000
         C           -2.104847448031     1.272280175323     0.013424713265    12.000000000000
         C           -2.586867448031    -1.086773824677     0.004727713265    12.000000000000
         C           -3.037711448031     0.234799175323     0.015608713265    12.000000000000
         C            2.187899551969     0.139297175323    -0.017025286735    12.000000000000
         C            3.498322551969    -0.623168824677     0.035003713265    12.000000000000
         H           -0.012677448031     1.824389175323    -0.001870286735     1.007825032230
         H           -0.876228448031    -2.393198824677    -0.016640286735     1.007825032230
         H            1.253973551969    -1.672372824677    -0.026215286735     1.007825032230
         H           -2.443634448031     2.305628175323     0.021493713265     1.007825032230
         H           -3.296921448031    -1.910245824677     0.006071713265     1.007825032230
         H           -4.102566448031     0.451712175323     0.025556713265     1.007825032230
         H            3.727710551969    -0.893648824677     1.070340713265     1.007825032230
         H            4.286984551969     0.031634175323    -0.335052286735     1.007825032230
         H            3.473602551969    -1.537653824677    -0.564181286735     1.007825032230

  Basis Set: AUG-CC-PVTZ
    Blend: AUG-CC-PVTZ
  Basis Set: (AUG-CC-PVTZ AUX)
    Blend: AUG-CC-PVTZ-JKFIT
	 Reference Energy          =    -437.6719616274147597 [Eh]
	 Singles Energy            =      -0.0000000000000000 [Eh]
	 Same-Spin Energy          =      -0.4673537310442254 [Eh]
	 Opposite-Spin Energy      =      -1.4565144824737855 [Eh]
	 Correlation Energy        =      -1.9238682135180110 [Eh]
	 Total Energy              =    -439.5958298409327654 [Eh]

	 ================> DF-SCS-MP2 Energies <==================
	-----------------------------------------------------------
	 SCS Same-Spin Scale       =       0.3333333333333333 [-]
	 SCS Opposite-Spin Scale   =       1.2000000000000000 [-]
	 SCS Same-Spin Energy      =      -0.1557845770147418 [Eh]
	 SCS Opposite-Spin Energy  =      -1.7478173789685425 [Eh]
	 SCS Correlation Energy    =      -1.9036019559832842 [Eh]
	 SCS Total Energy          =    -439.5755635833980364 [Eh]
	-----------------------------------------------------------

  Dipole Moment: [D]
     X:     0.0570      Y:    -3.4341      Z:     0.0608     Total:     3.4351

*** Psi4 exiting successfully. Buy a developer a beer!
