                               Psi4 1.3.2 release

  ==> Input File <==

--------------------------------------------------------------------------
#psi4
#
memory 32 gb

molecule  {
0 1
  O        2.1311420     1.3954640    -0.0176610
  N        1.0627510    -0.6484660    -0.0244750
  C       -0.3010510    -0.2870330    -0.0111410
  C       -0.7462090     1.0430900    -0.0008090
  C       -1.2343898    -1.3345722     0.1404270
  C       -2.1187510     1.2983570     0.0121880
  C       -2.6007710    -1.0606970     0.0034910
  C       -3.0516150     0.2608760     0.0143720
  C        2.1739960     0.1653740    -0.0182620
  C        3.4844190    -0.5970920     0.0337670
  H       -0.0265810     1.8504660    -0.0031070
  H       -0.8901320    -2.3671220    -0.0178770
  H        1.2400700    -1.6462960    -0.0274520
  H       -2.4575380     2.3317050     0.0202570
  H       -3.3108250    -1.8841690     0.0048350
  H       -4.1164700     0.4777890     0.0243200
  H        3.7138070    -0.8675720     1.0691040
  H        4.2730810     0.0577110    -0.3362890
  H        3.4596990    -1.5115770    -0.5654180
units angstrom
no_reorient  #important for SAPT in psi4, default
symmetry c1  #important for SAPT in psi4, default
}

set PROPERTIES_ORIGIN ["COM"]
properties('MP2/aug-cc-pvtz', properties = ['dipole'])
--------------------------------------------------------------------------

    Molecular point group: c1
  Charge       = 0
  Multiplicity = 1
  Basis Set: AUG-CC-PVTZ
    Blend: AUG-CC-PVTZ
  Basis Set: (AUG-CC-PVTZ AUX)
    Blend: AUG-CC-PVTZ-JKFIT

    Orbital Energies [Eh]
    ---------------------

    Doubly Occupied:

       1A    -20.529594     2A    -15.609691     3A    -11.366512
       4A    -11.293194     5A    -11.246768     6A    -11.244418
       7A    -11.241027     8A    -11.239474     9A    -11.230584
      10A    -11.227405    11A     -1.384527    12A     -1.259017
      13A     -1.142714    14A     -1.036140    15A     -1.016645
      16A     -0.985356    17A     -0.855949    18A     -0.835000
      19A     -0.778496    20A     -0.725006    21A     -0.681264
      22A     -0.674318    23A     -0.629006    24A     -0.616604
      25A     -0.611551    26A     -0.590432    27A     -0.582542
      28A     -0.566986    29A     -0.556868    30A     -0.518178
      31A     -0.502374    32A     -0.496254    33A     -0.442073
      34A     -0.428491    35A     -0.340069    36A     -0.309768

  @DF-RHF Final Energy:  -437.66540219139137

   => Energetics <=

    Nuclear Repulsion Energy =            484.0054999822166337
    One-Electron Energy =               -1553.7532146339040082
    Two-Electron Energy =                 632.0823124602959524
    Total Energy =                       -437.6654021913914221
  Basis Set: (AUG-CC-PVTZ AUX)
    Blend: AUG-CC-PVTZ-RI
    Molecular point group: c1

    Geometry (in Angstrom), charge = 0, multiplicity = 1:

       Center              X                  Y                   Z               Mass
    ------------   -----------------  -----------------  -----------------  -----------------
         O            2.144937855435     1.369458445872    -0.029750244654    15.994914619570
         N            1.076546855435    -0.674471554128    -0.036564244654    14.003074004430
         C           -0.287255144565    -0.313038554128    -0.023230244654    12.000000000000
         C           -0.732413144565     1.017084445872    -0.012898244654    12.000000000000
         C           -1.220593944565    -1.360577754128     0.128337755346    12.000000000000
         C           -2.104955144565     1.272351445872     0.000098755346    12.000000000000
         C           -2.586975144565    -1.086702554128    -0.008598244654    12.000000000000
         C           -3.037819144565     0.234870445872     0.002282755346    12.000000000000
         C            2.187791855435     0.139368445872    -0.030351244654    12.000000000000
         C            3.498214855435    -0.623097554128     0.021677755346    12.000000000000
         H           -0.012785144565     1.824460445872    -0.015196244654     1.007825032230
         H           -0.876336144565    -2.393127554128    -0.029966244654     1.007825032230
         H            1.253865855435    -1.672301554128    -0.039541244654     1.007825032230
         H           -2.443742144565     2.305699445872     0.008167755346     1.007825032230
         H           -3.297029144565    -1.910174554128    -0.007254244654     1.007825032230
         H           -4.102674144565     0.451783445872     0.012230755346     1.007825032230
         H            3.727602855435    -0.893577554128     1.057014755346     1.007825032230
         H            4.286876855435     0.031705445872    -0.348378244654     1.007825032230
         H            3.473494855435    -1.537582554128    -0.577507244654     1.007825032230

  Basis Set: AUG-CC-PVTZ
    Blend: AUG-CC-PVTZ
  Basis Set: (AUG-CC-PVTZ AUX)
    Blend: AUG-CC-PVTZ-JKFIT
	 Reference Energy          =    -437.6654021913913652 [Eh]
	 Singles Energy            =      -0.0000000000000000 [Eh]
	 Same-Spin Energy          =      -0.4676555370152071 [Eh]
	 Opposite-Spin Energy      =      -1.4574639191535028 [Eh]
	 Correlation Energy        =      -1.9251194561687099 [Eh]
	 Total Energy              =    -439.5905216475600810 [Eh]

	 ================> DF-SCS-MP2 Energies <==================
	-----------------------------------------------------------
	 SCS Same-Spin Scale       =       0.3333333333333333 [-]
	 SCS Opposite-Spin Scale   =       1.2000000000000000 [-]
	 SCS Same-Spin Energy      =      -0.1558851790050690 [Eh]
	 SCS Opposite-Spin Energy  =      -1.7489567029842032 [Eh]
	 SCS Correlation Energy    =      -1.9048418819892723 [Eh]
	 SCS Total Energy          =    -439.5702440733806498 [Eh]
	-----------------------------------------------------------

  Dipole Moment: [D]
     X:     0.0560      Y:    -3.3789      Z:    -0.0384     Total:     3.3796

*** Psi4 exiting successfully. Buy a developer a beer!
