                               Psi4 1.3.2 release

  ==> Input File <==

--------------------------------------------------------------------------
#psi4
#
memory 32 gb

molecule  {
0 1
  O        2.1311420     1.3954640    -0.0176610
  N        1.0627510    -0.6484660    -0.0244750
  C       -0.3010510    -0.2870330    -0.0111410
  C       -0.7462090     1.0430900    -0.0008090
  C       -1.2347939    -1.3343048     0.0904293
  C       -2.1187510     1.2983570     0.0121880
  C       -2.6007710    -1.0606970     0.0034910
  C       -3.0516150     0.2608760     0.0143720
  C        2.1739960     0.1653740    -0.0182620
  C        3.4844190    -0.5970920     0.0337670
  H       -0.0265810     1.8504660    -0.0031070
  H       -0.8901320    -2.3671220    -0.0178770
  H        1.2400700    -1.6462960    -0.0274520
  H       -2.4575380     2.3317050     0.0202570
  H       -3.3108250    -1.8841690     0.0048350
  H       -4.1164700     0.4777890     0.0243200
  H        3.7138070    -0.8675720     1.0691040
  H        4.2730810     0.0577110    -0.3362890
  H        3.4596990    -1.5115770    -0.5654180
units angstrom
no_reorient  #important for SAPT in psi4, default
symmetry c1  #important for SAPT in psi4, default
}

set PROPERTIES_ORIGIN ["COM"]
properties('MP2/aug-cc-pvtz', properties = ['dipole'])
--------------------------------------------------------------------------

    Molecular point group: c1
  Charge       = 0
  Multiplicity = 1
  Basis Set: AUG-CC-PVTZ
    Blend: AUG-CC-PVTZ
  Basis Set: (AUG-CC-PVTZ AUX)
    Blend: AUG-CC-PVTZ-JKFIT

    Orbital Energies [Eh]
    ---------------------

    Doubly Occupied:

       1A    -20.529429     2A    -15.609542     3A    -11.366381
       4A    -11.292182     5A    -11.246696     6A    -11.243405
       7A    -11.240138     8A    -11.238786     9A    -11.230644
      10A    -11.227443    11A     -1.384384    12A     -1.258978
      13A     -1.143055    14A     -1.036172    15A     -1.017111
      16A     -0.985447    17A     -0.856317    18A     -0.835151
      19A     -0.778628    20A     -0.725340    21A     -0.681243
      22A     -0.675059    23A     -0.628794    24A     -0.616721
      25A     -0.612646    26A     -0.590374    27A     -0.583427
      28A     -0.566937    29A     -0.557120    30A     -0.518355
      31A     -0.502066    32A     -0.497618    33A     -0.442184
      34A     -0.428469    35A     -0.340079    36A     -0.309766

  @DF-RHF Final Energy:  -437.66906750030932

   => Energetics <=

    Nuclear Repulsion Energy =            484.1475927341170973
    One-Electron Energy =               -1554.0411452203215958
    Two-Electron Energy =                 632.2244849858951738
    Total Energy =                       -437.6690675003093247
  Basis Set: (AUG-CC-PVTZ AUX)
    Blend: AUG-CC-PVTZ-RI
    Molecular point group: c1

    Geometry (in Angstrom), charge = 0, multiplicity = 1:

       Center              X                  Y                   Z               Mass
    ------------   -----------------  -----------------  -----------------  -----------------
         O            2.144973757241     1.369434689023    -0.025308255719    15.994914619570
         N            1.076582757241    -0.674495310977    -0.032122255719    14.003074004430
         C           -0.287219242759    -0.313062310977    -0.018788255719    12.000000000000
         C           -0.732377242759     1.017060689023    -0.008456255719    12.000000000000
         C           -1.220962142759    -1.360334110977     0.082782044281    12.000000000000
         C           -2.104919242759     1.272327689023     0.004540744281    12.000000000000
         C           -2.586939242759    -1.086726310977    -0.004156255719    12.000000000000
         C           -3.037783242759     0.234846689023     0.006724744281    12.000000000000
         C            2.187827757241     0.139344689023    -0.025909255719    12.000000000000
         C            3.498250757241    -0.623121310977     0.026119744281    12.000000000000
         H           -0.012749242759     1.824436689023    -0.010754255719     1.007825032230
         H           -0.876300242759    -2.393151310977    -0.025524255719     1.007825032230
         H            1.253901757241    -1.672325310977    -0.035099255719     1.007825032230
         H           -2.443706242759     2.305675689023     0.012609744281     1.007825032230
         H           -3.296993242759    -1.910198310977    -0.002812255719     1.007825032230
         H           -4.102638242759     0.451759689023     0.016672744281     1.007825032230
         H            3.727638757241    -0.893601310977     1.061456744281     1.007825032230
         H            4.286912757241     0.031681689023    -0.343936255719     1.007825032230
         H            3.473530757241    -1.537606310977    -0.573065255719     1.007825032230

  Basis Set: AUG-CC-PVTZ
    Blend: AUG-CC-PVTZ
  Basis Set: (AUG-CC-PVTZ AUX)
    Blend: AUG-CC-PVTZ-JKFIT
	 Reference Energy          =    -437.6690675003093247 [Eh]
	 Singles Energy            =      -0.0000000000000000 [Eh]
	 Same-Spin Energy          =      -0.4674940631583840 [Eh]
	 Opposite-Spin Energy      =      -1.4569324421812346 [Eh]
	 Correlation Energy        =      -1.9244265053396186 [Eh]
	 Total Energy              =    -439.5934940056489495 [Eh]

	 ================> DF-SCS-MP2 Energies <==================
	-----------------------------------------------------------
	 SCS Same-Spin Scale       =       0.3333333333333333 [-]
	 SCS Opposite-Spin Scale   =       1.2000000000000000 [-]
	 SCS Same-Spin Energy      =      -0.1558313543861280 [Eh]
	 SCS Opposite-Spin Energy  =      -1.7483189306174816 [Eh]
	 SCS Correlation Energy    =      -1.9041502850036096 [Eh]
	 SCS Total Energy          =    -439.5732177853129201 [Eh]
	-----------------------------------------------------------

  Dipole Moment: [D]
     X:     0.0566      Y:    -3.4094      Z:    -0.0047     Total:     3.4098

*** Psi4 exiting successfully. Buy a developer a beer!
