                               Psi4 1.3.2 release

  ==> Input File <==

--------------------------------------------------------------------------
#psi4
#
memory 32 gb

molecule  {
0 1
  O        2.1311420     1.3954640    -0.0176610
  N        1.0627510    -0.6484660    -0.0244750
  C       -0.3010510    -0.2870330    -0.0111410
  C       -0.7462090     1.0430900    -0.0008090
  C       -1.2351979    -1.3340374     0.0404317
  C       -2.1187510     1.2983570     0.0121880
  C       -2.6007710    -1.0606970     0.0034910
  C       -3.0516150     0.2608760     0.0143720
  C        2.1739960     0.1653740    -0.0182620
  C        3.4844190    -0.5970920     0.0337670
  H       -0.0265810     1.8504660    -0.0031070
  H       -0.8901320    -2.3671220    -0.0178770
  H        1.2400700    -1.6462960    -0.0274520
  H       -2.4575380     2.3317050     0.0202570
  H       -3.3108250    -1.8841690     0.0048350
  H       -4.1164700     0.4777890     0.0243200
  H        3.7138070    -0.8675720     1.0691040
  H        4.2730810     0.0577110    -0.3362890
  H        3.4596990    -1.5115770    -0.5654180
units angstrom
no_reorient  #important for SAPT in psi4, default
symmetry c1  #important for SAPT in psi4, default
}

set PROPERTIES_ORIGIN ["COM"]
properties('MP2/aug-cc-pvtz', properties = ['dipole'])
--------------------------------------------------------------------------

    Molecular point group: c1
  Charge       = 0
  Multiplicity = 1
  Basis Set: AUG-CC-PVTZ
    Blend: AUG-CC-PVTZ
  Basis Set: (AUG-CC-PVTZ AUX)
    Blend: AUG-CC-PVTZ-JKFIT

    Orbital Energies [Eh]
    ---------------------

    Doubly Occupied:

       1A    -20.529334     2A    -15.609457     3A    -11.366305
       4A    -11.291576     5A    -11.246654     6A    -11.242801
       7A    -11.239608     8A    -11.238385     9A    -11.230693
      10A    -11.227480    11A     -1.384302    12A     -1.258960
      13A     -1.143273    14A     -1.036199    15A     -1.017398
      16A     -0.985505    17A     -0.856553    18A     -0.835251
      19A     -0.778715    20A     -0.725562    21A     -0.681250
      22A     -0.675519    23A     -0.628643    24A     -0.616833
      25A     -0.613313    26A     -0.590361    27A     -0.583943
      28A     -0.566928    29A     -0.557254    30A     -0.518463
      31A     -0.501720    32A     -0.498592    33A     -0.442266
      34A     -0.428451    35A     -0.340096    36A     -0.309774

  @DF-RHF Final Energy:  -437.67124694643547

   => Energetics <=

    Nuclear Repulsion Energy =            484.2327220604350373
    One-Electron Energy =               -1554.2131084638376706
    Two-Electron Energy =                 632.3091394569672730
    Total Energy =                       -437.6712469464354172
  Basis Set: (AUG-CC-PVTZ AUX)
    Blend: AUG-CC-PVTZ-RI
    Molecular point group: c1

    Geometry (in Angstrom), charge = 0, multiplicity = 1:

       Center              X                  Y                   Z               Mass
    ------------   -----------------  -----------------  -----------------  -----------------
         O            2.145009650163     1.369410932173    -0.020866275669    15.994914619570
         N            1.076618650163    -0.674519067827    -0.027680275669    14.003074004430
         C           -0.287183349837    -0.313086067827    -0.014346275669    12.000000000000
         C           -0.732341349837     1.017036932173    -0.004014275669    12.000000000000
         C           -1.221330249837    -1.360090467827     0.037226424331    12.000000000000
         C           -2.104883349837     1.272303932173     0.008982724331    12.000000000000
         C           -2.586903349837    -1.086750067827     0.000285724331    12.000000000000
         C           -3.037747349837     0.234822932173     0.011166724331    12.000000000000
         C            2.187863650163     0.139320932173    -0.021467275669    12.000000000000
         C            3.498286650163    -0.623145067827     0.030561724331    12.000000000000
         H           -0.012713349837     1.824412932173    -0.006312275669     1.007825032230
         H           -0.876264349837    -2.393175067827    -0.021082275669     1.007825032230
         H            1.253937650163    -1.672349067827    -0.030657275669     1.007825032230
         H           -2.443670349837     2.305651932173     0.017051724331     1.007825032230
         H           -3.296957349837    -1.910222067827     0.001629724331     1.007825032230
         H           -4.102602349837     0.451735932173     0.021114724331     1.007825032230
         H            3.727674650163    -0.893625067827     1.065898724331     1.007825032230
         H            4.286948650163     0.031657932173    -0.339494275669     1.007825032230
         H            3.473566650163    -1.537630067827    -0.568623275669     1.007825032230

  Basis Set: AUG-CC-PVTZ
    Blend: AUG-CC-PVTZ
  Basis Set: (AUG-CC-PVTZ AUX)
    Blend: AUG-CC-PVTZ-JKFIT
	 Reference Energy          =    -437.6712469464354740 [Eh]
	 Singles Energy            =      -0.0000000000000000 [Eh]
	 Same-Spin Energy          =      -0.4673922228999458 [Eh]
	 Opposite-Spin Energy      =      -1.4566206507931796 [Eh]
	 Correlation Energy        =      -1.9240128736931252 [Eh]
	 Total Energy              =    -439.5952598201286037 [Eh]

	 ================> DF-SCS-MP2 Energies <==================
	-----------------------------------------------------------
	 SCS Same-Spin Scale       =       0.3333333333333333 [-]
	 SCS Opposite-Spin Scale   =       1.2000000000000000 [-]
	 SCS Same-Spin Energy      =      -0.1557974076333152 [Eh]
	 SCS Opposite-Spin Energy  =      -1.7479447809518154 [Eh]
	 SCS Correlation Energy    =      -1.9037421885851307 [Eh]
	 SCS Total Energy          =    -439.5749891350205871 [Eh]
	-----------------------------------------------------------

  Dipole Moment: [D]
     X:     0.0570      Y:    -3.4278      Z:     0.0282     Total:     3.4284

*** Psi4 exiting successfully. Buy a developer a beer!
