                               Psi4 1.3.2 release

  ==> Input File <==

--------------------------------------------------------------------------
#psi4
#
memory 32 gb

molecule  {
0 1
  O        2.1311420     1.3954640    -0.0176610
  N        1.0627510    -0.6484660    -0.0244750
  C       -0.3010510    -0.2870330    -0.0111410
  C       -0.7462090     1.0430900    -0.0008090
  C       -1.2335817    -1.3351070     0.2404223
  C       -2.1187510     1.2983570     0.0121880
  C       -2.6007710    -1.0606970     0.0034910
  C       -3.0516150     0.2608760     0.0143720
  C        2.1739960     0.1653740    -0.0182620
  C        3.4844190    -0.5970920     0.0337670
  H       -0.0265810     1.8504660    -0.0031070
  H       -0.8901320    -2.3671220    -0.0178770
  H        1.2400700    -1.6462960    -0.0274520
  H       -2.4575380     2.3317050     0.0202570
  H       -3.3108250    -1.8841690     0.0048350
  H       -4.1164700     0.4777890     0.0243200
  H        3.7138070    -0.8675720     1.0691040
  H        4.2730810     0.0577110    -0.3362890
  H        3.4596990    -1.5115770    -0.5654180
units angstrom
no_reorient  #important for SAPT in psi4, default
symmetry c1  #important for SAPT in psi4, default
}

set PROPERTIES_ORIGIN ["COM"]
properties('MP2/aug-cc-pvtz', properties = ['dipole'])
--------------------------------------------------------------------------

    Molecular point group: c1
  Charge       = 0
  Multiplicity = 1
  Basis Set: AUG-CC-PVTZ
    Blend: AUG-CC-PVTZ
  Basis Set: (AUG-CC-PVTZ AUX)
    Blend: AUG-CC-PVTZ-JKFIT

    Orbital Energies [Eh]
    ---------------------

    Doubly Occupied:

       1A    -20.530134     2A    -15.610193     3A    -11.366934
       4A    -11.296350     5A    -11.247576     6A    -11.247003
       7A    -11.243781     8A    -11.241715     9A    -11.230450
      10A    -11.227342    11A     -1.384992    12A     -1.259164
      13A     -1.141700    14A     -1.036079    15A     -1.015168
      16A     -0.985048    17A     -0.854890    18A     -0.834544
      19A     -0.778133    20A     -0.724142    21A     -0.681453
      22A     -0.672157    23A     -0.629519    24A     -0.616451
      25A     -0.608193    26A     -0.590733    27A     -0.579610
      28A     -0.567184    29A     -0.556083    30A     -0.517529
      31A     -0.502676    32A     -0.492428    33A     -0.441773
      34A     -0.428524    35A     -0.340128    36A     -0.309826

  @DF-RHF Final Energy:  -437.65351883748787

   => Energetics <=

    Nuclear Repulsion Energy =            483.5564307671454571
    One-Electron Energy =               -1552.8406960545098627
    Two-Electron Energy =                 631.6307464498764830
    Total Energy =                       -437.6535188374879226
  Basis Set: (AUG-CC-PVTZ AUX)
    Blend: AUG-CC-PVTZ-RI
    Molecular point group: c1

    Geometry (in Angstrom), charge = 0, multiplicity = 1:

       Center              X                  Y                   Z               Mass
    ------------   -----------------  -----------------  -----------------  -----------------
         O            2.144866060707     1.369505959572    -0.038634213638    15.994914619570
         N            1.076475060707    -0.674424040428    -0.045448213638    14.003074004430
         C           -0.287326939293    -0.312991040428    -0.032114213638    12.000000000000
         C           -0.732484939293     1.017131959572    -0.021782213638    12.000000000000
         C           -1.219857639293    -1.361065040428     0.219449086362    12.000000000000
         C           -2.105026939293     1.272398959572    -0.008785213638    12.000000000000
         C           -2.587046939293    -1.086655040428    -0.017482213638    12.000000000000
         C           -3.037890939293     0.234917959572    -0.006601213638    12.000000000000
         C            2.187720060707     0.139415959572    -0.039235213638    12.000000000000
         C            3.498143060707    -0.623050040428     0.012793786362    12.000000000000
         H           -0.012856939293     1.824507959572    -0.024080213638     1.007825032230
         H           -0.876407939293    -2.393080040428    -0.038850213638     1.007825032230
         H            1.253794060707    -1.672254040428    -0.048425213638     1.007825032230
         H           -2.443813939293     2.305746959572    -0.000716213638     1.007825032230
         H           -3.297100939293    -1.910127040428    -0.016138213638     1.007825032230
         H           -4.102745939293     0.451830959572     0.003346786362     1.007825032230
         H            3.727531060707    -0.893530040428     1.048130786362     1.007825032230
         H            4.286805060707     0.031752959572    -0.357262213638     1.007825032230
         H            3.473423060707    -1.537535040428    -0.586391213638     1.007825032230

  Basis Set: AUG-CC-PVTZ
    Blend: AUG-CC-PVTZ
  Basis Set: (AUG-CC-PVTZ AUX)
    Blend: AUG-CC-PVTZ-JKFIT
	 Reference Energy          =    -437.6535188374878658 [Eh]
	 Singles Energy            =      -0.0000000000000000 [Eh]
	 Same-Spin Energy          =      -0.4681460081513698 [Eh]
	 Opposite-Spin Energy      =      -1.4591631649491581 [Eh]
	 Correlation Energy        =      -1.9273091731005279 [Eh]
	 Total Energy              =    -439.5808280105883910 [Eh]

	 ================> DF-SCS-MP2 Energies <==================
	-----------------------------------------------------------
	 SCS Same-Spin Scale       =       0.3333333333333333 [-]
	 SCS Opposite-Spin Scale   =       1.2000000000000000 [-]
	 SCS Same-Spin Energy      =      -0.1560486693837899 [Eh]
	 SCS Opposite-Spin Energy  =      -1.7509957979389896 [Eh]
	 SCS Correlation Energy    =      -1.9070444673227795 [Eh]
	 SCS Total Energy          =    -439.5605633048106711 [Eh]
	-----------------------------------------------------------

  Dipole Moment: [D]
     X:     0.0547      Y:    -3.2831      Z:    -0.1085     Total:     3.2853

*** Psi4 exiting successfully. Buy a developer a beer!
