                               Psi4 1.3.2 release

  ==> Input File <==

--------------------------------------------------------------------------
#psi4
#
memory 32 gb

molecule  {
0 1
  C       -2.4169215     0.1051185     0.0098543
  C        1.9026710    -0.0000040     0.0093960
  C        1.1996400    -1.2063010     0.0018590
  C        1.1996470     1.2062960     0.0018580
  C       -0.1961990    -1.2029620    -0.0082140
  C       -0.1961940     1.2029670    -0.0082130
  C       -0.9136400     0.0000050    -0.0165360
  H        2.9899420    -0.0000050     0.0144970
  H        1.7382270    -2.1512330     0.0030650
  H        1.7382400     2.1512250     0.0030610
  H       -0.7371330    -2.1480740    -0.0183500
  H       -0.7371210     2.1480830    -0.0183460
  H       -2.8237680    -0.8851500    -0.4884320
  H       -2.8237700     0.8853450    -0.4880880
  H       -2.7968300    -0.0002010     1.0407190
units angstrom
no_reorient  #important for SAPT in psi4, default
symmetry c1  #important for SAPT in psi4, default
}

set PROPERTIES_ORIGIN ["COM"]
properties('MP2/aug-cc-pvtz', properties = ['dipole'])
--------------------------------------------------------------------------

    Molecular point group: c1
  Charge       = 0
  Multiplicity = 1
  Basis Set: AUG-CC-PVTZ
    Blend: AUG-CC-PVTZ
  Basis Set: (AUG-CC-PVTZ AUX)
    Blend: AUG-CC-PVTZ-JKFIT

    Orbital Energies [Eh]
    ---------------------

    Doubly Occupied:

       1A    -11.243051     2A    -11.235694     3A    -11.234362
       4A    -11.231783     5A    -11.230699     6A    -11.228721
       7A    -11.226497     8A     -1.150501     9A     -1.043651
      10A     -1.009994    11A     -0.932451    12A     -0.823504
      13A     -0.796931    14A     -0.691236    15A     -0.635900
      16A     -0.629523    17A     -0.587205    18A     -0.581051
      19A     -0.567555    20A     -0.526264    21A     -0.490825
      22A     -0.486642    23A     -0.476272    24A     -0.334202
      25A     -0.323345

  @DF-RHF Final Energy:  -269.81769515114303

   => Energetics <=

    Nuclear Repulsion Energy =            268.8167973435201930
    One-Electron Energy =                -895.8332676208231078
    Two-Electron Energy =                 357.1987751261598873
    Total Energy =                       -269.8176951511430275
  Basis Set: (AUG-CC-PVTZ AUX)
    Blend: AUG-CC-PVTZ-RI
    Molecular point group: c1

    Geometry (in Angstrom), charge = 0, multiplicity = 1:

       Center              X                  Y                   Z               Mass
    ------------   -----------------  -----------------  -----------------  -----------------
         C           -2.454600376246     0.091416693640     0.010630356860    12.000000000000
         C            1.864992123754    -0.013705806360     0.010172056860    12.000000000000
         C            1.161961123754    -1.220002806360     0.002635056860    12.000000000000
         C            1.161968123754     1.192594193640     0.002634056860    12.000000000000
         C           -0.233877876246    -1.216663806360    -0.007437943140    12.000000000000
         C           -0.233872876246     1.189265193640    -0.007436943140    12.000000000000
         C           -0.951318876246    -0.013696806360    -0.015759943140    12.000000000000
         H            2.952263123754    -0.013706806360     0.015273056860     1.007825032230
         H            1.700548123754    -2.164934806360     0.003841056860     1.007825032230
         H            1.700561123754     2.137523193640     0.003837056860     1.007825032230
         H           -0.774811876246    -2.161775806360    -0.017573943140     1.007825032230
         H           -0.774799876246     2.134381193640    -0.017569943140     1.007825032230
         H           -2.861446876246    -0.898851806360    -0.487655943140     1.007825032230
         H           -2.861448876246     0.871643193640    -0.487311943140     1.007825032230
         H           -2.834508876246    -0.013902806360     1.041495056860     1.007825032230

  Basis Set: AUG-CC-PVTZ
    Blend: AUG-CC-PVTZ
  Basis Set: (AUG-CC-PVTZ AUX)
    Blend: AUG-CC-PVTZ-JKFIT
	 Reference Energy          =    -269.8176951511430275 [Eh]
	 Singles Energy            =      -0.0000000000000000 [Eh]
	 Same-Spin Energy          =      -0.2996916140972247 [Eh]
	 Opposite-Spin Energy      =      -0.9759799272431372 [Eh]
	 Correlation Energy        =      -1.2756715413403619 [Eh]
	 Total Energy              =    -271.0933666924834142 [Eh]

	 ================> DF-SCS-MP2 Energies <==================
	-----------------------------------------------------------
	 SCS Same-Spin Scale       =       0.3333333333333333 [-]
	 SCS Opposite-Spin Scale   =       1.2000000000000000 [-]
	 SCS Same-Spin Energy      =      -0.0998972046990749 [Eh]
	 SCS Opposite-Spin Energy  =      -1.1711759126917647 [Eh]
	 SCS Correlation Energy    =      -1.2710731173908396 [Eh]
	 SCS Total Energy          =    -271.0887682685338405 [Eh]
	-----------------------------------------------------------

  Dipole Moment: [D]
     X:    -0.3568      Y:     0.0483      Z:     0.0439     Total:     0.3627

*** Psi4 exiting successfully. Buy a developer a beer!
