                               Psi4 1.3.2 release

  ==> Input File <==

--------------------------------------------------------------------------
#psi4
#
memory 32 gb

molecule  {
0 1
  C       -2.4205560     0.0000000     0.0118300
  C        1.9026710    -0.0000040     0.0093960
  C        1.1996400    -1.2063010     0.0018590
  C        1.1996470     1.2062960     0.0018580
  C       -0.1961990    -1.2029620    -0.0082140
  C       -0.1961940     1.2029670    -0.0082130
  C       -0.9192895     0.0000255    -0.1215840
  H        2.9899420    -0.0000050     0.0144970
  H        1.7382270    -2.1512330     0.0030650
  H        1.7382400     2.1512250     0.0030610
  H       -0.7371330    -2.1480740    -0.0183500
  H       -0.7371210     2.1480830    -0.0183460
  H       -2.8237680    -0.8851500    -0.4884320
  H       -2.8237700     0.8853450    -0.4880880
  H       -2.7968300    -0.0002010     1.0407190
units angstrom
no_reorient  #important for SAPT in psi4, default
symmetry c1  #important for SAPT in psi4, default
}

set PROPERTIES_ORIGIN ["COM"]
properties('MP2/aug-cc-pvtz', properties = ['dipole'])
--------------------------------------------------------------------------

    Molecular point group: c1
  Charge       = 0
  Multiplicity = 1
  Basis Set: AUG-CC-PVTZ
    Blend: AUG-CC-PVTZ
  Basis Set: (AUG-CC-PVTZ AUX)
    Blend: AUG-CC-PVTZ-JKFIT

    Orbital Energies [Eh]
    ---------------------

    Doubly Occupied:

       1A    -11.243163     2A    -11.235001     3A    -11.234790
       4A    -11.231823     5A    -11.231613     6A    -11.231458
       7A    -11.224423     8A     -1.149173     9A     -1.042699
      10A     -1.009573    11A     -0.930615    12A     -0.822351
      13A     -0.795840    14A     -0.690628    15A     -0.631139
      16A     -0.630685    17A     -0.581505    18A     -0.577431
      19A     -0.562268    20A     -0.537635    21A     -0.491898
      22A     -0.483351    23A     -0.481341    24A     -0.333603
      25A     -0.323593

  @DF-RHF Final Energy:  -269.82504960892425

   => Energetics <=

    Nuclear Repulsion Energy =            268.5647948243157543
    One-Electron Energy =                -895.3644851419760471
    Two-Electron Energy =                 356.9746407087360467
    Total Energy =                       -269.8250496089242461
  Basis Set: (AUG-CC-PVTZ AUX)
    Blend: AUG-CC-PVTZ-RI
    Molecular point group: c1

    Geometry (in Angstrom), charge = 0, multiplicity = 1:

       Center              X                  Y                   Z               Mass
    ------------   -----------------  -----------------  -----------------  -----------------
         C           -2.457024743144    -0.000002692969     0.026041128176    12.000000000000
         C            1.866202256856    -0.000006692969     0.023607128176    12.000000000000
         C            1.163171256856    -1.206303692969     0.016070128176    12.000000000000
         C            1.163178256856     1.206293307031     0.016069128176    12.000000000000
         C           -0.232667743144    -1.202964692969     0.005997128176    12.000000000000
         C           -0.232662743144     1.202964307031     0.005998128176    12.000000000000
         C           -0.955758243144     0.000022807031    -0.107372871824    12.000000000000
         H            2.953473256856    -0.000007692969     0.028708128176     1.007825032230
         H            1.701758256856    -2.151235692969     0.017276128176     1.007825032230
         H            1.701771256856     2.151222307031     0.017272128176     1.007825032230
         H           -0.773601743144    -2.148076692969    -0.004138871824     1.007825032230
         H           -0.773589743144     2.148080307031    -0.004134871824     1.007825032230
         H           -2.860236743144    -0.885152692969    -0.474220871824     1.007825032230
         H           -2.860238743144     0.885342307031    -0.473876871824     1.007825032230
         H           -2.833298743144    -0.000203692969     1.054930128176     1.007825032230

  Basis Set: AUG-CC-PVTZ
    Blend: AUG-CC-PVTZ
  Basis Set: (AUG-CC-PVTZ AUX)
    Blend: AUG-CC-PVTZ-JKFIT
	 Reference Energy          =    -269.8250496089242461 [Eh]
	 Singles Energy            =      -0.0000000000000000 [Eh]
	 Same-Spin Energy          =      -0.2997289397164547 [Eh]
	 Opposite-Spin Energy      =      -0.9760713329773865 [Eh]
	 Correlation Energy        =      -1.2758002726938411 [Eh]
	 Total Energy              =    -271.1008498816181032 [Eh]

	 ================> DF-SCS-MP2 Energies <==================
	-----------------------------------------------------------
	 SCS Same-Spin Scale       =       0.3333333333333333 [-]
	 SCS Opposite-Spin Scale   =       1.2000000000000000 [-]
	 SCS Same-Spin Energy      =      -0.0999096465721516 [Eh]
	 SCS Opposite-Spin Energy  =      -1.1712855995728637 [Eh]
	 SCS Correlation Energy    =      -1.2711952461450153 [Eh]
	 SCS Total Energy          =    -271.0962448550692443 [Eh]
	-----------------------------------------------------------

  Dipole Moment: [D]
     X:    -0.3229      Y:    -0.0000      Z:     0.0868     Total:     0.3344

*** Psi4 exiting successfully. Buy a developer a beer!
