                               Psi4 1.3.2 release

  ==> Input File <==

--------------------------------------------------------------------------
#psi4
#
memory 32 gb

molecule  {
0 1
  C       -2.4205560     0.0000000     0.0118300
  C        1.9026710    -0.0000040     0.0093960
  C        1.1996400    -1.2063010     0.0018590
  C        1.1996470     1.2062960     0.0018580
  C       -0.1961990    -1.2029620    -0.0082140
  C       -0.1961940     1.2029670    -0.0082130
  C       -0.9189300    -0.0000258     0.1411350
  H        2.9899420    -0.0000050     0.0144970
  H        1.7382270    -2.1512330     0.0030650
  H        1.7382400     2.1512250     0.0030610
  H       -0.7371330    -2.1480740    -0.0183500
  H       -0.7371210     2.1480830    -0.0183460
  H       -2.8237680    -0.8851500    -0.4884320
  H       -2.8237700     0.8853450    -0.4880880
  H       -2.7968300    -0.0002010     1.0407190
units angstrom
no_reorient  #important for SAPT in psi4, default
symmetry c1  #important for SAPT in psi4, default
}

set PROPERTIES_ORIGIN ["COM"]
properties('MP2/aug-cc-pvtz', properties = ['dipole'])
--------------------------------------------------------------------------

    Molecular point group: c1
  Charge       = 0
  Multiplicity = 1
  Basis Set: AUG-CC-PVTZ
    Blend: AUG-CC-PVTZ
  Basis Set: (AUG-CC-PVTZ AUX)
    Blend: AUG-CC-PVTZ-JKFIT

    Orbital Energies [Eh]
    ---------------------

    Doubly Occupied:

       1A    -11.244829     2A    -11.234539     3A    -11.234363
       4A    -11.231862     5A    -11.231857     6A    -11.230833
       7A    -11.224708     8A     -1.148674     9A     -1.042634
      10A     -1.009120    11A     -0.930654    12A     -0.821373
      13A     -0.795457    14A     -0.690072    15A     -0.631673
      16A     -0.629815    17A     -0.581268    18A     -0.578006
      19A     -0.562472    20A     -0.538366    21A     -0.492528
      22A     -0.483826    23A     -0.478492    24A     -0.332687
      25A     -0.322152

  @DF-RHF Final Energy:  -269.82110105726349

   => Energetics <=

    Nuclear Repulsion Energy =            268.5011175319204995
    One-Electron Energy =                -895.2399147232631549
    Two-Electron Energy =                 356.9176961340791649
    Total Energy =                       -269.8211010572634905
  Basis Set: (AUG-CC-PVTZ AUX)
    Blend: AUG-CC-PVTZ-RI
    Molecular point group: c1

    Geometry (in Angstrom), charge = 0, multiplicity = 1:

       Center              X                  Y                   Z               Mass
    ------------   -----------------  -----------------  -----------------  -----------------
         C           -2.457071602564     0.000003993785    -0.008203266303    12.000000000000
         C            1.866155397436    -0.000000006215    -0.010637266303    12.000000000000
         C            1.163124397436    -1.206297006215    -0.018174266303    12.000000000000
         C            1.163131397436     1.206299993785    -0.018175266303    12.000000000000
         C           -0.232714602564    -1.202958006215    -0.028247266303    12.000000000000
         C           -0.232709602564     1.202970993785    -0.028246266303    12.000000000000
         C           -0.955445602564    -0.000021806215     0.121101733697    12.000000000000
         H            2.953426397436    -0.000001006215    -0.005536266303     1.007825032230
         H            1.701711397436    -2.151229006215    -0.016968266303     1.007825032230
         H            1.701724397436     2.151228993785    -0.016972266303     1.007825032230
         H           -0.773648602564    -2.148070006215    -0.038383266303     1.007825032230
         H           -0.773636602564     2.148086993785    -0.038379266303     1.007825032230
         H           -2.860283602564    -0.885146006215    -0.508465266303     1.007825032230
         H           -2.860285602564     0.885348993785    -0.508121266303     1.007825032230
         H           -2.833345602564    -0.000197006215     1.020685733697     1.007825032230

  Basis Set: AUG-CC-PVTZ
    Blend: AUG-CC-PVTZ
  Basis Set: (AUG-CC-PVTZ AUX)
    Blend: AUG-CC-PVTZ-JKFIT
	 Reference Energy          =    -269.8211010572634905 [Eh]
	 Singles Energy            =      -0.0000000000000000 [Eh]
	 Same-Spin Energy          =      -0.2998947098662818 [Eh]
	 Opposite-Spin Energy      =      -0.9765236555262500 [Eh]
	 Correlation Energy        =      -1.2764183653925318 [Eh]
	 Total Energy              =    -271.0975194226560347 [Eh]

	 ================> DF-SCS-MP2 Energies <==================
	-----------------------------------------------------------
	 SCS Same-Spin Scale       =       0.3333333333333333 [-]
	 SCS Opposite-Spin Scale   =       1.2000000000000000 [-]
	 SCS Same-Spin Energy      =      -0.0999649032887606 [Eh]
	 SCS Opposite-Spin Energy  =      -1.1718283866315000 [Eh]
	 SCS Correlation Energy    =      -1.2717932899202606 [Eh]
	 SCS Total Energy          =    -271.0928943471837442 [Eh]
	-----------------------------------------------------------

  Dipole Moment: [D]
     X:    -0.3830      Y:    -0.0000      Z:    -0.0346     Total:     0.3846

*** Psi4 exiting successfully. Buy a developer a beer!
