                               Psi4 1.3.2 release

  ==> Input File <==

--------------------------------------------------------------------------
#psi4
#
memory 32 gb

molecule  {
0 1
  C       -2.4205560     0.0000000     0.0118300
  C        1.9026710    -0.0000040     0.0093960
  C        1.1996400    -1.2063010     0.0018590
  C        1.1996470     1.2062960     0.0018580
  C       -0.1961990    -1.2029620    -0.0082140
  C       -0.1961940     1.2029670    -0.0082130
  C       -0.9136400     0.0000050    -0.0165360
  H        2.9899420    -0.0000050     0.0144970
  H        1.7382270    -2.1512330     0.0030650
  H        1.7382400     2.1512250     0.0030610
  H       -0.7371330    -2.1480740    -0.0183500
  H       -0.7371210     2.1480830    -0.0183460
  H       -2.8237680    -0.8851500    -0.4884320
  H       -2.8237700     0.8853450    -0.4880880
  H       -2.7624838    -0.0001827     0.9468023
units angstrom
no_reorient  #important for SAPT in psi4, default
symmetry c1  #important for SAPT in psi4, default
}

set PROPERTIES_ORIGIN ["COM"]
properties('MP2/aug-cc-pvtz', properties = ['dipole'])
--------------------------------------------------------------------------

    Molecular point group: c1
  Charge       = 0
  Multiplicity = 1
  Basis Set: AUG-CC-PVTZ
    Blend: AUG-CC-PVTZ
  Basis Set: (AUG-CC-PVTZ AUX)
    Blend: AUG-CC-PVTZ-JKFIT

    Orbital Energies [Eh]
    ---------------------

    Doubly Occupied:

       1A    -11.241574     2A    -11.234633     3A    -11.234481
       4A    -11.230220     5A    -11.229629     6A    -11.229549
       7A    -11.212302     8A     -1.150066     9A     -1.045629
      10A     -1.009470    11A     -0.938869    12A     -0.822949
      13A     -0.797768    14A     -0.691269    15A     -0.631110
      16A     -0.630502    17A     -0.593996    18A     -0.581655
      19A     -0.564816    20A     -0.537138    21A     -0.489667
      22A     -0.485795    23A     -0.484719    24A     -0.333701
      25A     -0.323951

  @DF-RHF Final Energy:  -269.82397202485197

   => Energetics <=

    Nuclear Repulsion Energy =            269.2353287845713226
    One-Electron Energy =                -896.6676845285153377
    Two-Electron Energy =                 357.6083837190921031
    Total Energy =                       -269.8239720248519689
  Basis Set: (AUG-CC-PVTZ AUX)
    Blend: AUG-CC-PVTZ-RI
    Molecular point group: c1

    Geometry (in Angstrom), charge = 0, multiplicity = 1:

       Center              X                  Y                   Z               Mass
    ------------   -----------------  -----------------  -----------------  -----------------
         C           -2.458137127107    -0.000000221208     0.013376654269    12.000000000000
         C            1.865089872893    -0.000004221208     0.010942654269    12.000000000000
         C            1.162058872893    -1.206301221208     0.003405654269    12.000000000000
         C            1.162065872893     1.206295778792     0.003404654269    12.000000000000
         C           -0.233780127107    -1.202962221208    -0.006667345731    12.000000000000
         C           -0.233775127107     1.202966778792    -0.006666345731    12.000000000000
         C           -0.951221127107     0.000004778792    -0.014989345731    12.000000000000
         H            2.952360872893    -0.000005221208     0.016043654269     1.007825032230
         H            1.700645872893    -2.151233221208     0.004611654269     1.007825032230
         H            1.700658872893     2.151224778792     0.004607654269     1.007825032230
         H           -0.774714127107    -2.148074221208    -0.016803345731     1.007825032230
         H           -0.774702127107     2.148082778792    -0.016799345731     1.007825032230
         H           -2.861349127107    -0.885150221208    -0.486885345731     1.007825032230
         H           -2.861351127107     0.885344778792    -0.486541345731     1.007825032230
         H           -2.800064927107    -0.000182921208     0.948348954269     1.007825032230

  Basis Set: AUG-CC-PVTZ
    Blend: AUG-CC-PVTZ
  Basis Set: (AUG-CC-PVTZ AUX)
    Blend: AUG-CC-PVTZ-JKFIT
	 Reference Energy          =    -269.8239720248519689 [Eh]
	 Singles Energy            =      -0.0000000000000000 [Eh]
	 Same-Spin Energy          =      -0.2995146847475511 [Eh]
	 Opposite-Spin Energy      =      -0.9749152945125062 [Eh]
	 Correlation Energy        =      -1.2744299792600573 [Eh]
	 Total Energy              =    -271.0984020041120175 [Eh]

	 ================> DF-SCS-MP2 Energies <==================
	-----------------------------------------------------------
	 SCS Same-Spin Scale       =       0.3333333333333333 [-]
	 SCS Opposite-Spin Scale   =       1.2000000000000000 [-]
	 SCS Same-Spin Energy      =      -0.0998382282491837 [Eh]
	 SCS Opposite-Spin Energy  =      -1.1698983534150074 [Eh]
	 SCS Correlation Energy    =      -1.2697365816641910 [Eh]
	 SCS Total Energy          =    -271.0937086065161452 [Eh]
	-----------------------------------------------------------

  Dipole Moment: [D]
     X:    -0.4141      Y:    -0.0000      Z:     0.0651     Total:     0.4192

*** Psi4 exiting successfully. Buy a developer a beer!
