                               Psi4 1.3.2 release

  ==> Input File <==

--------------------------------------------------------------------------
#psi4
#
memory 32 gb

molecule  {
0 1
  C       -2.4196199    -0.0525913     0.0127666
  C        1.9026710    -0.0000040     0.0093960
  C        1.1996400    -1.2063010     0.0018590
  C        1.1996470     1.2062960     0.0018580
  C       -0.1961990    -1.2029620    -0.0082140
  C       -0.1961940     1.2029670    -0.0082130
  C       -0.9136400     0.0000050    -0.0165360
  H        2.9899420    -0.0000050     0.0144970
  H        1.7382270    -2.1512330     0.0030650
  H        1.7382400     2.1512250     0.0030610
  H       -0.7371330    -2.1480740    -0.0183500
  H       -0.7371210     2.1480830    -0.0183460
  H       -2.8237680    -0.8851500    -0.4884320
  H       -2.8237700     0.8853450    -0.4880880
  H       -2.7968300    -0.0002010     1.0407190
units angstrom
no_reorient  #important for SAPT in psi4, default
symmetry c1  #important for SAPT in psi4, default
}

set PROPERTIES_ORIGIN ["COM"]
properties('MP2/aug-cc-pvtz', properties = ['dipole'])
--------------------------------------------------------------------------

    Molecular point group: c1
  Charge       = 0
  Multiplicity = 1
  Basis Set: AUG-CC-PVTZ
    Blend: AUG-CC-PVTZ
  Basis Set: (AUG-CC-PVTZ AUX)
    Blend: AUG-CC-PVTZ-JKFIT

    Orbital Energies [Eh]
    ---------------------

    Doubly Occupied:

       1A    -11.242399     2A    -11.235203     3A    -11.234524
       4A    -11.230846     5A    -11.230563     6A    -11.229281
       7A    -11.225074     8A     -1.150220     9A     -1.043083
      10A     -1.009828    11A     -0.931521    12A     -0.823328
      13A     -0.796192    14A     -0.690689    15A     -0.632858
      16A     -0.629859    17A     -0.582449    18A     -0.578408
      19A     -0.566776    20A     -0.533719    21A     -0.488617
      22A     -0.487323    23A     -0.481720    24A     -0.334026
      25A     -0.323479

  @DF-RHF Final Energy:  -269.82689814901573

   => Energetics <=

    Nuclear Repulsion Energy =            268.7942252386553150
    One-Electron Energy =                -895.8182772297591328
    Two-Electron Energy =                 357.1971538420880279
    Total Energy =                       -269.8268981490157330
  Basis Set: (AUG-CC-PVTZ AUX)
    Blend: AUG-CC-PVTZ-RI
    Molecular point group: c1

    Geometry (in Angstrom), charge = 0, multiplicity = 1:

       Center              X                  Y                   Z               Mass
    ------------   -----------------  -----------------  -----------------  -----------------
         C           -2.456947050356    -0.045736250539     0.013163049942    12.000000000000
         C            1.865343849644     0.006851049461     0.009792449942    12.000000000000
         C            1.162312849644    -1.199445950539     0.002255449942    12.000000000000
         C            1.162319849644     1.213151049461     0.002254449942    12.000000000000
         C           -0.233526150356    -1.196106950539    -0.007817550058    12.000000000000
         C           -0.233521150356     1.209822049461    -0.007816550058    12.000000000000
         C           -0.950967150356     0.006860049461    -0.016139550058    12.000000000000
         H            2.952614849644     0.006850049461     0.014893449942     1.007825032230
         H            1.700899849644    -2.144377950539     0.003461449942     1.007825032230
         H            1.700912849644     2.158080049461     0.003457449942     1.007825032230
         H           -0.774460150356    -2.141218950539    -0.017953550058     1.007825032230
         H           -0.774448150356     2.154938049461    -0.017949550058     1.007825032230
         H           -2.861095150356    -0.878294950539    -0.488035550058     1.007825032230
         H           -2.861097150356     0.892200049461    -0.487691550058     1.007825032230
         H           -2.834157150356     0.006654049461     1.041115449942     1.007825032230

  Basis Set: AUG-CC-PVTZ
    Blend: AUG-CC-PVTZ
  Basis Set: (AUG-CC-PVTZ AUX)
    Blend: AUG-CC-PVTZ-JKFIT
	 Reference Energy          =    -269.8268981490157330 [Eh]
	 Singles Energy            =      -0.0000000000000000 [Eh]
	 Same-Spin Energy          =      -0.2995306215855748 [Eh]
	 Opposite-Spin Energy      =      -0.9755216292330450 [Eh]
	 Correlation Energy        =      -1.2750522508186197 [Eh]
	 Total Energy              =    -271.1019503998343794 [Eh]

	 ================> DF-SCS-MP2 Energies <==================
	-----------------------------------------------------------
	 SCS Same-Spin Scale       =       0.3333333333333333 [-]
	 SCS Opposite-Spin Scale   =       1.2000000000000000 [-]
	 SCS Same-Spin Energy      =      -0.0998435405285249 [Eh]
	 SCS Opposite-Spin Energy  =      -1.1706259550796538 [Eh]
	 SCS Correlation Energy    =      -1.2704694956081788 [Eh]
	 SCS Total Energy          =    -271.0973676446238869 [Eh]
	-----------------------------------------------------------

  Dipole Moment: [D]
     X:    -0.3725      Y:    -0.0247      Z:     0.0395     Total:     0.3754

*** Psi4 exiting successfully. Buy a developer a beer!
