                               Psi4 1.4a3.dev225

  ==> Input File <==

--------------------------------------------------------------------------
#psi4
#
memory 32 gb

molecule  {
0 1
  C       -2.4205580     0.0000000     0.0118250
  C        1.9026740    -0.0000010     0.0093850
  C        1.1996440    -1.2062980     0.0018670
  C        1.1996450     1.2062970     0.0018670
  C       -0.1961960    -1.2029630    -0.0082190
  C       -0.1961960     1.2029630    -0.0082190
  C       -0.9636342     0.0000010    -0.0155874
  H        2.9899450     0.0000000     0.0144850
  H        1.7382350    -2.1512280     0.0030590
  H        1.7382370     2.1512270     0.0030580
  H       -0.7371310    -2.1480750    -0.0183270
  H       -0.7371290     2.1480760    -0.0183270
  H       -2.8237650    -0.8852380    -0.4882860
  H       -2.8237650     0.8852570    -0.4882510
  H       -2.7968510    -0.0000200     1.0407090
units angstrom
no_reorient  #important for SAPT in psi4, default
symmetry c1  #important for SAPT in psi4, default
}

set PROPERTIES_ORIGIN ["COM"]
properties('MP2/aug-cc-pvtz', properties = ['dipole'])
--------------------------------------------------------------------------

    Molecular point group: c1
  Charge       = 0
  Multiplicity = 1
  Basis Set: AUG-CC-PVTZ
    Blend: AUG-CC-PVTZ
  Basis Set: (AUG-CC-PVTZ AUX)
    Blend: AUG-CC-PVTZ-JKFIT

    Orbital Energies [Eh]
    ---------------------

    Doubly Occupied:

       1A    -11.245920     2A    -11.234821     3A    -11.234674
       4A    -11.232493     5A    -11.232490     6A    -11.230701
       7A    -11.223815     8A     -1.146268     9A     -1.049708
      10A     -1.007154    11A     -0.933454    12A     -0.819967
      13A     -0.794487    14A     -0.689175    15A     -0.633158
      16A     -0.632156    17A     -0.581011    18A     -0.578025
      19A     -0.569922    20A     -0.539562    21A     -0.496165
      22A     -0.483771    23A     -0.476238    24A     -0.333100
      25A     -0.318618

  @DF-RHF Final Energy:  -269.82540401663380

   => Energetics <=

    Nuclear Repulsion Energy =            268.3807469204909921
    One-Electron Energy =                -894.9785939112661026
    Two-Electron Energy =                 356.7724429741413132
    Total Energy =                       -269.8254040166337973
  Basis Set: (AUG-CC-PVTZ AUX)
    Blend: AUG-CC-PVTZ-RI
    Molecular point group: c1

    Geometry (in Angstrom), charge = 0, multiplicity = 1:

       Center              X                  Y                   Z               Mass
    ------------   -----------------  -----------------  -----------------  -----------------
         C           -2.451246985842     0.000000141293     0.012221254932    12.000000000000
         C            1.871985014158    -0.000000858707     0.009781254932    12.000000000000
         C            1.168955014158    -1.206297858707     0.002263254932    12.000000000000
         C            1.168956014158     1.206297141293     0.002263254932    12.000000000000
         C           -0.226884985842    -1.202962858707    -0.007822745068    12.000000000000
         C           -0.226884985842     1.202963141293    -0.007822745068    12.000000000000
         C           -0.994323185842     0.000001141293    -0.015191145068    12.000000000000
         H            2.959256014158     0.000000141293     0.014881254932     1.007825032230
         H            1.707546014158    -2.151227858707     0.003455254932     1.007825032230
         H            1.707548014158     2.151227141293     0.003454254932     1.007825032230
         H           -0.767819985842    -2.148074858707    -0.017930745068     1.007825032230
         H           -0.767817985842     2.148076141293    -0.017930745068     1.007825032230
         H           -2.854453985842    -0.885237858707    -0.487889745068     1.007825032230
         H           -2.854453985842     0.885257141293    -0.487854745068     1.007825032230
         H           -2.827539985842    -0.000019858707     1.041105254932     1.007825032230

  Basis Set: AUG-CC-PVTZ
    Blend: AUG-CC-PVTZ
  Basis Set: (AUG-CC-PVTZ AUX)
    Blend: AUG-CC-PVTZ-JKFIT
	 Reference Energy          =    -269.8254040166337973 [Eh]
	 Singles Energy            =      -0.0000000000000000 [Eh]
	 Same-Spin Energy          =      -0.3000504475809372 [Eh]
	 Opposite-Spin Energy      =      -0.9762988186800543 [Eh]
	 Correlation Energy        =      -1.2763492662609917 [Eh]
	 Total Energy              =    -271.1017532828947765 [Eh]

	 ================> DF-SCS-MP2 Energies <==================
	-----------------------------------------------------------
	 SCS Same-Spin Scale       =       0.3333333333333333 [-]
	 SCS Opposite-Spin Scale   =       1.2000000000000000 [-]
	 SCS Same-Spin Energy      =      -0.1000168158603124 [Eh]
	 SCS Opposite-Spin Energy  =      -1.1715585824160650 [Eh]
	 SCS Correlation Energy    =      -1.2715753982763773 [Eh]
	 SCS Total Energy          =    -271.0969794149101517 [Eh]
	-----------------------------------------------------------

  Dipole Moment: [D]
     X:    -0.4607      Y:    -0.0000      Z:     0.0425     Total:     0.4627

*** Psi4 exiting successfully. Buy a developer a beer!
