                               Psi4 1.3.2 release

  ==> Input File <==

--------------------------------------------------------------------------
#psi4
#
memory 32 gb

molecule  {
0 1
  C       -2.4205560     0.0000000     0.0118300
  C        1.9026710    -0.0000040     0.0093960
  C        1.1996400    -1.2063010     0.0018590
  C        1.1996470     1.2062960     0.0018580
  C       -0.1961990    -1.2029620    -0.0082140
  C       -0.1961940     1.2029670    -0.0082130
  C       -0.9136400     0.0000050    -0.0165360
  H        2.9899420    -0.0000050     0.0144970
  H        1.7382270    -2.1512330     0.0030650
  H        1.7382400     2.1512250     0.0030610
  H       -0.7371330    -2.1480740    -0.0183500
  H       -0.7371210     2.1480830    -0.0183460
  H       -2.8237680    -0.8851500    -0.4884320
  H       -2.8237700     0.8853450    -0.4880880
  H       -2.7968300    -0.0002010     1.0407190
units angstrom
no_reorient  #important for SAPT in psi4, default
symmetry c1  #important for SAPT in psi4, default
}

set PROPERTIES_ORIGIN ["COM"]
properties('MP2/aug-cc-pvtz', properties = ['dipole'])
--------------------------------------------------------------------------

    Molecular point group: c1
  Charge       = 0
  Multiplicity = 1
  Basis Set: AUG-CC-PVTZ
    Blend: AUG-CC-PVTZ
  Basis Set: (AUG-CC-PVTZ AUX)
    Blend: AUG-CC-PVTZ-JKFIT

    Orbital Energies [Eh]
    ---------------------

    Doubly Occupied:

       1A    -11.242195     2A    -11.234887     3A    -11.234731
       4A    -11.230555     5A    -11.230010     6A    -11.229929
       7A    -11.224611     8A     -1.150124     9A     -1.042896
      10A     -1.009770    11A     -0.931221    12A     -0.823273
      13A     -0.795954    14A     -0.690513    15A     -0.631603
      16A     -0.630330    17A     -0.581944    18A     -0.575771
      19A     -0.565297    20A     -0.538091    21A     -0.487402
      22A     -0.486400    23A     -0.485079    24A     -0.333967
      25A     -0.323480

  @DF-RHF Final Energy:  -269.82994726575959

   => Energetics <=

    Nuclear Repulsion Energy =            268.7865201827639225
    One-Electron Energy =                -895.8128676704372992
    Two-Electron Energy =                 357.1964002219137342
    Total Energy =                       -269.8299472657595857
  Basis Set: (AUG-CC-PVTZ AUX)
    Blend: AUG-CC-PVTZ-RI
    Molecular point group: c1

    Geometry (in Angstrom), charge = 0, multiplicity = 1:

       Center              X                  Y                   Z               Mass
    ------------   -----------------  -----------------  -----------------  -----------------
         C           -2.457761133381    -0.000000020874     0.012348532090    12.000000000000
         C            1.865465866619    -0.000004020874     0.009914532090    12.000000000000
         C            1.162434866619    -1.206301020874     0.002377532090    12.000000000000
         C            1.162441866619     1.206295979126     0.002376532090    12.000000000000
         C           -0.233404133381    -1.202962020874    -0.007695467910    12.000000000000
         C           -0.233399133381     1.202966979126    -0.007694467910    12.000000000000
         C           -0.950845133381     0.000004979126    -0.016017467910    12.000000000000
         H            2.952736866619    -0.000005020874     0.015015532090     1.007825032230
         H            1.701021866619    -2.151233020874     0.003583532090     1.007825032230
         H            1.701034866619     2.151224979126     0.003579532090     1.007825032230
         H           -0.774338133381    -2.148074020874    -0.017831467910     1.007825032230
         H           -0.774326133381     2.148082979126    -0.017827467910     1.007825032230
         H           -2.860973133381    -0.885150020874    -0.487913467910     1.007825032230
         H           -2.860975133381     0.885344979126    -0.487569467910     1.007825032230
         H           -2.834035133381    -0.000201020874     1.041237532090     1.007825032230

  Basis Set: AUG-CC-PVTZ
    Blend: AUG-CC-PVTZ
  Basis Set: (AUG-CC-PVTZ AUX)
    Blend: AUG-CC-PVTZ-JKFIT
	 Reference Energy          =    -269.8299472657595857 [Eh]
	 Singles Energy            =      -0.0000000000000000 [Eh]
	 Same-Spin Energy          =      -0.2994766998922715 [Eh]
	 Opposite-Spin Energy      =      -0.9753672243772915 [Eh]
	 Correlation Energy        =      -1.2748439242695631 [Eh]
	 Total Energy              =    -271.1047911900291751 [Eh]

	 ================> DF-SCS-MP2 Energies <==================
	-----------------------------------------------------------
	 SCS Same-Spin Scale       =       0.3333333333333333 [-]
	 SCS Opposite-Spin Scale   =       1.2000000000000000 [-]
	 SCS Same-Spin Energy      =      -0.0998255666307572 [Eh]
	 SCS Opposite-Spin Energy  =      -1.1704406692527498 [Eh]
	 SCS Correlation Energy    =      -1.2702662358835071 [Eh]
	 SCS Total Energy          =    -271.1002135016431112 [Eh]
	-----------------------------------------------------------

  Dipole Moment: [D]
     X:    -0.3788      Y:    -0.0000      Z:     0.0370     Total:     0.3806

*** Psi4 exiting successfully. Buy a developer a beer!
