                               Psi4 1.3.2 release

  ==> Input File <==

--------------------------------------------------------------------------
#psi4
#
memory 32 gb

molecule  {
0 1
  C       -2.4205560     0.0000000     0.0118300
  C        1.9026710    -0.0000040     0.0093960
  C        1.1996400    -1.2063010     0.0018590
  C        1.1996470     1.2062960     0.0018580
  C       -0.1961990    -1.2029620    -0.0082140
  C       -0.1961940     1.2029670    -0.0082130
  C       -0.9136400     0.0000050    -0.0165360
  H        2.9899420    -0.0000050     0.0144970
  H        1.7382270    -2.1512330     0.0030650
  H        1.7382400     2.1512250     0.0030610
  H       -0.7371330    -2.1480740    -0.0183500
  H       -0.7371210     2.1480830    -0.0183460
  H       -2.8237680    -0.8851500    -0.4884320
  H       -2.8237700     0.8853450    -0.4880880
  H       -2.7281377    -0.0001643     0.8528857
units angstrom
no_reorient  #important for SAPT in psi4, default
symmetry c1  #important for SAPT in psi4, default
}

set PROPERTIES_ORIGIN ["COM"]
properties('MP2/aug-cc-pvtz', properties = ['dipole'])
--------------------------------------------------------------------------

    Molecular point group: c1
  Charge       = 0
  Multiplicity = 1
  Basis Set: AUG-CC-PVTZ
    Blend: AUG-CC-PVTZ
  Basis Set: (AUG-CC-PVTZ AUX)
    Blend: AUG-CC-PVTZ-JKFIT

    Orbital Energies [Eh]
    ---------------------

    Doubly Occupied:

       1A    -11.241127     2A    -11.234497     3A    -11.234344
       4A    -11.230093     5A    -11.229459     6A    -11.229378
       7A    -11.200007     8A     -1.150330     9A     -1.050312
      10A     -1.009320    11A     -0.948824    12A     -0.822774
      13A     -0.800200    14A     -0.692708    15A     -0.631782
      16A     -0.630831    17A     -0.610920    18A     -0.581511
      19A     -0.564520    20A     -0.536599    21A     -0.491265
      22A     -0.485426    23A     -0.484523    24A     -0.333556
      25A     -0.324497

  @DF-RHF Final Energy:  -269.79634294150463

   => Energetics <=

    Nuclear Repulsion Energy =            269.7531068593488044
    One-Electron Energy =                -897.6012916310622813
    Two-Electron Energy =                 358.0518418302088435
    Total Energy =                       -269.7963429415046335
  Basis Set: (AUG-CC-PVTZ AUX)
    Blend: AUG-CC-PVTZ-RI
    Molecular point group: c1

    Geometry (in Angstrom), charge = 0, multiplicity = 1:

       Center              X                  Y                   Z               Mass
    ------------   -----------------  -----------------  -----------------  -----------------
         C           -2.458513119739    -0.000000422636     0.014404775354    12.000000000000
         C            1.864713880261    -0.000004422636     0.011970775354    12.000000000000
         C            1.161682880261    -1.206301422636     0.004433775354    12.000000000000
         C            1.161689880261     1.206295577364     0.004432775354    12.000000000000
         C           -0.234156119739    -1.202962422636    -0.005639224646    12.000000000000
         C           -0.234151119739     1.202966577364    -0.005638224646    12.000000000000
         C           -0.951597119739     0.000004577364    -0.013961224646    12.000000000000
         H            2.951984880261    -0.000005422636     0.017071775354     1.007825032230
         H            1.700269880261    -2.151233422636     0.005639775354     1.007825032230
         H            1.700282880261     2.151224577364     0.005635775354     1.007825032230
         H           -0.775090119739    -2.148074422636    -0.015775224646     1.007825032230
         H           -0.775078119739     2.148082577364    -0.015771224646     1.007825032230
         H           -2.861725119739    -0.885150422636    -0.485857224646     1.007825032230
         H           -2.861727119739     0.885344577364    -0.485513224646     1.007825032230
         H           -2.766094819739    -0.000164722636     0.855460475354     1.007825032230

  Basis Set: AUG-CC-PVTZ
    Blend: AUG-CC-PVTZ
  Basis Set: (AUG-CC-PVTZ AUX)
    Blend: AUG-CC-PVTZ-JKFIT
	 Reference Energy          =    -269.7963429415046335 [Eh]
	 Singles Energy            =      -0.0000000000000000 [Eh]
	 Same-Spin Energy          =      -0.2996079176043783 [Eh]
	 Opposite-Spin Energy      =      -0.9747867550404214 [Eh]
	 Correlation Energy        =      -1.2743946726447997 [Eh]
	 Total Energy              =    -271.0707376141494365 [Eh]

	 ================> DF-SCS-MP2 Energies <==================
	-----------------------------------------------------------
	 SCS Same-Spin Scale       =       0.3333333333333333 [-]
	 SCS Opposite-Spin Scale   =       1.2000000000000000 [-]
	 SCS Same-Spin Energy      =      -0.0998693058681261 [Eh]
	 SCS Opposite-Spin Energy  =      -1.1697441060485056 [Eh]
	 SCS Correlation Energy    =      -1.2696134119166318 [Eh]
	 SCS Total Energy          =    -271.0659563534212566 [Eh]
	-----------------------------------------------------------

  Dipole Moment: [D]
     X:    -0.4329      Y:    -0.0000      Z:     0.0790     Total:     0.4401

*** Psi4 exiting successfully. Buy a developer a beer!
