                               Psi4 1.4a3.dev225

  ==> Input File <==

--------------------------------------------------------------------------
#psi4
#
memory 32 gb

molecule  {
0 1
  C       -2.4205580     0.0000000     0.0118250
  C        1.9026740    -0.0000010     0.0093850
  C        1.1996440    -1.2062980     0.0018670
  C        1.1996450     1.2062970     0.0018670
  C       -0.1961960    -1.2029630    -0.0082190
  C       -0.1961960     1.2029630    -0.0082190
  C       -0.9336395     0.0000010    -0.0161518
  H        2.9899450     0.0000000     0.0144850
  H        1.7382350    -2.1512280     0.0030590
  H        1.7382370     2.1512270     0.0030580
  H       -0.7371310    -2.1480750    -0.0183270
  H       -0.7371290     2.1480760    -0.0183270
  H       -2.8237650    -0.8852380    -0.4882860
  H       -2.8237650     0.8852570    -0.4882510
  H       -2.7968510    -0.0000200     1.0407090
units angstrom
no_reorient  #important for SAPT in psi4, default
symmetry c1  #important for SAPT in psi4, default
}

set PROPERTIES_ORIGIN ["COM"]
properties('MP2/aug-cc-pvtz', properties = ['dipole'])
--------------------------------------------------------------------------

    Molecular point group: c1
  Charge       = 0
  Multiplicity = 1
  Basis Set: AUG-CC-PVTZ
    Blend: AUG-CC-PVTZ
  Basis Set: (AUG-CC-PVTZ AUX)
    Blend: AUG-CC-PVTZ-JKFIT

    Orbital Energies [Eh]
    ---------------------

    Doubly Occupied:

       1A    -11.243644     2A    -11.234839     3A    -11.234682
       4A    -11.231010     5A    -11.231008     6A    -11.230571
       7A    -11.224332     8A     -1.148490     9A     -1.045419
      10A     -1.008679    11A     -0.932209    12A     -0.821943
      13A     -0.795405    14A     -0.689959    15A     -0.631730
      16A     -0.631324    17A     -0.580304    18A     -0.577780
      19A     -0.567133    20A     -0.538694    21A     -0.490727
      22A     -0.485792    23A     -0.481695    24A     -0.333605
      25A     -0.321587

  @DF-RHF Final Energy:  -269.82892891054667

   => Energetics <=

    Nuclear Repulsion Energy =            268.6196301803995539
    One-Electron Energy =                -895.4719966496210191
    Two-Electron Energy =                 357.0234375586748001
    Total Energy =                       -269.8289289105466651
  Basis Set: (AUG-CC-PVTZ AUX)
    Blend: AUG-CC-PVTZ-RI
    Molecular point group: c1

    Geometry (in Angstrom), charge = 0, multiplicity = 1:

       Center              X                  Y                   Z               Mass
    ------------   -----------------  -----------------  -----------------  -----------------
         C           -2.455156677715     0.000000141293     0.012294822266    12.000000000000
         C            1.868075322285    -0.000000858707     0.009854822266    12.000000000000
         C            1.165045322285    -1.206297858707     0.002336822266    12.000000000000
         C            1.165046322285     1.206297141293     0.002336822266    12.000000000000
         C           -0.230794677715    -1.202962858707    -0.007749177734    12.000000000000
         C           -0.230794677715     1.202963141293    -0.007749177734    12.000000000000
         C           -0.968238177715     0.000001141293    -0.015681977734    12.000000000000
         H            2.955346322285     0.000000141293     0.014954822266     1.007825032230
         H            1.703636322285    -2.151227858707     0.003528822266     1.007825032230
         H            1.703638322285     2.151227141293     0.003527822266     1.007825032230
         H           -0.771729677715    -2.148074858707    -0.017857177734     1.007825032230
         H           -0.771727677715     2.148076141293    -0.017857177734     1.007825032230
         H           -2.858363677715    -0.885237858707    -0.487816177734     1.007825032230
         H           -2.858363677715     0.885257141293    -0.487781177734     1.007825032230
         H           -2.831449677715    -0.000019858707     1.041178822266     1.007825032230

  Basis Set: AUG-CC-PVTZ
    Blend: AUG-CC-PVTZ
  Basis Set: (AUG-CC-PVTZ AUX)
    Blend: AUG-CC-PVTZ-JKFIT
	 Reference Energy          =    -269.8289289105466651 [Eh]
	 Singles Energy            =      -0.0000000000000000 [Eh]
	 Same-Spin Energy          =      -0.2996738767874088 [Eh]
	 Opposite-Spin Energy      =      -0.9756841877354119 [Eh]
	 Correlation Energy        =      -1.2753580645228206 [Eh]
	 Total Energy              =    -271.1042869750694990 [Eh]

	 ================> DF-SCS-MP2 Energies <==================
	-----------------------------------------------------------
	 SCS Same-Spin Scale       =       0.3333333333333333 [-]
	 SCS Opposite-Spin Scale   =       1.2000000000000000 [-]
	 SCS Same-Spin Energy      =      -0.0998912922624696 [Eh]
	 SCS Opposite-Spin Energy  =      -1.1708210252824942 [Eh]
	 SCS Correlation Energy    =      -1.2707123175449637 [Eh]
	 SCS Total Energy          =    -271.0996412280916275 [Eh]
	-----------------------------------------------------------

  Dipole Moment: [D]
     X:    -0.4111      Y:    -0.0000      Z:     0.0391     Total:     0.4130

*** Psi4 exiting successfully. Buy a developer a beer!
