                               Psi4 1.3.2 release

  ==> Input File <==

--------------------------------------------------------------------------
#psi4
#
memory 32 gb

molecule  {
0 1
  C       -2.4205560     0.0000000     0.0118300
  C        1.9026710    -0.0000040     0.0093960
  C        1.1996400    -1.2063010     0.0018590
  C        1.1996470     1.2062960     0.0018580
  C       -0.1961990    -1.2029620    -0.0082140
  C       -0.1961940     1.2029670    -0.0082130
  C       -0.9143646     0.0000101    -0.0428310
  H        2.9899420    -0.0000050     0.0144970
  H        1.7382270    -2.1512330     0.0030650
  H        1.7382400     2.1512250     0.0030610
  H       -0.7371330    -2.1480740    -0.0183500
  H       -0.7371210     2.1480830    -0.0183460
  H       -2.8237680    -0.8851500    -0.4884320
  H       -2.8237700     0.8853450    -0.4880880
  H       -2.7968300    -0.0002010     1.0407190
units angstrom
no_reorient  #important for SAPT in psi4, default
symmetry c1  #important for SAPT in psi4, default
}

set PROPERTIES_ORIGIN ["COM"]
properties('MP2/aug-cc-pvtz', properties = ['dipole'])
--------------------------------------------------------------------------

    Molecular point group: c1
  Charge       = 0
  Multiplicity = 1
  Basis Set: AUG-CC-PVTZ
    Blend: AUG-CC-PVTZ
  Basis Set: (AUG-CC-PVTZ AUX)
    Blend: AUG-CC-PVTZ-JKFIT

    Orbital Energies [Eh]
    ---------------------

    Doubly Occupied:

       1A    -11.242235     2A    -11.234920     3A    -11.234758
       4A    -11.230747     5A    -11.230198     6A    -11.230116
       7A    -11.224572     8A     -1.150027     9A     -1.042876
      10A     -1.009765    11A     -0.931142    12A     -0.823204
      13A     -0.795959    14A     -0.690553    15A     -0.631608
      16A     -0.630325    17A     -0.581897    18A     -0.576000
      19A     -0.564857    20A     -0.537994    21A     -0.488546
      22A     -0.485295    23A     -0.484844    24A     -0.333966
      25A     -0.323562

  @DF-RHF Final Energy:  -269.82953355389276

   => Energetics <=

    Nuclear Repulsion Energy =            268.7618801512801383
    One-Electron Energy =                -895.7628940227800740
    Two-Electron Energy =                 357.1714803176071769
    Total Energy =                       -269.8295335538927588
  Basis Set: (AUG-CC-PVTZ AUX)
    Blend: AUG-CC-PVTZ-RI
    Molecular point group: c1

    Geometry (in Angstrom), charge = 0, multiplicity = 1:

       Center              X                  Y                   Z               Mass
    ------------   -----------------  -----------------  -----------------  -----------------
         C           -2.457666684604    -0.000000685639     0.015775982532    12.000000000000
         C            1.865560315396    -0.000004685639     0.013341982532    12.000000000000
         C            1.162529315396    -1.206301685639     0.005804982532    12.000000000000
         C            1.162536315396     1.206295314361     0.005803982532    12.000000000000
         C           -0.233309684604    -1.202962685639    -0.004268017468    12.000000000000
         C           -0.233304684604     1.202966314361    -0.004267017468    12.000000000000
         C           -0.951475284604     0.000009414361    -0.038885017468    12.000000000000
         H            2.952831315396    -0.000005685639     0.018442982532     1.007825032230
         H            1.701116315396    -2.151233685639     0.007010982532     1.007825032230
         H            1.701129315396     2.151224314361     0.007006982532     1.007825032230
         H           -0.774243684604    -2.148074685639    -0.014404017468     1.007825032230
         H           -0.774231684604     2.148082314361    -0.014400017468     1.007825032230
         H           -2.860878684604    -0.885150685639    -0.484486017468     1.007825032230
         H           -2.860880684604     0.885344314361    -0.484142017468     1.007825032230
         H           -2.833940684604    -0.000201685639     1.044664982532     1.007825032230

  Basis Set: AUG-CC-PVTZ
    Blend: AUG-CC-PVTZ
  Basis Set: (AUG-CC-PVTZ AUX)
    Blend: AUG-CC-PVTZ-JKFIT
	 Reference Energy          =    -269.8295335538927588 [Eh]
	 Singles Energy            =      -0.0000000000000000 [Eh]
	 Same-Spin Energy          =      -0.2995017285813548 [Eh]
	 Opposite-Spin Energy      =      -0.9754292945585512 [Eh]
	 Correlation Energy        =      -1.2749310231399060 [Eh]
	 Total Energy              =    -271.1044645770326724 [Eh]

	 ================> DF-SCS-MP2 Energies <==================
	-----------------------------------------------------------
	 SCS Same-Spin Scale       =       0.3333333333333333 [-]
	 SCS Opposite-Spin Scale   =       1.2000000000000000 [-]
	 SCS Same-Spin Energy      =      -0.0998339095271183 [Eh]
	 SCS Opposite-Spin Energy  =      -1.1705151534702614 [Eh]
	 SCS Correlation Energy    =      -1.2703490629973797 [Eh]
	 SCS Total Energy          =    -271.0998826168901132 [Eh]
	-----------------------------------------------------------

  Dipole Moment: [D]
     X:    -0.3687      Y:    -0.0000      Z:     0.0492     Total:     0.3720

*** Psi4 exiting successfully. Buy a developer a beer!
