                               Psi4 1.4a3.dev225

  ==> Input File <==

--------------------------------------------------------------------------
#psi4
#
memory 32 gb

molecule  {
0 1
  C       -2.4205580     0.0000000     0.0118250
  C        1.9026740    -0.0000010     0.0093850
  C        1.1996440    -1.2062980     0.0018670
  C        1.1996450     1.2062970     0.0018670
  C       -0.1961960    -1.2029630    -0.0082190
  C       -0.1961960     1.2029630    -0.0082190
  C       -0.8936465     0.0000010    -0.0169042
  H        2.9899450     0.0000000     0.0144850
  H        1.7382350    -2.1512280     0.0030590
  H        1.7382370     2.1512270     0.0030580
  H       -0.7371310    -2.1480750    -0.0183270
  H       -0.7371290     2.1480760    -0.0183270
  H       -2.8237650    -0.8852380    -0.4882860
  H       -2.8237650     0.8852570    -0.4882510
  H       -2.7968510    -0.0000200     1.0407090
units angstrom
no_reorient  #important for SAPT in psi4, default
symmetry c1  #important for SAPT in psi4, default
}

set PROPERTIES_ORIGIN ["COM"]
properties('MP2/aug-cc-pvtz', properties = ['dipole'])
--------------------------------------------------------------------------

    Molecular point group: c1
  Charge       = 0
  Multiplicity = 1
  Basis Set: AUG-CC-PVTZ
    Blend: AUG-CC-PVTZ
  Basis Set: (AUG-CC-PVTZ AUX)
    Blend: AUG-CC-PVTZ-JKFIT

    Orbital Energies [Eh]
    ---------------------

    Doubly Occupied:

       1A    -11.240813     2A    -11.234955     3A    -11.234804
       4A    -11.230439     5A    -11.229030     6A    -11.228955
       7A    -11.224831     8A     -1.151871     9A     -1.040627
      10A     -1.010925    11A     -0.930122    12A     -0.824611
      13A     -0.796457    14A     -0.691095    15A     -0.631609
      16A     -0.629495    17A     -0.583661    18A     -0.573868
      19A     -0.563526    20A     -0.537469    21A     -0.488706
      22A     -0.488259    23A     -0.482029    24A     -0.334350
      25A     -0.325306

  @DF-RHF Final Energy:  -269.82994306784872

   => Energetics <=

    Nuclear Repulsion Energy =            268.9589065887826109
    One-Electron Energy =                -896.1620758747351374
    Two-Electron Energy =                 357.3732262181038095
    Total Energy =                       -269.8299430678487170
  Basis Set: (AUG-CC-PVTZ AUX)
    Blend: AUG-CC-PVTZ-RI
    Molecular point group: c1

    Geometry (in Angstrom), charge = 0, multiplicity = 1:

       Center              X                  Y                   Z               Mass
    ------------   -----------------  -----------------  -----------------  -----------------
         C           -2.460369608902     0.000000141293     0.012392894664    12.000000000000
         C            1.862862391098    -0.000000858707     0.009952894664    12.000000000000
         C            1.159832391098    -1.206297858707     0.002434894664    12.000000000000
         C            1.159833391098     1.206297141293     0.002434894664    12.000000000000
         C           -0.236007608902    -1.202962858707    -0.007651105336    12.000000000000
         C           -0.236007608902     1.202963141293    -0.007651105336    12.000000000000
         C           -0.933458108902     0.000001141293    -0.016336305336    12.000000000000
         H            2.950133391098     0.000000141293     0.015052894664     1.007825032230
         H            1.698423391098    -2.151227858707     0.003626894664     1.007825032230
         H            1.698425391098     2.151227141293     0.003625894664     1.007825032230
         H           -0.776942608902    -2.148074858707    -0.017759105336     1.007825032230
         H           -0.776940608902     2.148076141293    -0.017759105336     1.007825032230
         H           -2.863576608902    -0.885237858707    -0.487718105336     1.007825032230
         H           -2.863576608902     0.885257141293    -0.487683105336     1.007825032230
         H           -2.836662608902    -0.000019858707     1.041276894664     1.007825032230

  Basis Set: AUG-CC-PVTZ
    Blend: AUG-CC-PVTZ
  Basis Set: (AUG-CC-PVTZ AUX)
    Blend: AUG-CC-PVTZ-JKFIT
	 Reference Energy          =    -269.8299430678487170 [Eh]
	 Singles Energy            =      -0.0000000000000000 [Eh]
	 Same-Spin Energy          =      -0.2993218242579821 [Eh]
	 Opposite-Spin Energy      =      -0.9751241343569347 [Eh]
	 Correlation Energy        =      -1.2744459586149168 [Eh]
	 Total Energy              =    -271.1043890264636502 [Eh]

	 ================> DF-SCS-MP2 Energies <==================
	-----------------------------------------------------------
	 SCS Same-Spin Scale       =       0.3333333333333333 [-]
	 SCS Opposite-Spin Scale   =       1.2000000000000000 [-]
	 SCS Same-Spin Energy      =      -0.0997739414193274 [Eh]
	 SCS Opposite-Spin Energy  =      -1.1701489612283216 [Eh]
	 SCS Correlation Energy    =      -1.2699229026476488 [Eh]
	 SCS Total Energy          =    -271.0998659704963529 [Eh]
	-----------------------------------------------------------

  Dipole Moment: [D]
     X:    -0.3467      Y:    -0.0000      Z:     0.0351     Total:     0.3485

*** Psi4 exiting successfully. Buy a developer a beer!
