                               Psi4 1.3.2 release

  ==> Input File <==

--------------------------------------------------------------------------
#psi4
#
memory 32 gb

molecule  {
0 1
  C       -2.4205560     0.0000000     0.0118300
  C        1.9026710    -0.0000040     0.0093960
  C        1.1996400    -1.2063010     0.0018590
  C        1.1996470     1.2062960     0.0018580
  C       -0.1961990    -1.2029620    -0.0082140
  C       -0.1961940     1.2029670    -0.0082130
  C       -0.9153321    -0.0000156     0.0886502
  H        2.9899420    -0.0000050     0.0144970
  H        1.7382270    -2.1512330     0.0030650
  H        1.7382400     2.1512250     0.0030610
  H       -0.7371330    -2.1480740    -0.0183500
  H       -0.7371210     2.1480830    -0.0183460
  H       -2.8237680    -0.8851500    -0.4884320
  H       -2.8237700     0.8853450    -0.4880880
  H       -2.7968300    -0.0002010     1.0407190
units angstrom
no_reorient  #important for SAPT in psi4, default
symmetry c1  #important for SAPT in psi4, default
}

set PROPERTIES_ORIGIN ["COM"]
properties('MP2/aug-cc-pvtz', properties = ['dipole'])
--------------------------------------------------------------------------

    Molecular point group: c1
  Charge       = 0
  Multiplicity = 1
  Basis Set: AUG-CC-PVTZ
    Blend: AUG-CC-PVTZ
  Basis Set: (AUG-CC-PVTZ AUX)
    Blend: AUG-CC-PVTZ-JKFIT

    Orbital Energies [Eh]
    ---------------------

    Doubly Occupied:

       1A    -11.243413     2A    -11.234661     3A    -11.234501
       4A    -11.230714     5A    -11.230691     6A    -11.230390
       7A    -11.224708     8A     -1.149531     9A     -1.042790
      10A     -1.009452    11A     -0.931037    12A     -0.822425
      13A     -0.795710    14A     -0.690247    15A     -0.630967
      16A     -0.630728    17A     -0.581670    18A     -0.576778
      19A     -0.564247    20A     -0.538336    21A     -0.490760
      22A     -0.484750    23A     -0.481662    24A     -0.333344
      25A     -0.322741

  @DF-RHF Final Energy:  -269.82623160638582

   => Energetics <=

    Nuclear Repulsion Energy =            268.6778050326375364
    One-Electron Energy =                -895.5955628903972183
    Two-Electron Energy =                 357.0915262513738071
    Total Energy =                       -269.8262316063858179
  Basis Set: (AUG-CC-PVTZ AUX)
    Blend: AUG-CC-PVTZ-RI
    Molecular point group: c1

    Geometry (in Angstrom), charge = 0, multiplicity = 1:

       Center              X                  Y                   Z               Mass
    ------------   -----------------  -----------------  -----------------  -----------------
         C           -2.457540574762     0.000002664255    -0.001362077826    12.000000000000
         C            1.865686425238    -0.000001335745    -0.003796077826    12.000000000000
         C            1.162655425238    -1.206298335745    -0.011333077826    12.000000000000
         C            1.162662425238     1.206298664255    -0.011334077826    12.000000000000
         C           -0.233183574762    -1.202959335745    -0.021406077826    12.000000000000
         C           -0.233178574762     1.202969664255    -0.021405077826    12.000000000000
         C           -0.952316674762    -0.000012935745     0.075458122174    12.000000000000
         H            2.952957425238    -0.000002335745     0.001304922174     1.007825032230
         H            1.701242425238    -2.151230335745    -0.010127077826     1.007825032230
         H            1.701255425238     2.151227664255    -0.010131077826     1.007825032230
         H           -0.774117574762    -2.148071335745    -0.031542077826     1.007825032230
         H           -0.774105574762     2.148085664255    -0.031538077826     1.007825032230
         H           -2.860752574762    -0.885147335745    -0.501624077826     1.007825032230
         H           -2.860754574762     0.885347664255    -0.501280077826     1.007825032230
         H           -2.833814574762    -0.000198335745     1.027526922174     1.007825032230

  Basis Set: AUG-CC-PVTZ
    Blend: AUG-CC-PVTZ
  Basis Set: (AUG-CC-PVTZ AUX)
    Blend: AUG-CC-PVTZ-JKFIT
	 Reference Energy          =    -269.8262316063858179 [Eh]
	 Singles Energy            =      -0.0000000000000000 [Eh]
	 Same-Spin Energy          =      -0.2996495782725440 [Eh]
	 Opposite-Spin Energy      =      -0.9758366267569181 [Eh]
	 Correlation Energy        =      -1.2754862050294622 [Eh]
	 Total Energy              =    -271.1017178114152557 [Eh]

	 ================> DF-SCS-MP2 Energies <==================
	-----------------------------------------------------------
	 SCS Same-Spin Scale       =       0.3333333333333333 [-]
	 SCS Opposite-Spin Scale   =       1.2000000000000000 [-]
	 SCS Same-Spin Energy      =      -0.0998831927575147 [Eh]
	 SCS Opposite-Spin Energy  =      -1.1710039521083015 [Eh]
	 SCS Correlation Energy    =      -1.2708871448658163 [Eh]
	 SCS Total Energy          =    -271.0971187512516281 [Eh]
	-----------------------------------------------------------

  Dipole Moment: [D]
     X:    -0.3925      Y:    -0.0000      Z:    -0.0107     Total:     0.3926

*** Psi4 exiting successfully. Buy a developer a beer!
