                               Psi4 1.4a3.dev225

  ==> Input File <==

--------------------------------------------------------------------------
#psi4
#
memory 32 gb

molecule  {
0 1
  C       -2.4205580     0.0000000     0.0118250
  C        1.9026740    -0.0000010     0.0093850
  C        1.1996440    -1.2062980     0.0018670
  C        1.1996450     1.2062970     0.0018670
  C       -0.1961960    -1.2029630    -0.0082190
  C       -0.1961960     1.2029630    -0.0082190
  C       -0.9136430     0.0000010    -0.0165280
  H        2.9899450     0.0000000     0.0144850
  H        1.7382350    -2.1512280     0.0030590
  H        1.7382370     2.1512270     0.0030580
  H       -0.7371310    -2.1480750    -0.0183270
  H       -0.7371290     2.1480760    -0.0183270
  H       -2.8237650    -0.8852380    -0.4882860
  H       -2.8237650     0.8852570    -0.4882510
  H       -2.8037206    -0.0000204     1.0594922
units angstrom
no_reorient  #important for SAPT in psi4, default
symmetry c1  #important for SAPT in psi4, default
}

set PROPERTIES_ORIGIN ["COM"]
properties('MP2/aug-cc-pvtz', properties = ['dipole'])
--------------------------------------------------------------------------

    Molecular point group: c1
  Charge       = 0
  Multiplicity = 1
  Basis Set: AUG-CC-PVTZ
    Blend: AUG-CC-PVTZ
  Basis Set: (AUG-CC-PVTZ AUX)
    Blend: AUG-CC-PVTZ-JKFIT

    Orbital Energies [Eh]
    ---------------------

    Doubly Occupied:

       1A    -11.242341     2A    -11.234954     3A    -11.234797
       4A    -11.230650     5A    -11.230114     6A    -11.230033
       7A    -11.227007     8A     -1.150171     9A     -1.042524
      10A     -1.009849    11A     -0.929972    12A     -0.823358
      13A     -0.795670    14A     -0.690432    15A     -0.631729
      16A     -0.630360    17A     -0.582021    18A     -0.572226
      19A     -0.565361    20A     -0.538330    21A     -0.486833
      22A     -0.486546    23A     -0.485172    24A     -0.334036
      25A     -0.323394

  @DF-RHF Final Energy:  -269.82944083366658

   => Energetics <=

    Nuclear Repulsion Energy =            268.7034556165089612
    One-Electron Energy =                -895.6500333832960905
    Two-Electron Energy =                 357.1171369331206051
    Total Energy =                       -269.8294408336665811
  Basis Set: (AUG-CC-PVTZ AUX)
    Blend: AUG-CC-PVTZ-RI
    Molecular point group: c1

    Geometry (in Angstrom), charge = 0, multiplicity = 1:

       Center              X                  Y                   Z               Mass
    ------------   -----------------  -----------------  -----------------  -----------------
         C           -2.457687940622     0.000000145672     0.012138235562    12.000000000000
         C            1.865544059378    -0.000000854328     0.009698235562    12.000000000000
         C            1.162514059378    -1.206297854328     0.002180235562    12.000000000000
         C            1.162515059378     1.206297145672     0.002180235562    12.000000000000
         C           -0.233325940622    -1.202962854328    -0.007905764438    12.000000000000
         C           -0.233325940622     1.202963145672    -0.007905764438    12.000000000000
         C           -0.950772940622     0.000001145672    -0.016214764438    12.000000000000
         H            2.952815059378     0.000000145672     0.014798235562     1.007825032230
         H            1.701105059378    -2.151227854328     0.003372235562     1.007825032230
         H            1.701107059378     2.151227145672     0.003371235562     1.007825032230
         H           -0.774260940622    -2.148074854328    -0.018013764438     1.007825032230
         H           -0.774258940622     2.148076145672    -0.018013764438     1.007825032230
         H           -2.860894940622    -0.885237854328    -0.487972764438     1.007825032230
         H           -2.860894940622     0.885257145672    -0.487937764438     1.007825032230
         H           -2.840850540622    -0.000020254328     1.059805435562     1.007825032230

  Basis Set: AUG-CC-PVTZ
    Blend: AUG-CC-PVTZ
  Basis Set: (AUG-CC-PVTZ AUX)
    Blend: AUG-CC-PVTZ-JKFIT
	 Reference Energy          =    -269.8294408336665811 [Eh]
	 Singles Energy            =      -0.0000000000000000 [Eh]
	 Same-Spin Energy          =      -0.2994728200794868 [Eh]
	 Opposite-Spin Energy      =      -0.9754870082353577 [Eh]
	 Correlation Energy        =      -1.2749598283148444 [Eh]
	 Total Energy              =    -271.1044006619814013 [Eh]

	 ================> DF-SCS-MP2 Energies <==================
	-----------------------------------------------------------
	 SCS Same-Spin Scale       =       0.3333333333333333 [-]
	 SCS Opposite-Spin Scale   =       1.2000000000000000 [-]
	 SCS Same-Spin Energy      =      -0.0998242733598289 [Eh]
	 SCS Opposite-Spin Energy  =      -1.1705844098824292 [Eh]
	 SCS Correlation Energy    =      -1.2704086832422581 [Eh]
	 SCS Total Energy          =    -271.0998495169088187 [Eh]
	-----------------------------------------------------------

  Dipole Moment: [D]
     X:    -0.3696      Y:    -0.0000      Z:     0.0297     Total:     0.3708

*** Psi4 exiting successfully. Buy a developer a beer!
