                               Psi4 1.3.2 release

  ==> Input File <==

--------------------------------------------------------------------------
#psi4
#
memory 32 gb

molecule  {
0 1
  C       -2.4205560     0.0000000     0.0118300
  C        1.9026710    -0.0000040     0.0093960
  C        1.1996400    -1.2063010     0.0018590
  C        1.1996470     1.2062960     0.0018580
  C       -0.1961990    -1.2029620    -0.0082140
  C       -0.1961940     1.2029670    -0.0082130
  C       -0.9135680    -0.0000053     0.0360719
  H        2.9899420    -0.0000050     0.0144970
  H        1.7382270    -2.1512330     0.0030650
  H        1.7382400     2.1512250     0.0030610
  H       -0.7371330    -2.1480740    -0.0183500
  H       -0.7371210     2.1480830    -0.0183460
  H       -2.8237680    -0.8851500    -0.4884320
  H       -2.8237700     0.8853450    -0.4880880
  H       -2.7968300    -0.0002010     1.0407190
units angstrom
no_reorient  #important for SAPT in psi4, default
symmetry c1  #important for SAPT in psi4, default
}

set PROPERTIES_ORIGIN ["COM"]
properties('MP2/aug-cc-pvtz', properties = ['dipole'])
--------------------------------------------------------------------------

    Molecular point group: c1
  Charge       = 0
  Multiplicity = 1
  Basis Set: AUG-CC-PVTZ
    Blend: AUG-CC-PVTZ
  Basis Set: (AUG-CC-PVTZ AUX)
    Blend: AUG-CC-PVTZ-JKFIT

    Orbital Energies [Eh]
    ---------------------

    Doubly Occupied:

       1A    -11.242527     2A    -11.234789     3A    -11.234637
       4A    -11.230393     5A    -11.230063     6A    -11.229970
       7A    -11.224671     8A     -1.150022     9A     -1.042878
      10A     -1.009675    11A     -0.931228    12A     -0.823070
      13A     -0.795875    14A     -0.690399    15A     -0.631332
      16A     -0.630522    17A     -0.581898    18A     -0.575915
      19A     -0.565307    20A     -0.538242    21A     -0.488784
      22A     -0.485166    23A     -0.484569    24A     -0.333778
      25A     -0.323189

  @DF-RHF Final Energy:  -269.82916777011690

   => Energetics <=

    Nuclear Repulsion Energy =            268.7735017114487732
    One-Electron Energy =                -895.7875389368606420
    Two-Electron Energy =                 357.1848694552949155
    Total Energy =                       -269.8291677701168965
  Basis Set: (AUG-CC-PVTZ AUX)
    Blend: AUG-CC-PVTZ-RI
    Molecular point group: c1

    Geometry (in Angstrom), charge = 0, multiplicity = 1:

       Center              X                  Y                   Z               Mass
    ------------   -----------------  -----------------  -----------------  -----------------
         C           -2.457770518300     0.000001321690     0.005491298010    12.000000000000
         C            1.865456481700    -0.000002678310     0.003057298010    12.000000000000
         C            1.162425481700    -1.206299678310    -0.004479701990    12.000000000000
         C            1.162432481700     1.206297321690    -0.004480701990    12.000000000000
         C           -0.233413518300    -1.202960678310    -0.014552701990    12.000000000000
         C           -0.233408518300     1.202968321690    -0.014551701990    12.000000000000
         C           -0.950782518300    -0.000003978310     0.029733198010    12.000000000000
         H            2.952727481700    -0.000003678310     0.008158298010     1.007825032230
         H            1.701012481700    -2.151231678310    -0.003273701990     1.007825032230
         H            1.701025481700     2.151226321690    -0.003277701990     1.007825032230
         H           -0.774347518300    -2.148072678310    -0.024688701990     1.007825032230
         H           -0.774335518300     2.148084321690    -0.024684701990     1.007825032230
         H           -2.860982518300    -0.885148678310    -0.494770701990     1.007825032230
         H           -2.860984518300     0.885346321690    -0.494426701990     1.007825032230
         H           -2.834044518300    -0.000199678310     1.034380298010     1.007825032230

  Basis Set: AUG-CC-PVTZ
    Blend: AUG-CC-PVTZ
  Basis Set: (AUG-CC-PVTZ AUX)
    Blend: AUG-CC-PVTZ-JKFIT
	 Reference Energy          =    -269.8291677701168965 [Eh]
	 Singles Energy            =      -0.0000000000000000 [Eh]
	 Same-Spin Energy          =      -0.2995090890458104 [Eh]
	 Opposite-Spin Energy      =      -0.9754508603693639 [Eh]
	 Correlation Energy        =      -1.2749599494151742 [Eh]
	 Total Energy              =    -271.1041277195320731 [Eh]

	 ================> DF-SCS-MP2 Energies <==================
	-----------------------------------------------------------
	 SCS Same-Spin Scale       =       0.3333333333333333 [-]
	 SCS Opposite-Spin Scale   =       1.2000000000000000 [-]
	 SCS Same-Spin Energy      =      -0.0998363630152701 [Eh]
	 SCS Opposite-Spin Energy  =      -1.1705410324432366 [Eh]
	 SCS Correlation Energy    =      -1.2703773954585067 [Eh]
	 SCS Total Energy          =    -271.0995451655754209 [Eh]
	-----------------------------------------------------------

  Dipole Moment: [D]
     X:    -0.3909      Y:    -0.0000      Z:     0.0130     Total:     0.3912

*** Psi4 exiting successfully. Buy a developer a beer!
