                               Psi4 1.3.2 release

  ==> Input File <==

--------------------------------------------------------------------------
#psi4
#
memory 32 gb

molecule  {
0 1
  C       -2.4205560     0.0000000     0.0118300
  C        1.9026710    -0.0000040     0.0093960
  C        1.1996400    -1.2063010     0.0018590
  C        1.1996470     1.2062960     0.0018580
  C       -0.1961990    -1.2029620    -0.0082140
  C       -0.1961940     1.2029670    -0.0082130
  C       -0.9155479     0.0000153    -0.0691093
  H        2.9899420    -0.0000050     0.0144970
  H        1.7382270    -2.1512330     0.0030650
  H        1.7382400     2.1512250     0.0030610
  H       -0.7371330    -2.1480740    -0.0183500
  H       -0.7371210     2.1480830    -0.0183460
  H       -2.8237680    -0.8851500    -0.4884320
  H       -2.8237700     0.8853450    -0.4880880
  H       -2.7968300    -0.0002010     1.0407190
units angstrom
no_reorient  #important for SAPT in psi4, default
symmetry c1  #important for SAPT in psi4, default
}

set PROPERTIES_ORIGIN ["COM"]
properties('MP2/aug-cc-pvtz', properties = ['dipole'])
--------------------------------------------------------------------------

    Molecular point group: c1
  Charge       = 0
  Multiplicity = 1
  Basis Set: AUG-CC-PVTZ
    Blend: AUG-CC-PVTZ
  Basis Set: (AUG-CC-PVTZ AUX)
    Blend: AUG-CC-PVTZ-JKFIT

    Orbital Energies [Eh]
    ---------------------

    Doubly Occupied:

       1A    -11.242411     2A    -11.234946     3A    -11.234773
       4A    -11.231014     5A    -11.230530     6A    -11.230442
       7A    -11.224529     8A     -1.149834     9A     -1.042836
      10A     -1.009728    11A     -0.931014    12A     -0.823025
      13A     -0.795941    14A     -0.690584    15A     -0.631531
      16A     -0.630382    17A     -0.581807    18A     -0.576385
      19A     -0.564173    20A     -0.537885    21A     -0.489713
      22A     -0.484479    23A     -0.484045    24A     -0.333903
      25A     -0.323607

  @DF-RHF Final Energy:  -269.82858206457649

   => Energetics <=

    Nuclear Repulsion Energy =            268.7165755270786462
    One-Electron Energy =                -895.6712850742311502
    Two-Electron Energy =                 357.1261274825760665
    Total Energy =                       -269.8285820645764943
  Basis Set: (AUG-CC-PVTZ AUX)
    Blend: AUG-CC-PVTZ-RI
    Molecular point group: c1

    Geometry (in Angstrom), charge = 0, multiplicity = 1:

       Center              X                  Y                   Z               Mass
    ------------   -----------------  -----------------  -----------------  -----------------
         C           -2.457512446076    -0.000001363439     0.019201256195    12.000000000000
         C            1.865714553924    -0.000005363439     0.016767256195    12.000000000000
         C            1.162683553924    -1.206302363439     0.009230256195    12.000000000000
         C            1.162690553924     1.206294636561     0.009229256195    12.000000000000
         C           -0.233155446076    -1.202963363439    -0.000842743805    12.000000000000
         C           -0.233150446076     1.202965636561    -0.000841743805    12.000000000000
         C           -0.952504346076     0.000013936561    -0.061738043805    12.000000000000
         H            2.952985553924    -0.000006363439     0.021868256195     1.007825032230
         H            1.701270553924    -2.151234363439     0.010436256195     1.007825032230
         H            1.701283553924     2.151223636561     0.010432256195     1.007825032230
         H           -0.774089446076    -2.148075363439    -0.010978743805     1.007825032230
         H           -0.774077446076     2.148081636561    -0.010974743805     1.007825032230
         H           -2.860724446076    -0.885151363439    -0.481060743805     1.007825032230
         H           -2.860726446076     0.885343636561    -0.480716743805     1.007825032230
         H           -2.833786446076    -0.000202363439     1.048090256195     1.007825032230

  Basis Set: AUG-CC-PVTZ
    Blend: AUG-CC-PVTZ
  Basis Set: (AUG-CC-PVTZ AUX)
    Blend: AUG-CC-PVTZ-JKFIT
	 Reference Energy          =    -269.8285820645764943 [Eh]
	 Singles Energy            =      -0.0000000000000000 [Eh]
	 Same-Spin Energy          =      -0.2995526604118295 [Eh]
	 Opposite-Spin Energy      =      -0.9755650362983180 [Eh]
	 Correlation Energy        =      -1.2751176967101476 [Eh]
	 Total Energy              =    -271.1036997612866344 [Eh]

	 ================> DF-SCS-MP2 Energies <==================
	-----------------------------------------------------------
	 SCS Same-Spin Scale       =       0.3333333333333333 [-]
	 SCS Opposite-Spin Scale   =       1.2000000000000000 [-]
	 SCS Same-Spin Energy      =      -0.0998508868039432 [Eh]
	 SCS Opposite-Spin Energy  =      -1.1706780435579816 [Eh]
	 SCS Correlation Energy    =      -1.2705289303619247 [Eh]
	 SCS Total Energy          =    -271.0991109949384281 [Eh]
	-----------------------------------------------------------

  Dipole Moment: [D]
     X:    -0.3561      Y:    -0.0000      Z:     0.0615     Total:     0.3614

*** Psi4 exiting successfully. Buy a developer a beer!
