                               Psi4 1.3.2 release

  ==> Input File <==

--------------------------------------------------------------------------
#psi4
#
memory 32 gb

molecule  {
0 1
  C       -2.4203174    -0.0262996     0.0123027
  C        1.9026710    -0.0000040     0.0093960
  C        1.1996400    -1.2063010     0.0018590
  C        1.1996470     1.2062960     0.0018580
  C       -0.1961990    -1.2029620    -0.0082140
  C       -0.1961940     1.2029670    -0.0082130
  C       -0.9136400     0.0000050    -0.0165360
  H        2.9899420    -0.0000050     0.0144970
  H        1.7382270    -2.1512330     0.0030650
  H        1.7382400     2.1512250     0.0030610
  H       -0.7371330    -2.1480740    -0.0183500
  H       -0.7371210     2.1480830    -0.0183460
  H       -2.8237680    -0.8851500    -0.4884320
  H       -2.8237700     0.8853450    -0.4880880
  H       -2.7968300    -0.0002010     1.0407190
units angstrom
no_reorient  #important for SAPT in psi4, default
symmetry c1  #important for SAPT in psi4, default
}

set PROPERTIES_ORIGIN ["COM"]
properties('MP2/aug-cc-pvtz', properties = ['dipole'])
--------------------------------------------------------------------------

    Molecular point group: c1
  Charge       = 0
  Multiplicity = 1
  Basis Set: AUG-CC-PVTZ
    Blend: AUG-CC-PVTZ
  Basis Set: (AUG-CC-PVTZ AUX)
    Blend: AUG-CC-PVTZ-JKFIT

    Orbital Energies [Eh]
    ---------------------

    Doubly Occupied:

       1A    -11.242245     2A    -11.235005     3A    -11.234640
       4A    -11.230587     5A    -11.230352     6A    -11.229607
       7A    -11.224725     8A     -1.150149     9A     -1.042943
      10A     -1.009784    11A     -0.931295    12A     -0.823286
      13A     -0.796013    14A     -0.690558    15A     -0.631973
      16A     -0.630144    17A     -0.582034    18A     -0.576520
      19A     -0.565802    20A     -0.536807    21A     -0.487401
      22A     -0.487372    23A     -0.483811    24A     -0.333981
      25A     -0.323485

  @DF-RHF Final Energy:  -269.82918271251646

   => Energetics <=

    Nuclear Repulsion Energy =            268.7884820323061490
    One-Electron Energy =                -895.8142890308209871
    Two-Electron Energy =                 357.1966242859983254
    Total Energy =                       -269.8291827125164559
  Basis Set: (AUG-CC-PVTZ AUX)
    Blend: AUG-CC-PVTZ-RI
    Molecular point group: c1

    Geometry (in Angstrom), charge = 0, multiplicity = 1:

       Center              X                  Y                   Z               Mass
    ------------   -----------------  -----------------  -----------------  -----------------
         C           -2.457553633958    -0.022871570840     0.012759617493    12.000000000000
         C            1.865434766042     0.003424029160     0.009852917493    12.000000000000
         C            1.162403766042    -1.202872970840     0.002315917493    12.000000000000
         C            1.162410766042     1.209724029160     0.002314917493    12.000000000000
         C           -0.233435233958    -1.199533970840    -0.007757082507    12.000000000000
         C           -0.233430233958     1.206395029160    -0.007756082507    12.000000000000
         C           -0.950876233958     0.003433029160    -0.016079082507    12.000000000000
         H            2.952705766042     0.003423029160     0.014953917493     1.007825032230
         H            1.700990766042    -2.147804970840     0.003521917493     1.007825032230
         H            1.701003766042     2.154653029160     0.003517917493     1.007825032230
         H           -0.774369233958    -2.144645970840    -0.017893082507     1.007825032230
         H           -0.774357233958     2.151511029160    -0.017889082507     1.007825032230
         H           -2.861004233958    -0.881721970840    -0.487975082507     1.007825032230
         H           -2.861006233958     0.888773029160    -0.487631082507     1.007825032230
         H           -2.834066233958     0.003227029160     1.041175917493     1.007825032230

  Basis Set: AUG-CC-PVTZ
    Blend: AUG-CC-PVTZ
  Basis Set: (AUG-CC-PVTZ AUX)
    Blend: AUG-CC-PVTZ-JKFIT
	 Reference Energy          =    -269.8291827125164559 [Eh]
	 Singles Energy            =      -0.0000000000000000 [Eh]
	 Same-Spin Energy          =      -0.2994902554622182 [Eh]
	 Opposite-Spin Energy      =      -0.9754061307353532 [Eh]
	 Correlation Energy        =      -1.2748963861975715 [Eh]
	 Total Energy              =    -271.1040790987140099 [Eh]

	 ================> DF-SCS-MP2 Energies <==================
	-----------------------------------------------------------
	 SCS Same-Spin Scale       =       0.3333333333333333 [-]
	 SCS Opposite-Spin Scale   =       1.2000000000000000 [-]
	 SCS Same-Spin Energy      =      -0.0998300851540727 [Eh]
	 SCS Opposite-Spin Energy  =      -1.1704873568824239 [Eh]
	 SCS Correlation Energy    =      -1.2703174420364967 [Eh]
	 SCS Total Energy          =    -271.0995001545529703 [Eh]
	-----------------------------------------------------------

  Dipole Moment: [D]
     X:    -0.3771      Y:    -0.0124      Z:     0.0378     Total:     0.3792

*** Psi4 exiting successfully. Buy a developer a beer!
