                               Psi4 1.3.2 release

  ==> Input File <==

--------------------------------------------------------------------------
#psi4
#
memory 32 gb

molecule  {
0 1
  C       -2.4203356     0.0262996     0.0113487
  C        1.9026710    -0.0000040     0.0093960
  C        1.1996400    -1.2063010     0.0018590
  C        1.1996470     1.2062960     0.0018580
  C       -0.1961990    -1.2029620    -0.0082140
  C       -0.1961940     1.2029670    -0.0082130
  C       -0.9136400     0.0000050    -0.0165360
  H        2.9899420    -0.0000050     0.0144970
  H        1.7382270    -2.1512330     0.0030650
  H        1.7382400     2.1512250     0.0030610
  H       -0.7371330    -2.1480740    -0.0183500
  H       -0.7371210     2.1480830    -0.0183460
  H       -2.8237680    -0.8851500    -0.4884320
  H       -2.8237700     0.8853450    -0.4880880
  H       -2.7968300    -0.0002010     1.0407190
units angstrom
no_reorient  #important for SAPT in psi4, default
symmetry c1  #important for SAPT in psi4, default
}

set PROPERTIES_ORIGIN ["COM"]
properties('MP2/aug-cc-pvtz', properties = ['dipole'])
--------------------------------------------------------------------------

    Molecular point group: c1
  Charge       = 0
  Multiplicity = 1
  Basis Set: AUG-CC-PVTZ
    Blend: AUG-CC-PVTZ
  Basis Set: (AUG-CC-PVTZ AUX)
    Blend: AUG-CC-PVTZ-JKFIT

    Orbital Energies [Eh]
    ---------------------

    Doubly Occupied:

       1A    -11.242252     2A    -11.235006     3A    -11.234640
       4A    -11.230581     5A    -11.230349     6A    -11.229604
       7A    -11.224732     8A     -1.150148     9A     -1.042944
      10A     -1.009783    11A     -0.931298    12A     -0.823289
      13A     -0.796014    14A     -0.690554    15A     -0.632013
      16A     -0.630149    17A     -0.582034    18A     -0.576297
      19A     -0.565815    20A     -0.537018    21A     -0.487404
      22A     -0.487321    23A     -0.483842    24A     -0.333982
      25A     -0.323463

  @DF-RHF Final Energy:  -269.82918392323933

   => Energetics <=

    Nuclear Repulsion Energy =            268.7883698153473233
    One-Electron Energy =                -895.8140460034666148
    Two-Electron Energy =                 357.1964922648799643
    Total Energy =                       -269.8291839232393272
  Basis Set: (AUG-CC-PVTZ AUX)
    Blend: AUG-CC-PVTZ-RI
    Molecular point group: c1

    Geometry (in Angstrom), charge = 0, multiplicity = 1:

       Center              X                  Y                   Z               Mass
    ------------   -----------------  -----------------  -----------------  -----------------
         C           -2.457569461659     0.022871529091     0.011929967663    12.000000000000
         C            1.865437138341    -0.003432070909     0.009977267663    12.000000000000
         C            1.162406138341    -1.209729070909     0.002440267663    12.000000000000
         C            1.162413138341     1.202867929091     0.002439267663    12.000000000000
         C           -0.233432861659    -1.206390070909    -0.007632732337    12.000000000000
         C           -0.233427861659     1.199538929091    -0.007631732337    12.000000000000
         C           -0.950873861659    -0.003423070909    -0.015954732337    12.000000000000
         H            2.952708138341    -0.003433070909     0.015078267663     1.007825032230
         H            1.700993138341    -2.154661070909     0.003646267663     1.007825032230
         H            1.701006138341     2.147796929091     0.003642267663     1.007825032230
         H           -0.774366861659    -2.151502070909    -0.017768732337     1.007825032230
         H           -0.774354861659     2.144654929091    -0.017764732337     1.007825032230
         H           -2.861001861659    -0.888578070909    -0.487850732337     1.007825032230
         H           -2.861003861659     0.881916929091    -0.487506732337     1.007825032230
         H           -2.834063861659    -0.003629070909     1.041300267663     1.007825032230

  Basis Set: AUG-CC-PVTZ
    Blend: AUG-CC-PVTZ
  Basis Set: (AUG-CC-PVTZ AUX)
    Blend: AUG-CC-PVTZ-JKFIT
	 Reference Energy          =    -269.8291839232393272 [Eh]
	 Singles Energy            =      -0.0000000000000000 [Eh]
	 Same-Spin Energy          =      -0.2994899540072378 [Eh]
	 Opposite-Spin Energy      =      -0.9754050660779185 [Eh]
	 Correlation Energy        =      -1.2748950200851563 [Eh]
	 Total Energy              =    -271.1040789433245095 [Eh]

	 ================> DF-SCS-MP2 Energies <==================
	-----------------------------------------------------------
	 SCS Same-Spin Scale       =       0.3333333333333333 [-]
	 SCS Opposite-Spin Scale   =       1.2000000000000000 [-]
	 SCS Same-Spin Energy      =      -0.0998299846690792 [Eh]
	 SCS Opposite-Spin Energy  =      -1.1704860792935021 [Eh]
	 SCS Correlation Energy    =      -1.2703160639625815 [Eh]
	 SCS Total Energy          =    -271.0994999872019093 [Eh]
	-----------------------------------------------------------

  Dipole Moment: [D]
     X:    -0.3776      Y:     0.0123      Z:     0.0373     Total:     0.3796

*** Psi4 exiting successfully. Buy a developer a beer!
