                               Psi4 1.3.2 release

  ==> Input File <==

--------------------------------------------------------------------------
#psi4
#
memory 32 gb

molecule  {
0 1
  C       -2.4205560     0.0000000     0.0118300
  C        1.9026710    -0.0000040     0.0093960
  C        1.1996400    -1.2063010     0.0018590
  C        1.1996470     1.2062960     0.0018580
  C       -0.1961990    -1.2029620    -0.0082140
  C       -0.1961940     1.2029670    -0.0082130
  C       -0.8136577     0.0000053    -0.0184181
  H        2.9899420    -0.0000050     0.0144970
  H        1.7382270    -2.1512330     0.0030650
  H        1.7382400     2.1512250     0.0030610
  H       -0.7371330    -2.1480740    -0.0183500
  H       -0.7371210     2.1480830    -0.0183460
  H       -2.8237680    -0.8851500    -0.4884320
  H       -2.8237700     0.8853450    -0.4880880
  H       -2.7968300    -0.0002010     1.0407190
units angstrom
no_reorient  #important for SAPT in psi4, default
symmetry c1  #important for SAPT in psi4, default
}

set PROPERTIES_ORIGIN ["COM"]
properties('MP2/aug-cc-pvtz', properties = ['dipole'])
--------------------------------------------------------------------------

    Molecular point group: c1
  Charge       = 0
  Multiplicity = 1
  Basis Set: AUG-CC-PVTZ
    Blend: AUG-CC-PVTZ
  Basis Set: (AUG-CC-PVTZ AUX)
    Blend: AUG-CC-PVTZ-JKFIT

    Orbital Energies [Eh]
    ---------------------

    Doubly Occupied:

       1A    -11.236118     2A    -11.235433     3A    -11.235312
       4A    -11.229977     5A    -11.225476     6A    -11.225364
       7A    -11.224991     8A     -1.159876     9A     -1.033700
      10A     -1.016317    11A     -0.924874    12A     -0.830008
      13A     -0.798097    14A     -0.693704    15A     -0.633218
      16A     -0.627387    17A     -0.590854    18A     -0.567217
      19A     -0.557494    20A     -0.534779    21A     -0.499031
      22A     -0.494892    23A     -0.460322    24A     -0.336152
      25A     -0.331997

  @DF-RHF Final Energy:  -269.82037230970508

   => Energetics <=

    Nuclear Repulsion Energy =            269.6979373194632785
    One-Electron Energy =                -897.6314342801554176
    Two-Electron Energy =                 358.1131246509870039
    Total Energy =                       -269.8203723097050784
  Basis Set: (AUG-CC-PVTZ AUX)
    Blend: AUG-CC-PVTZ-RI
    Molecular point group: c1

    Geometry (in Angstrom), charge = 0, multiplicity = 1:

       Center              X                  Y                   Z               Mass
    ------------   -----------------  -----------------  -----------------  -----------------
         C           -2.470793435278    -0.000000059978     0.012593856466    12.000000000000
         C            1.852433564722    -0.000004059978     0.010159856466    12.000000000000
         C            1.149402564722    -1.206301059978     0.002622856466    12.000000000000
         C            1.149409564722     1.206295940022     0.002621856466    12.000000000000
         C           -0.246436435278    -1.202962059978    -0.007450143534    12.000000000000
         C           -0.246431435278     1.202966940022    -0.007449143534    12.000000000000
         C           -0.863895135278     0.000005240022    -0.017654243534    12.000000000000
         H            2.939704564722    -0.000005059978     0.015260856466     1.007825032230
         H            1.687989564722    -2.151233059978     0.003828856466     1.007825032230
         H            1.688002564722     2.151224940022     0.003824856466     1.007825032230
         H           -0.787370435278    -2.148074059978    -0.017586143534     1.007825032230
         H           -0.787358435278     2.148082940022    -0.017582143534     1.007825032230
         H           -2.874005435278    -0.885150059978    -0.487668143534     1.007825032230
         H           -2.874007435278     0.885344940022    -0.487324143534     1.007825032230
         H           -2.847067435278    -0.000201059978     1.041482856466     1.007825032230

  Basis Set: AUG-CC-PVTZ
    Blend: AUG-CC-PVTZ
  Basis Set: (AUG-CC-PVTZ AUX)
    Blend: AUG-CC-PVTZ-JKFIT
	 Reference Energy          =    -269.8203723097050784 [Eh]
	 Singles Energy            =      -0.0000000000000000 [Eh]
	 Same-Spin Energy          =      -0.2991122274887431 [Eh]
	 Opposite-Spin Energy      =      -0.9748744355029966 [Eh]
	 Correlation Energy        =      -1.2739866629917396 [Eh]
	 Total Energy              =    -271.0943589726967957 [Eh]

	 ================> DF-SCS-MP2 Energies <==================
	-----------------------------------------------------------
	 SCS Same-Spin Scale       =       0.3333333333333333 [-]
	 SCS Opposite-Spin Scale   =       1.2000000000000000 [-]
	 SCS Same-Spin Energy      =      -0.0997040758295810 [Eh]
	 SCS Opposite-Spin Energy  =      -1.1698493226035958 [Eh]
	 SCS Correlation Energy    =      -1.2695533984331768 [Eh]
	 SCS Total Energy          =    -271.0899257081382530 [Eh]
	-----------------------------------------------------------

  Dipole Moment: [D]
     X:    -0.2160      Y:    -0.0000      Z:     0.0283     Total:     0.2178

*** Psi4 exiting successfully. Buy a developer a beer!
