                               Psi4 1.3.2 release

  ==> Input File <==

--------------------------------------------------------------------------
#psi4
#
memory 32 gb

molecule  {
0 1
  C       -2.4196562     0.0525913     0.0108588
  C        1.9026710    -0.0000040     0.0093960
  C        1.1996400    -1.2063010     0.0018590
  C        1.1996470     1.2062960     0.0018580
  C       -0.1961990    -1.2029620    -0.0082140
  C       -0.1961940     1.2029670    -0.0082130
  C       -0.9136400     0.0000050    -0.0165360
  H        2.9899420    -0.0000050     0.0144970
  H        1.7382270    -2.1512330     0.0030650
  H        1.7382400     2.1512250     0.0030610
  H       -0.7371330    -2.1480740    -0.0183500
  H       -0.7371210     2.1480830    -0.0183460
  H       -2.8237680    -0.8851500    -0.4884320
  H       -2.8237700     0.8853450    -0.4880880
  H       -2.7968300    -0.0002010     1.0407190
units angstrom
no_reorient  #important for SAPT in psi4, default
symmetry c1  #important for SAPT in psi4, default
}

set PROPERTIES_ORIGIN ["COM"]
properties('MP2/aug-cc-pvtz', properties = ['dipole'])
--------------------------------------------------------------------------

    Molecular point group: c1
  Charge       = 0
  Multiplicity = 1
  Basis Set: AUG-CC-PVTZ
    Blend: AUG-CC-PVTZ
  Basis Set: (AUG-CC-PVTZ AUX)
    Blend: AUG-CC-PVTZ-JKFIT

    Orbital Energies [Eh]
    ---------------------

    Doubly Occupied:

       1A    -11.242414     2A    -11.235204     3A    -11.234524
       4A    -11.230840     5A    -11.230550     6A    -11.229275
       7A    -11.225087     8A     -1.150218     9A     -1.043086
      10A     -1.009825    11A     -0.931528    12A     -0.823332
      13A     -0.796194    14A     -0.690684    15A     -0.632943
      16A     -0.629867    17A     -0.582426    18A     -0.578065
      19A     -0.566759    20A     -0.534094    21A     -0.488658
      22A     -0.487174    23A     -0.481799    24A     -0.334026
      25A     -0.323436

  @DF-RHF Final Energy:  -269.82688778888831

   => Energetics <=

    Nuclear Repulsion Energy =            268.7940424939911281
    One-Electron Energy =                -895.8178424130293251
    Two-Electron Energy =                 357.1969121301498831
    Total Energy =                       -269.8268877888883139
  Basis Set: (AUG-CC-PVTZ AUX)
    Blend: AUG-CC-PVTZ-RI
    Molecular point group: c1

    Geometry (in Angstrom), charge = 0, multiplicity = 1:

       Center              X                  Y                   Z               Mass
    ------------   -----------------  -----------------  -----------------  -----------------
         C           -2.456978618793     0.045736208791     0.011503924213    12.000000000000
         C            1.865348581207    -0.006859091209     0.010041124213    12.000000000000
         C            1.162317581207    -1.213156091209     0.002504124213    12.000000000000
         C            1.162324581207     1.199440908791     0.002503124213    12.000000000000
         C           -0.233521418793    -1.209817091209    -0.007568875787    12.000000000000
         C           -0.233516418793     1.196111908791    -0.007567875787    12.000000000000
         C           -0.950962418793    -0.006850091209    -0.015890875787    12.000000000000
         H            2.952619581207    -0.006860091209     0.015142124213     1.007825032230
         H            1.700904581207    -2.158088091209     0.003710124213     1.007825032230
         H            1.700917581207     2.144369908791     0.003706124213     1.007825032230
         H           -0.774455418793    -2.154929091209    -0.017704875787     1.007825032230
         H           -0.774443418793     2.141227908791    -0.017700875787     1.007825032230
         H           -2.861090418793    -0.892005091209    -0.487786875787     1.007825032230
         H           -2.861092418793     0.878489908791    -0.487442875787     1.007825032230
         H           -2.834152418793    -0.007056091209     1.041364124213     1.007825032230

  Basis Set: AUG-CC-PVTZ
    Blend: AUG-CC-PVTZ
  Basis Set: (AUG-CC-PVTZ AUX)
    Blend: AUG-CC-PVTZ-JKFIT
	 Reference Energy          =    -269.8268877888883139 [Eh]
	 Singles Energy            =      -0.0000000000000000 [Eh]
	 Same-Spin Energy          =      -0.2995300874905755 [Eh]
	 Opposite-Spin Energy      =      -0.9755197449768146 [Eh]
	 Correlation Energy        =      -1.2750498324673902 [Eh]
	 Total Energy              =    -271.1019376213557166 [Eh]

	 ================> DF-SCS-MP2 Energies <==================
	-----------------------------------------------------------
	 SCS Same-Spin Scale       =       0.3333333333333333 [-]
	 SCS Opposite-Spin Scale   =       1.2000000000000000 [-]
	 SCS Same-Spin Energy      =      -0.0998433624968585 [Eh]
	 SCS Opposite-Spin Energy  =      -1.1706236939721775 [Eh]
	 SCS Correlation Energy    =      -1.2704670564690359 [Eh]
	 SCS Total Energy          =    -271.0973548453573585 [Eh]
	-----------------------------------------------------------

  Dipole Moment: [D]
     X:    -0.3735      Y:     0.0245      Z:     0.0385     Total:     0.3763

*** Psi4 exiting successfully. Buy a developer a beer!
