                               Psi4 1.3.2 release

  ==> Input File <==

--------------------------------------------------------------------------
#psi4
#
memory 32 gb

molecule  {
0 1
  C       -2.4205560     0.0000000     0.0118300
  C        1.9026710    -0.0000040     0.0093960
  C        1.1996400    -1.2063010     0.0018590
  C        1.1996470     1.2062960     0.0018580
  C       -0.1961990    -1.2029620    -0.0082140
  C       -0.1961940     1.2029670    -0.0082130
  C       -0.9136400     0.0000050    -0.0165360
  H        2.9899420    -0.0000050     0.0144970
  H        1.7382270    -2.1512330     0.0030650
  H        1.7382400     2.1512250     0.0030610
  H       -0.7371330    -2.1480740    -0.0183500
  H       -0.7371210     2.1480830    -0.0183460
  H       -2.8237680    -0.8851500    -0.4884320
  H       -2.8237700     0.8853450    -0.4880880
  H       -2.8655223    -0.0002377     1.2285523
units angstrom
no_reorient  #important for SAPT in psi4, default
symmetry c1  #important for SAPT in psi4, default
}

set PROPERTIES_ORIGIN ["COM"]
properties('MP2/aug-cc-pvtz', properties = ['dipole'])
--------------------------------------------------------------------------

    Molecular point group: c1
  Charge       = 0
  Multiplicity = 1
  Basis Set: AUG-CC-PVTZ
    Blend: AUG-CC-PVTZ
  Basis Set: (AUG-CC-PVTZ AUX)
    Blend: AUG-CC-PVTZ-JKFIT

    Orbital Energies [Eh]
    ---------------------

    Doubly Occupied:

       1A    -11.247182     2A    -11.243924     3A    -11.235825
       4A    -11.235649     5A    -11.231955     6A    -11.231507
       7A    -11.231417     8A     -1.151092     9A     -1.041012
      10A     -1.010907    11A     -0.922377    12A     -0.824458
      13A     -0.794277    14A     -0.690558    15A     -0.633297
      16A     -0.631250    17A     -0.583041    18A     -0.567500
      19A     -0.542954    20A     -0.541179    21A     -0.488330
      22A     -0.486363    23A     -0.478519    24A     -0.334940
      25A     -0.322709

  @DF-RHF Final Energy:  -269.81029997764051

   => Energetics <=

    Nuclear Repulsion Energy =            268.0365964455132257
    One-Electron Energy =                -894.2893469303878646
    Two-Electron Energy =                 356.4424505072341844
    Total Energy =                       -269.8102999776405113
  Basis Set: (AUG-CC-PVTZ AUX)
    Blend: AUG-CC-PVTZ-RI
    Molecular point group: c1

    Geometry (in Angstrom), charge = 0, multiplicity = 1:

       Center              X                  Y                   Z               Mass
    ------------   -----------------  -----------------  -----------------  -----------------
         C           -2.457009147023     0.000000380887     0.010292288826    12.000000000000
         C            1.866217852977    -0.000003619113     0.007858288826    12.000000000000
         C            1.163186852977    -1.206300619113     0.000321288826    12.000000000000
         C            1.163193852977     1.206296380887     0.000320288826    12.000000000000
         C           -0.232652147023    -1.202961619113    -0.009751711174    12.000000000000
         C           -0.232647147023     1.202967380887    -0.009750711174    12.000000000000
         C           -0.950093147023     0.000005380887    -0.018073711174    12.000000000000
         H            2.953488852977    -0.000004619113     0.012959288826     1.007825032230
         H            1.701773852977    -2.151232619113     0.001527288826     1.007825032230
         H            1.701786852977     2.151225380887     0.001523288826     1.007825032230
         H           -0.773586147023    -2.148073619113    -0.019887711174     1.007825032230
         H           -0.773574147023     2.148083380887    -0.019883711174     1.007825032230
         H           -2.860221147023    -0.885149619113    -0.489969711174     1.007825032230
         H           -2.860223147023     0.885345380887    -0.489625711174     1.007825032230
         H           -2.901975447023    -0.000237319113     1.227014588826     1.007825032230

  Basis Set: AUG-CC-PVTZ
    Blend: AUG-CC-PVTZ
  Basis Set: (AUG-CC-PVTZ AUX)
    Blend: AUG-CC-PVTZ-JKFIT
	 Reference Energy          =    -269.8102999776405113 [Eh]
	 Singles Energy            =      -0.0000000000000000 [Eh]
	 Same-Spin Energy          =      -0.2994393831571127 [Eh]
	 Opposite-Spin Energy      =      -0.9768373535281323 [Eh]
	 Correlation Energy        =      -1.2762767366852450 [Eh]
	 Total Energy              =    -271.0865767143257585 [Eh]

	 ================> DF-SCS-MP2 Energies <==================
	-----------------------------------------------------------
	 SCS Same-Spin Scale       =       0.3333333333333333 [-]
	 SCS Opposite-Spin Scale   =       1.2000000000000000 [-]
	 SCS Same-Spin Energy      =      -0.0998131277190376 [Eh]
	 SCS Opposite-Spin Energy  =      -1.1722048242337586 [Eh]
	 SCS Correlation Energy    =      -1.2720179519527961 [Eh]
	 SCS Total Energy          =    -271.0823179295933301 [Eh]
	-----------------------------------------------------------

  Dipole Moment: [D]
     X:    -0.2536      Y:    -0.0000      Z:    -0.0621     Total:     0.2611

*** Psi4 exiting successfully. Buy a developer a beer!
