                               Psi4 1.4a3.dev225

  ==> Input File <==

--------------------------------------------------------------------------
#psi4
#
memory 32 gb

molecule  {
0 1
  C       -2.4205580     0.0000000     0.0118250
  C        1.9026740    -0.0000010     0.0093850
  C        1.1996440    -1.2062980     0.0018670
  C        1.1996450     1.2062970     0.0018670
  C       -0.1961960    -1.2029630    -0.0082190
  C       -0.1961960     1.2029630    -0.0082190
  C       -0.9136430     0.0000010    -0.0165280
  H        2.9899450     0.0000000     0.0144850
  H        1.7382350    -2.1512280     0.0030590
  H        1.7382370     2.1512270     0.0030580
  H       -0.7371310    -2.1480750    -0.0183270
  H       -0.7371290     2.1480760    -0.0183270
  H       -2.8237650    -0.8852380    -0.4882860
  H       -2.8237650     0.8852570    -0.4882510
  H       -2.7796771    -0.0000191     0.9937510
units angstrom
no_reorient  #important for SAPT in psi4, default
symmetry c1  #important for SAPT in psi4, default
}

set PROPERTIES_ORIGIN ["COM"]
properties('MP2/aug-cc-pvtz', properties = ['dipole'])
--------------------------------------------------------------------------

    Molecular point group: c1
  Charge       = 0
  Multiplicity = 1
  Basis Set: AUG-CC-PVTZ
    Blend: AUG-CC-PVTZ
  Basis Set: (AUG-CC-PVTZ AUX)
    Blend: AUG-CC-PVTZ-JKFIT

    Orbital Energies [Eh]
    ---------------------

    Doubly Occupied:

       1A    -11.241863     2A    -11.234744     3A    -11.234591
       4A    -11.230360     5A    -11.229792     6A    -11.229711
       7A    -11.218511     8A     -1.150057     9A     -1.044065
      10A     -1.009599    11A     -0.934749    12A     -0.823091
      13A     -0.796779    14A     -0.690815    15A     -0.631329
      16A     -0.630338    17A     -0.584878    18A     -0.581779
      19A     -0.565048    20A     -0.537564    21A     -0.488643
      22A     -0.486069    23A     -0.484877    24A     -0.333817
      25A     -0.323706

  @DF-RHF Final Energy:  -269.82897155355033

   => Energetics <=

    Nuclear Repulsion Energy =            269.0033803884832082
    One-Electron Energy =                -896.2311566699737568
    Two-Electron Energy =                 357.3988047279402736
    Total Energy =                       -269.8289715535503319
  Basis Set: (AUG-CC-PVTZ AUX)
    Blend: AUG-CC-PVTZ-RI
    Molecular point group: c1

    Geometry (in Angstrom), charge = 0, multiplicity = 1:

       Center              X                  Y                   Z               Mass
    ------------   -----------------  -----------------  -----------------  -----------------
         C           -2.457951148929     0.000000131441     0.012857915723    12.000000000000
         C            1.865280851071    -0.000000868559     0.010417915723    12.000000000000
         C            1.162250851071    -1.206297868559     0.002899915723    12.000000000000
         C            1.162251851071     1.206297131441     0.002899915723    12.000000000000
         C           -0.233589148929    -1.202962868559    -0.007186084277    12.000000000000
         C           -0.233589148929     1.202963131441    -0.007186084277    12.000000000000
         C           -0.951036148929     0.000001131441    -0.015495084277    12.000000000000
         H            2.952551851071     0.000000131441     0.015517915723     1.007825032230
         H            1.700841851071    -2.151227868559     0.004091915723     1.007825032230
         H            1.700843851071     2.151227131441     0.004090915723     1.007825032230
         H           -0.774524148929    -2.148074868559    -0.017294084277     1.007825032230
         H           -0.774522148929     2.148076131441    -0.017294084277     1.007825032230
         H           -2.861158148929    -0.885237868559    -0.487253084277     1.007825032230
         H           -2.861158148929     0.885257131441    -0.487218084277     1.007825032230
         H           -2.817070248929    -0.000018968559     0.994783915723     1.007825032230

  Basis Set: AUG-CC-PVTZ
    Blend: AUG-CC-PVTZ
  Basis Set: (AUG-CC-PVTZ AUX)
    Blend: AUG-CC-PVTZ-JKFIT
	 Reference Energy          =    -269.8289715535503319 [Eh]
	 Singles Energy            =      -0.0000000000000000 [Eh]
	 Same-Spin Energy          =      -0.2994907584844153 [Eh]
	 Opposite-Spin Energy      =      -0.9751072552724512 [Eh]
	 Correlation Energy        =      -1.2745980137568664 [Eh]
	 Total Energy              =    -271.1035695673072041 [Eh]

	 ================> DF-SCS-MP2 Energies <==================
	-----------------------------------------------------------
	 SCS Same-Spin Scale       =       0.3333333333333333 [-]
	 SCS Opposite-Spin Scale   =       1.2000000000000000 [-]
	 SCS Same-Spin Energy      =      -0.0998302528281384 [Eh]
	 SCS Opposite-Spin Energy  =      -1.1701287063269414 [Eh]
	 SCS Correlation Energy    =      -1.2699589591550799 [Eh]
	 SCS Total Energy          =    -271.0989305127054081 [Eh]
	-----------------------------------------------------------

  Dipole Moment: [D]
     X:    -0.3986      Y:    -0.0000      Z:     0.0528     Total:     0.4021

*** Psi4 exiting successfully. Buy a developer a beer!
