                               Psi4 1.3.2 release

  ==> Input File <==

--------------------------------------------------------------------------
#psi4
#
memory 32 gb

molecule  {
0 1
  C       -2.4122467    -0.1575176     0.0145316
  C        1.9026710    -0.0000040     0.0093960
  C        1.1996400    -1.2063010     0.0018590
  C        1.1996470     1.2062960     0.0018580
  C       -0.1961990    -1.2029620    -0.0082140
  C       -0.1961940     1.2029670    -0.0082130
  C       -0.9136400     0.0000050    -0.0165360
  H        2.9899420    -0.0000050     0.0144970
  H        1.7382270    -2.1512330     0.0030650
  H        1.7382400     2.1512250     0.0030610
  H       -0.7371330    -2.1480740    -0.0183500
  H       -0.7371210     2.1480830    -0.0183460
  H       -2.8237680    -0.8851500    -0.4884320
  H       -2.8237700     0.8853450    -0.4880880
  H       -2.7968300    -0.0002010     1.0407190
units angstrom
no_reorient  #important for SAPT in psi4, default
symmetry c1  #important for SAPT in psi4, default
}

set PROPERTIES_ORIGIN ["COM"]
properties('MP2/aug-cc-pvtz', properties = ['dipole'])
--------------------------------------------------------------------------

    Molecular point group: c1
  Charge       = 0
  Multiplicity = 1
  Basis Set: AUG-CC-PVTZ
    Blend: AUG-CC-PVTZ
  Basis Set: (AUG-CC-PVTZ AUX)
    Blend: AUG-CC-PVTZ-JKFIT

    Orbital Energies [Eh]
    ---------------------

    Doubly Occupied:

       1A    -11.244044     2A    -11.236286     3A    -11.234306
       4A    -11.232868     5A    -11.230959     6A    -11.228806
       7A    -11.228335     8A     -1.150972     9A     -1.044567
      10A     -1.010279    11A     -0.933907    12A     -0.823774
      13A     -0.798134    14A     -0.692209    15A     -0.640003
      16A     -0.629531    17A     -0.595503    18A     -0.581736
      19A     -0.567694    20A     -0.518588    21A     -0.492581
      22A     -0.486265    23A     -0.468060    24A     -0.334491
      25A     -0.323319

  @DF-RHF Final Energy:  -269.80284957357276

   => Energetics <=

    Nuclear Repulsion Energy =            268.8537408017629673
    One-Electron Energy =                -895.8587467732543246
    Two-Electron Energy =                 357.2021563979185430
    Total Energy =                       -269.8028495735727574
  Basis Set: (AUG-CC-PVTZ AUX)
    Blend: AUG-CC-PVTZ-RI
    Molecular point group: c1

    Geometry (in Angstrom), charge = 0, multiplicity = 1:

       Center              X                  Y                   Z               Mass
    ------------   -----------------  -----------------  -----------------  -----------------
         C           -2.450534918149    -0.136985817572     0.014697989092    12.000000000000
         C            1.864382781851     0.020527782428     0.009562389092    12.000000000000
         C            1.161351781851    -1.185769217572     0.002025389092    12.000000000000
         C            1.161358781851     1.226827782428     0.002024389092    12.000000000000
         C           -0.234487218149    -1.182430217572    -0.008047610908    12.000000000000
         C           -0.234482218149     1.223498782428    -0.008046610908    12.000000000000
         C           -0.951928218149     0.020536782428    -0.016369610908    12.000000000000
         H            2.951653781851     0.020526782428     0.014663389092     1.007825032230
         H            1.699938781851    -2.130701217572     0.003231389092     1.007825032230
         H            1.699951781851     2.171756782428     0.003227389092     1.007825032230
         H           -0.775421218149    -2.127542217572    -0.018183610908     1.007825032230
         H           -0.775409218149     2.168614782428    -0.018179610908     1.007825032230
         H           -2.862056218149    -0.864618217572    -0.488265610908     1.007825032230
         H           -2.862058218149     0.905876782428    -0.487921610908     1.007825032230
         H           -2.835118218149     0.020330782428     1.040885389092     1.007825032230

  Basis Set: AUG-CC-PVTZ
    Blend: AUG-CC-PVTZ
  Basis Set: (AUG-CC-PVTZ AUX)
    Blend: AUG-CC-PVTZ-JKFIT
	 Reference Energy          =    -269.8028495735727574 [Eh]
	 Singles Energy            =      -0.0000000000000000 [Eh]
	 Same-Spin Energy          =      -0.2999627064926025 [Eh]
	 Opposite-Spin Energy      =      -0.9767474567958163 [Eh]
	 Correlation Energy        =      -1.2767101632884188 [Eh]
	 Total Energy              =    -271.0795597368611993 [Eh]

	 ================> DF-SCS-MP2 Energies <==================
	-----------------------------------------------------------
	 SCS Same-Spin Scale       =       0.3333333333333333 [-]
	 SCS Opposite-Spin Scale   =       1.2000000000000000 [-]
	 SCS Same-Spin Energy      =      -0.0999875688308675 [Eh]
	 SCS Opposite-Spin Energy  =      -1.1720969481549794 [Eh]
	 SCS Correlation Energy    =      -1.2720845169858470 [Eh]
	 SCS Total Energy          =    -271.0749340905585996 [Eh]
	-----------------------------------------------------------

  Dipole Moment: [D]
     X:    -0.3267      Y:    -0.0722      Z:     0.0551     Total:     0.3391

*** Psi4 exiting successfully. Buy a developer a beer!
