                               Psi4 1.3.2 release

  ==> Input File <==

--------------------------------------------------------------------------
#psi4
#
memory 32 gb

molecule  {
0 1
  C       -2.4205560     0.0000000     0.0118300
  C        1.9026710    -0.0000040     0.0093960
  C        1.1996400    -1.2063010     0.0018590
  C        1.1996470     1.2062960     0.0018580
  C       -0.1961990    -1.2029620    -0.0082140
  C       -0.1961940     1.2029670    -0.0082130
  C       -1.0136223     0.0000047    -0.0146539
  H        2.9899420    -0.0000050     0.0144970
  H        1.7382270    -2.1512330     0.0030650
  H        1.7382400     2.1512250     0.0030610
  H       -0.7371330    -2.1480740    -0.0183500
  H       -0.7371210     2.1480830    -0.0183460
  H       -2.8237680    -0.8851500    -0.4884320
  H       -2.8237700     0.8853450    -0.4880880
  H       -2.7968300    -0.0002010     1.0407190
units angstrom
no_reorient  #important for SAPT in psi4, default
symmetry c1  #important for SAPT in psi4, default
}

set PROPERTIES_ORIGIN ["COM"]
properties('MP2/aug-cc-pvtz', properties = ['dipole'])
--------------------------------------------------------------------------

    Molecular point group: c1
  Charge       = 0
  Multiplicity = 1
  Basis Set: AUG-CC-PVTZ
    Blend: AUG-CC-PVTZ
  Basis Set: (AUG-CC-PVTZ AUX)
    Blend: AUG-CC-PVTZ-JKFIT

    Orbital Energies [Eh]
    ---------------------

    Doubly Occupied:

       1A    -11.249927     2A    -11.235630     3A    -11.235614
       4A    -11.234246     5A    -11.234070     6A    -11.230750
       7A    -11.222751     8A     -1.143283     9A     -1.058264
      10A     -1.004861    11A     -0.934803    12A     -0.816735
      13A     -0.792681    14A     -0.687992    15A     -0.637252
      16A     -0.633465    17A     -0.587043    18A     -0.574790
      19A     -0.574312    20A     -0.540894    21A     -0.503379
      22A     -0.480581    23A     -0.466149    24A     -0.332334
      25A     -0.313304

  @DF-RHF Final Energy:  -269.81386760732551

   => Energetics <=

    Nuclear Repulsion Energy =            268.0159877038314562
    One-Electron Energy =                -894.2094915531588413
    Two-Electron Energy =                 356.3796362420018795
    Total Energy =                       -269.8138676073255056
  Basis Set: (AUG-CC-PVTZ AUX)
    Blend: AUG-CC-PVTZ-RI
    Molecular point group: c1

    Geometry (in Angstrom), charge = 0, multiplicity = 1:

       Center              X                  Y                   Z               Mass
    ------------   -----------------  -----------------  -----------------  -----------------
         C           -2.444728831484     0.000000018229     0.012103207713    12.000000000000
         C            1.878498168516    -0.000003981771     0.009669207713    12.000000000000
         C            1.175467168516    -1.206300981771     0.002132207713    12.000000000000
         C            1.175474168516     1.206296018229     0.002131207713    12.000000000000
         C           -0.220371831484    -1.202961981771    -0.007940792287    12.000000000000
         C           -0.220366831484     1.202967018229    -0.007939792287    12.000000000000
         C           -1.037795131484     0.000004718229    -0.014380692287    12.000000000000
         H            2.965769168516    -0.000004981771     0.014770207713     1.007825032230
         H            1.714054168516    -2.151232981771     0.003338207713     1.007825032230
         H            1.714067168516     2.151225018229     0.003334207713     1.007825032230
         H           -0.761305831484    -2.148073981771    -0.018076792287     1.007825032230
         H           -0.761293831484     2.148083018229    -0.018072792287     1.007825032230
         H           -2.847940831484    -0.885149981771    -0.488158792287     1.007825032230
         H           -2.847942831484     0.885345018229    -0.487814792287     1.007825032230
         H           -2.821002831484    -0.000200981771     1.040992207713     1.007825032230

  Basis Set: AUG-CC-PVTZ
    Blend: AUG-CC-PVTZ
  Basis Set: (AUG-CC-PVTZ AUX)
    Blend: AUG-CC-PVTZ-JKFIT
	 Reference Energy          =    -269.8138676073255056 [Eh]
	 Singles Energy            =      -0.0000000000000000 [Eh]
	 Same-Spin Energy          =      -0.3008994515628401 [Eh]
	 Opposite-Spin Energy      =      -0.9776940936611375 [Eh]
	 Correlation Energy        =      -1.2785935452239776 [Eh]
	 Total Energy              =    -271.0924611525495038 [Eh]

	 ================> DF-SCS-MP2 Energies <==================
	-----------------------------------------------------------
	 SCS Same-Spin Scale       =       0.3333333333333333 [-]
	 SCS Opposite-Spin Scale   =       1.2000000000000000 [-]
	 SCS Same-Spin Energy      =      -0.1002998171876134 [Eh]
	 SCS Opposite-Spin Energy  =      -1.1732329123933649 [Eh]
	 SCS Correlation Energy    =      -1.2735327295809782 [Eh]
	 SCS Total Energy          =    -271.0874003369065122 [Eh]
	-----------------------------------------------------------

  Dipole Moment: [D]
     X:    -0.5485      Y:    -0.0000      Z:     0.0489     Total:     0.5507

*** Psi4 exiting successfully. Buy a developer a beer!
