                               Psi4 1.3.2 release

  ==> Input File <==

--------------------------------------------------------------------------
#psi4
#
memory 32 gb

molecule  {
0 1
  C       -2.4123553     0.1575176     0.0088176
  C        1.9026710    -0.0000040     0.0093960
  C        1.1996400    -1.2063010     0.0018590
  C        1.1996470     1.2062960     0.0018580
  C       -0.1961990    -1.2029620    -0.0082140
  C       -0.1961940     1.2029670    -0.0082130
  C       -0.9136400     0.0000050    -0.0165360
  H        2.9899420    -0.0000050     0.0144970
  H        1.7382270    -2.1512330     0.0030650
  H        1.7382400     2.1512250     0.0030610
  H       -0.7371330    -2.1480740    -0.0183500
  H       -0.7371210     2.1480830    -0.0183460
  H       -2.8237680    -0.8851500    -0.4884320
  H       -2.8237700     0.8853450    -0.4880880
  H       -2.7968300    -0.0002010     1.0407190
units angstrom
no_reorient  #important for SAPT in psi4, default
symmetry c1  #important for SAPT in psi4, default
}

set PROPERTIES_ORIGIN ["COM"]
properties('MP2/aug-cc-pvtz', properties = ['dipole'])
--------------------------------------------------------------------------

    Molecular point group: c1
  Charge       = 0
  Multiplicity = 1
  Basis Set: AUG-CC-PVTZ
    Blend: AUG-CC-PVTZ
  Basis Set: (AUG-CC-PVTZ AUX)
    Blend: AUG-CC-PVTZ-JKFIT

    Orbital Energies [Eh]
    ---------------------

    Doubly Occupied:

       1A    -11.244099     2A    -11.236293     3A    -11.234305
       4A    -11.232863     5A    -11.230922     6A    -11.228835
       7A    -11.228314     8A     -1.150970     9A     -1.044585
      10A     -1.010274    11A     -0.933997    12A     -0.823784
      13A     -0.798199    14A     -0.692266    15A     -0.640346
      16A     -0.629486    17A     -0.595189    18A     -0.581699
      19A     -0.567135    20A     -0.519206    21A     -0.492623
      22A     -0.485813    23A     -0.468506    24A     -0.334493
      25A     -0.323197

  @DF-RHF Final Energy:  -269.80241360613229

   => Energetics <=

    Nuclear Repulsion Energy =            268.8544492537579345
    One-Electron Energy =                -895.8589291517155289
    Two-Electron Energy =                 357.2020662918253038
    Total Energy =                       -269.8024136061322906
  Basis Set: (AUG-CC-PVTZ AUX)
    Blend: AUG-CC-PVTZ-RI
    Molecular point group: c1

    Geometry (in Angstrom), charge = 0, multiplicity = 1:

       Center              X                  Y                   Z               Mass
    ------------   -----------------  -----------------  -----------------  -----------------
         C           -2.450629362563     0.136985775823     0.009728786652    12.000000000000
         C            1.864396937437    -0.020535824177     0.010307186652    12.000000000000
         C            1.161365937437    -1.226832824177     0.002770186652    12.000000000000
         C            1.161372937437     1.185764175823     0.002769186652    12.000000000000
         C           -0.234473062563    -1.223493824177    -0.007302813348    12.000000000000
         C           -0.234468062563     1.182435175823    -0.007301813348    12.000000000000
         C           -0.951914062563    -0.020526824177    -0.015624813348    12.000000000000
         H            2.951667937437    -0.020536824177     0.015408186652     1.007825032230
         H            1.699952937437    -2.171764824177     0.003976186652     1.007825032230
         H            1.699965937437     2.130693175823     0.003972186652     1.007825032230
         H           -0.775407062563    -2.168605824177    -0.017438813348     1.007825032230
         H           -0.775395062563     2.127551175823    -0.017434813348     1.007825032230
         H           -2.862042062563    -0.905681824177    -0.487520813348     1.007825032230
         H           -2.862044062563     0.864813175823    -0.487176813348     1.007825032230
         H           -2.835104062563    -0.020732824177     1.041630186652     1.007825032230

  Basis Set: AUG-CC-PVTZ
    Blend: AUG-CC-PVTZ
  Basis Set: (AUG-CC-PVTZ AUX)
    Blend: AUG-CC-PVTZ-JKFIT
	 Reference Energy          =    -269.8024136061322906 [Eh]
	 Singles Energy            =      -0.0000000000000000 [Eh]
	 Same-Spin Energy          =      -0.2999631736480424 [Eh]
	 Opposite-Spin Energy      =      -0.9767495427438150 [Eh]
	 Correlation Energy        =      -1.2767127163918575 [Eh]
	 Total Energy              =    -271.0791263225241323 [Eh]

	 ================> DF-SCS-MP2 Energies <==================
	-----------------------------------------------------------
	 SCS Same-Spin Scale       =       0.3333333333333333 [-]
	 SCS Opposite-Spin Scale   =       1.2000000000000000 [-]
	 SCS Same-Spin Energy      =      -0.0999877245493475 [Eh]
	 SCS Opposite-Spin Energy  =      -1.1720994512925780 [Eh]
	 SCS Correlation Energy    =      -1.2720871758419254 [Eh]
	 SCS Total Energy          =    -271.0745007819742227 [Eh]
	-----------------------------------------------------------

  Dipole Moment: [D]
     X:    -0.3291      Y:     0.0710      Z:     0.0523     Total:     0.3407

*** Psi4 exiting successfully. Buy a developer a beer!
