                               Psi4 1.3.2 release

  ==> Input File <==

--------------------------------------------------------------------------
#psi4
#
memory 32 gb

molecule  {
0 1
  C       -2.4168490    -0.1051185     0.0136675
  C        1.9026710    -0.0000040     0.0093960
  C        1.1996400    -1.2063010     0.0018590
  C        1.1996470     1.2062960     0.0018580
  C       -0.1961990    -1.2029620    -0.0082140
  C       -0.1961940     1.2029670    -0.0082130
  C       -0.9136400     0.0000050    -0.0165360
  H        2.9899420    -0.0000050     0.0144970
  H        1.7382270    -2.1512330     0.0030650
  H        1.7382400     2.1512250     0.0030610
  H       -0.7371330    -2.1480740    -0.0183500
  H       -0.7371210     2.1480830    -0.0183460
  H       -2.8237680    -0.8851500    -0.4884320
  H       -2.8237700     0.8853450    -0.4880880
  H       -2.7968300    -0.0002010     1.0407190
units angstrom
no_reorient  #important for SAPT in psi4, default
symmetry c1  #important for SAPT in psi4, default
}

set PROPERTIES_ORIGIN ["COM"]
properties('MP2/aug-cc-pvtz', properties = ['dipole'])
--------------------------------------------------------------------------

    Molecular point group: c1
  Charge       = 0
  Multiplicity = 1
  Basis Set: AUG-CC-PVTZ
    Blend: AUG-CC-PVTZ
  Basis Set: (AUG-CC-PVTZ AUX)
    Blend: AUG-CC-PVTZ-JKFIT

    Orbital Energies [Eh]
    ---------------------

    Doubly Occupied:

       1A    -11.243019     2A    -11.235691     3A    -11.234363
       4A    -11.231790     5A    -11.230725     6A    -11.228735
       7A    -11.226475     8A     -1.150503     9A     -1.043642
      10A     -1.009998    11A     -0.932419    12A     -0.823496
      13A     -0.796912    14A     -0.691229    15A     -0.635697
      16A     -0.629530    17A     -0.587495    18A     -0.581149
      19A     -0.567820    20A     -0.525704    21A     -0.490775
      22A     -0.486942    23A     -0.476043    24A     -0.334201
      25A     -0.323429

  @DF-RHF Final Energy:  -269.81781770537344

   => Energetics <=

    Nuclear Repulsion Energy =            268.8168435685193458
    One-Electron Energy =                -895.8337555917589725
    Two-Electron Energy =                 357.1990943178662405
    Total Energy =                       -269.8178177053734430
  Basis Set: (AUG-CC-PVTZ AUX)
    Blend: AUG-CC-PVTZ-RI
    Molecular point group: c1

    Geometry (in Angstrom), charge = 0, multiplicity = 1:

       Center              X                  Y                   Z               Mass
    ------------   -----------------  -----------------  -----------------  -----------------
         C           -2.454537326338    -0.091416735389     0.013946521149    12.000000000000
         C            1.864982673662     0.013697764611     0.009675021149    12.000000000000
         C            1.161951673662    -1.192599235389     0.002138021149    12.000000000000
         C            1.161958673662     1.219997764611     0.002137021149    12.000000000000
         C           -0.233887326338    -1.189260235389    -0.007934978851    12.000000000000
         C           -0.233882326338     1.216668764611    -0.007933978851    12.000000000000
         C           -0.951328326338     0.013706764611    -0.016256978851    12.000000000000
         H            2.952253673662     0.013696764611     0.014776021149     1.007825032230
         H            1.700538673662    -2.137531235389     0.003344021149     1.007825032230
         H            1.700551673662     2.164926764611     0.003340021149     1.007825032230
         H           -0.774821326338    -2.134372235389    -0.018070978851     1.007825032230
         H           -0.774809326338     2.161784764611    -0.018066978851     1.007825032230
         H           -2.861456326338    -0.871448235389    -0.488152978851     1.007825032230
         H           -2.861458326338     0.899046764611    -0.487808978851     1.007825032230
         H           -2.834518326338     0.013500764611     1.040998021149     1.007825032230

  Basis Set: AUG-CC-PVTZ
    Blend: AUG-CC-PVTZ
  Basis Set: (AUG-CC-PVTZ AUX)
    Blend: AUG-CC-PVTZ-JKFIT
	 Reference Energy          =    -269.8178177053734430 [Eh]
	 Singles Energy            =      -0.0000000000000000 [Eh]
	 Same-Spin Energy          =      -0.2996921487899833 [Eh]
	 Opposite-Spin Energy      =      -0.9759817388997264 [Eh]
	 Correlation Energy        =      -1.2756738876897098 [Eh]
	 Total Energy              =    -271.0934915930631632 [Eh]

	 ================> DF-SCS-MP2 Energies <==================
	-----------------------------------------------------------
	 SCS Same-Spin Scale       =       0.3333333333333333 [-]
	 SCS Opposite-Spin Scale   =       1.2000000000000000 [-]
	 SCS Same-Spin Energy      =      -0.0998973829299944 [Eh]
	 SCS Opposite-Spin Energy  =      -1.1711780866796717 [Eh]
	 SCS Correlation Energy    =      -1.2710754696096662 [Eh]
	 SCS Total Energy          =    -271.0888931749831272 [Eh]
	-----------------------------------------------------------

  Dipole Moment: [D]
     X:    -0.3550      Y:    -0.0489      Z:     0.0458     Total:     0.3613

*** Psi4 exiting successfully. Buy a developer a beer!
