                               Psi4 1.4a3.dev225

  ==> Input File <==

--------------------------------------------------------------------------
#psi4
#
memory 32 gb

molecule  {
0 1
  C       -2.4205580     0.0000000     0.0118250
  C        1.9026740    -0.0000010     0.0093850
  C        1.1996440    -1.2062980     0.0018670
  C        1.1996450     1.2062970     0.0018670
  C       -0.1961960    -1.2029630    -0.0082190
  C       -0.1961960     1.2029630    -0.0082190
  C       -0.8636518     0.0000010    -0.0174686
  H        2.9899450     0.0000000     0.0144850
  H        1.7382350    -2.1512280     0.0030590
  H        1.7382370     2.1512270     0.0030580
  H       -0.7371310    -2.1480750    -0.0183270
  H       -0.7371290     2.1480760    -0.0183270
  H       -2.8237650    -0.8852380    -0.4882860
  H       -2.8237650     0.8852570    -0.4882510
  H       -2.7968510    -0.0000200     1.0407090
units angstrom
no_reorient  #important for SAPT in psi4, default
symmetry c1  #important for SAPT in psi4, default
}

set PROPERTIES_ORIGIN ["COM"]
properties('MP2/aug-cc-pvtz', properties = ['dipole'])
--------------------------------------------------------------------------

    Molecular point group: c1
  Charge       = 0
  Multiplicity = 1
  Basis Set: AUG-CC-PVTZ
    Blend: AUG-CC-PVTZ
  Basis Set: (AUG-CC-PVTZ AUX)
    Blend: AUG-CC-PVTZ-JKFIT

    Orbital Energies [Eh]
    ---------------------

    Doubly Occupied:

       1A    -11.238882     2A    -11.235093     3A    -11.234952
       4A    -11.230269     5A    -11.227616     6A    -11.227530
       7A    -11.225036     8A     -1.154689     9A     -1.037656
      10A     -1.012794    11A     -0.928294    12A     -0.826629
      13A     -0.797134    14A     -0.692018    15A     -0.631892
      16A     -0.628500    17A     -0.586340    18A     -0.571203
      19A     -0.561042    20A     -0.536500    21A     -0.492654
      22A     -0.490949    23A     -0.474546    24A     -0.334971
      25A     -0.327925

  @DF-RHF Final Energy:  -269.82809452538129

   => Energetics <=

    Nuclear Repulsion Energy =            269.2273611689993231
    One-Electron Energy =                -896.7006805948466308
    Two-Electron Energy =                 357.6452249004660189
    Total Energy =                       -269.8280945253812888
  Basis Set: (AUG-CC-PVTZ AUX)
    Blend: AUG-CC-PVTZ-RI
    Molecular point group: c1

    Geometry (in Angstrom), charge = 0, multiplicity = 1:

       Center              X                  Y                   Z               Mass
    ------------   -----------------  -----------------  -----------------  -----------------
         C           -2.464279300774     0.000000141293     0.012466461997    12.000000000000
         C            1.858952699226    -0.000000858707     0.010026461997    12.000000000000
         C            1.155922699226    -1.206297858707     0.002508461997    12.000000000000
         C            1.155923699226     1.206297141293     0.002508461997    12.000000000000
         C           -0.239917300774    -1.202962858707    -0.007577538003    12.000000000000
         C           -0.239917300774     1.202963141293    -0.007577538003    12.000000000000
         C           -0.907373100774     0.000001141293    -0.016827138003    12.000000000000
         H            2.946223699226     0.000000141293     0.015126461997     1.007825032230
         H            1.694513699226    -2.151227858707     0.003700461997     1.007825032230
         H            1.694515699226     2.151227141293     0.003699461997     1.007825032230
         H           -0.780852300774    -2.148074858707    -0.017685538003     1.007825032230
         H           -0.780850300774     2.148076141293    -0.017685538003     1.007825032230
         H           -2.867486300774    -0.885237858707    -0.487644538003     1.007825032230
         H           -2.867486300774     0.885257141293    -0.487609538003     1.007825032230
         H           -2.840572300774    -0.000019858707     1.041350461997     1.007825032230

  Basis Set: AUG-CC-PVTZ
    Blend: AUG-CC-PVTZ
  Basis Set: (AUG-CC-PVTZ AUX)
    Blend: AUG-CC-PVTZ-JKFIT
	 Reference Energy          =    -269.8280945253812888 [Eh]
	 Singles Energy            =      -0.0000000000000000 [Eh]
	 Same-Spin Energy          =      -0.2991673574224780 [Eh]
	 Opposite-Spin Energy      =      -0.9748964694476511 [Eh]
	 Correlation Energy        =      -1.2740638268701290 [Eh]
	 Total Energy              =    -271.1021583522514220 [Eh]

	 ================> DF-SCS-MP2 Energies <==================
	-----------------------------------------------------------
	 SCS Same-Spin Scale       =       0.3333333333333333 [-]
	 SCS Opposite-Spin Scale   =       1.2000000000000000 [-]
	 SCS Same-Spin Energy      =      -0.0997224524741593 [Eh]
	 SCS Opposite-Spin Energy  =      -1.1698757633371812 [Eh]
	 SCS Correlation Energy    =      -1.2695982158113406 [Eh]
	 SCS Total Energy          =    -271.0976927411926454 [Eh]
	-----------------------------------------------------------

  Dipole Moment: [D]
     X:    -0.2986      Y:    -0.0000      Z:     0.0323     Total:     0.3003

*** Psi4 exiting successfully. Buy a developer a beer!
