                               Psi4 1.3.2 release

  ==> Input File <==

--------------------------------------------------------------------------
#psi4
#
memory 32 gb

molecule  {
0 1
  C       -2.4205560     0.0000000     0.0118300
  C        1.9026710    -0.0000040     0.0093960
  C        1.1996400    -1.2063010     0.0018590
  C        1.1996470     1.2062960     0.0018580
  C       -0.1961990    -1.2029620    -0.0082140
  C       -0.1961940     1.2029670    -0.0082130
  C       -0.7136754     0.0000057    -0.0203001
  H        2.9899420    -0.0000050     0.0144970
  H        1.7382270    -2.1512330     0.0030650
  H        1.7382400     2.1512250     0.0030610
  H       -0.7371330    -2.1480740    -0.0183500
  H       -0.7371210     2.1480830    -0.0183460
  H       -2.8237680    -0.8851500    -0.4884320
  H       -2.8237700     0.8853450    -0.4880880
  H       -2.7968300    -0.0002010     1.0407190
units angstrom
no_reorient  #important for SAPT in psi4, default
symmetry c1  #important for SAPT in psi4, default
}

set PROPERTIES_ORIGIN ["COM"]
properties('MP2/aug-cc-pvtz', properties = ['dipole'])
--------------------------------------------------------------------------

    Molecular point group: c1
  Charge       = 0
  Multiplicity = 1
  Basis Set: AUG-CC-PVTZ
    Blend: AUG-CC-PVTZ
  Basis Set: (AUG-CC-PVTZ AUX)
    Blend: AUG-CC-PVTZ-JKFIT

    Orbital Energies [Eh]
    ---------------------

    Doubly Occupied:

       1A    -11.236692     2A    -11.236599     3A    -11.232775
       4A    -11.229539     5A    -11.223141     6A    -11.222384
       7A    -11.222201     8A     -1.171959     9A     -1.028525
      10A     -1.025217    11A     -0.917178    12A     -0.836699
      13A     -0.799677    14A     -0.697684    15A     -0.640013
      16A     -0.626520    17A     -0.598338    18A     -0.560811
      19A     -0.552728    20A     -0.530818    21A     -0.508784
      22A     -0.503249    23A     -0.426958    24A     -0.339222
      25A     -0.339201

  @DF-RHF Final Energy:  -269.78930379451873

   => Energetics <=

    Nuclear Repulsion Energy =            270.7055416724449515
    One-Electron Energy =                -899.5758644414923992
    Two-Electron Energy =                 359.0810189745287175
    Total Energy =                       -269.7893037945187302
  Basis Set: (AUG-CC-PVTZ AUX)
    Blend: AUG-CC-PVTZ-RI
    Molecular point group: c1

    Geometry (in Angstrom), charge = 0, multiplicity = 1:

       Center              X                  Y                   Z               Mass
    ------------   -----------------  -----------------  -----------------  -----------------
         C           -2.483825737176    -0.000000112117     0.012839167808    12.000000000000
         C            1.839401262824    -0.000004112117     0.010405167808    12.000000000000
         C            1.136370262824    -1.206301112117     0.002868167808    12.000000000000
         C            1.136377262824     1.206295887883     0.002867167808    12.000000000000
         C           -0.259468737176    -1.202962112117    -0.007204832192    12.000000000000
         C           -0.259463737176     1.202966887883    -0.007203832192    12.000000000000
         C           -0.776945137176     0.000005587883    -0.019290932192    12.000000000000
         H            2.926672262824    -0.000005112117     0.015506167808     1.007825032230
         H            1.674957262824    -2.151233112117     0.004074167808     1.007825032230
         H            1.674970262824     2.151224887883     0.004070167808     1.007825032230
         H           -0.800402737176    -2.148074112117    -0.017340832192     1.007825032230
         H           -0.800390737176     2.148082887883    -0.017336832192     1.007825032230
         H           -2.887037737176    -0.885150112117    -0.487422832192     1.007825032230
         H           -2.887039737176     0.885344887883    -0.487078832192     1.007825032230
         H           -2.860099737176    -0.000201112117     1.041728167808     1.007825032230

  Basis Set: AUG-CC-PVTZ
    Blend: AUG-CC-PVTZ
  Basis Set: (AUG-CC-PVTZ AUX)
    Blend: AUG-CC-PVTZ-JKFIT
	 Reference Energy          =    -269.7893037945187302 [Eh]
	 Singles Energy            =      -0.0000000000000000 [Eh]
	 Same-Spin Energy          =      -0.2997265363065730 [Eh]
	 Opposite-Spin Energy      =      -0.9761035911463037 [Eh]
	 Correlation Energy        =      -1.2758301274528767 [Eh]
	 Total Energy              =    -271.0651339219716078 [Eh]

	 ================> DF-SCS-MP2 Energies <==================
	-----------------------------------------------------------
	 SCS Same-Spin Scale       =       0.3333333333333333 [-]
	 SCS Opposite-Spin Scale   =       1.2000000000000000 [-]
	 SCS Same-Spin Energy      =      -0.0999088454355243 [Eh]
	 SCS Opposite-Spin Energy  =      -1.1713243093755645 [Eh]
	 SCS Correlation Energy    =      -1.2712331548110889 [Eh]
	 SCS Total Energy          =    -271.0605369493298440 [Eh]
	-----------------------------------------------------------

  Dipole Moment: [D]
     X:    -0.0270      Y:    -0.0000      Z:     0.0215     Total:     0.0345

*** Psi4 exiting successfully. Buy a developer a beer!
