                               Psi4 1.3.2 release

  ==> Input File <==

--------------------------------------------------------------------------
#psi4
#
memory 32 gb

molecule  {
0 1
  C       -2.4205560     0.0000000     0.0118300
  C        1.9026710    -0.0000040     0.0093960
  C        1.1996400    -1.2063010     0.0018590
  C        1.1996470     1.2062960     0.0018580
  C       -0.1961990    -1.2029620    -0.0082140
  C       -0.1961940     1.2029670    -0.0082130
  C       -1.1136046     0.0000043    -0.0127719
  H        2.9899420    -0.0000050     0.0144970
  H        1.7382270    -2.1512330     0.0030650
  H        1.7382400     2.1512250     0.0030610
  H       -0.7371330    -2.1480740    -0.0183500
  H       -0.7371210     2.1480830    -0.0183460
  H       -2.8237680    -0.8851500    -0.4884320
  H       -2.8237700     0.8853450    -0.4880880
  H       -2.7968300    -0.0002010     1.0407190
units angstrom
no_reorient  #important for SAPT in psi4, default
symmetry c1  #important for SAPT in psi4, default
}

set PROPERTIES_ORIGIN ["COM"]
properties('MP2/aug-cc-pvtz', properties = ['dipole'])
--------------------------------------------------------------------------

    Molecular point group: c1
  Charge       = 0
  Multiplicity = 1
  Basis Set: AUG-CC-PVTZ
    Blend: AUG-CC-PVTZ
  Basis Set: (AUG-CC-PVTZ AUX)
    Blend: AUG-CC-PVTZ-JKFIT

    Orbital Energies [Eh]
    ---------------------

    Doubly Occupied:

       1A    -11.258332     2A    -11.240439     3A    -11.240414
       4A    -11.234259     5A    -11.234082     6A    -11.230145
       7A    -11.220308     8A     -1.141641     9A     -1.079643
      10A     -1.000896    11A     -0.934432    12A     -0.810562
      13A     -0.787917    14A     -0.686155    15A     -0.649235
      16A     -0.638507    17A     -0.602105    18A     -0.580017
      19A     -0.570567    20A     -0.542909    21A     -0.512030
      22A     -0.474858    23A     -0.442581    24A     -0.330956
      25A     -0.301239

  @DF-RHF Final Energy:  -269.76676392272219

   => Energetics <=

    Nuclear Repulsion Energy =            267.4324211112785861
    One-Electron Energy =                -892.9099161901978050
    Two-Electron Energy =                 355.7107311561970278
    Total Energy =                       -269.7667639227221912
  Basis Set: (AUG-CC-PVTZ AUX)
    Blend: AUG-CC-PVTZ-RI
    Molecular point group: c1

    Geometry (in Angstrom), charge = 0, multiplicity = 1:

       Center              X                  Y                   Z               Mass
    ------------   -----------------  -----------------  -----------------  -----------------
         C           -2.431696529587     0.000000070368     0.011857896372    12.000000000000
         C            1.891530470413    -0.000003929632     0.009423896372    12.000000000000
         C            1.188499470413    -1.206300929632     0.001886896372    12.000000000000
         C            1.188506470413     1.206296070368     0.001885896372    12.000000000000
         C           -0.207339529587    -1.202961929632    -0.008186103628    12.000000000000
         C           -0.207334529587     1.202967070368    -0.008185103628    12.000000000000
         C           -1.124745129587     0.000004370368    -0.012744003628    12.000000000000
         H            2.978801470413    -0.000004929632     0.014524896372     1.007825032230
         H            1.727086470413    -2.151232929632     0.003092896372     1.007825032230
         H            1.727099470413     2.151225070368     0.003088896372     1.007825032230
         H           -0.748273529587    -2.148073929632    -0.018322103628     1.007825032230
         H           -0.748261529587     2.148083070368    -0.018318103628     1.007825032230
         H           -2.834908529587    -0.885149929632    -0.488404103628     1.007825032230
         H           -2.834910529587     0.885345070368    -0.488060103628     1.007825032230
         H           -2.807970529587    -0.000200929632     1.040746896372     1.007825032230

  Basis Set: AUG-CC-PVTZ
    Blend: AUG-CC-PVTZ
  Basis Set: (AUG-CC-PVTZ AUX)
    Blend: AUG-CC-PVTZ-JKFIT
	 Reference Energy          =    -269.7667639227221912 [Eh]
	 Singles Energy            =      -0.0000000000000000 [Eh]
	 Same-Spin Energy          =      -0.3034706492272044 [Eh]
	 Opposite-Spin Energy      =      -0.9818522279659939 [Eh]
	 Correlation Energy        =      -1.2853228771931984 [Eh]
	 Total Energy              =    -271.0520867999154007 [Eh]

	 ================> DF-SCS-MP2 Energies <==================
	-----------------------------------------------------------
	 SCS Same-Spin Scale       =       0.3333333333333333 [-]
	 SCS Opposite-Spin Scale   =       1.2000000000000000 [-]
	 SCS Same-Spin Energy      =      -0.1011568830757348 [Eh]
	 SCS Opposite-Spin Energy  =      -1.1782226735591927 [Eh]
	 SCS Correlation Energy    =      -1.2793795566349275 [Eh]
	 SCS Total Energy          =    -271.0461434793571129 [Eh]
	-----------------------------------------------------------

  Dipole Moment: [D]
     X:    -0.7553      Y:    -0.0000      Z:     0.0649     Total:     0.7581

*** Psi4 exiting successfully. Buy a developer a beer!
