                               Psi4 1.3.2 release

  ==> Input File <==

--------------------------------------------------------------------------
#psi4
#
memory 32 gb

molecule  {
0 1
  C       -2.4205560     0.0000000     0.0118300
  C        1.9026710    -0.0000040     0.0093960
  C        1.1996400    -1.2063010     0.0018590
  C        1.1996470     1.2062960     0.0018580
  C       -0.1961990    -1.2029620    -0.0082140
  C       -0.1961940     1.2029670    -0.0082130
  C       -0.9136400     0.0000050    -0.0165360
  H        2.9899420    -0.0000050     0.0144970
  H        1.7382270    -2.1512330     0.0030650
  H        1.7382400     2.1512250     0.0030610
  H       -0.7371330    -2.1480740    -0.0183500
  H       -0.7371210     2.1480830    -0.0183460
  H       -2.8237680    -0.8851500    -0.4884320
  H       -2.8237700     0.8853450    -0.4880880
  H       -2.8311762    -0.0002193     1.1346357
units angstrom
no_reorient  #important for SAPT in psi4, default
symmetry c1  #important for SAPT in psi4, default
}

set PROPERTIES_ORIGIN ["COM"]
properties('MP2/aug-cc-pvtz', properties = ['dipole'])
--------------------------------------------------------------------------

    Molecular point group: c1
  Charge       = 0
  Multiplicity = 1
  Basis Set: AUG-CC-PVTZ
    Blend: AUG-CC-PVTZ
  Basis Set: (AUG-CC-PVTZ AUX)
    Blend: AUG-CC-PVTZ-JKFIT

    Orbital Energies [Eh]
    ---------------------

    Doubly Occupied:

       1A    -11.242999     2A    -11.236283     3A    -11.235278
       4A    -11.235115     5A    -11.231127     6A    -11.230630
       7A    -11.230545     8A     -1.150472     9A     -1.041487
      10A     -1.010243    11A     -0.925834    12A     -0.823770
      13A     -0.794799    14A     -0.690308    15A     -0.632328
      16A     -0.630631    17A     -0.582401    18A     -0.566495
      19A     -0.557878    20A     -0.539444    21A     -0.487248
      22A     -0.485623    23A     -0.483944    24A     -0.334374
      25A     -0.323076

  @DF-RHF Final Energy:  -269.82355706527517

   => Energetics <=

    Nuclear Repulsion Energy =            268.3906476399680514
    One-Electron Energy =                -895.0237472837753785
    Two-Electron Energy =                 356.8095425785321595
    Total Energy =                       -269.8235570652751676
  Basis Set: (AUG-CC-PVTZ AUX)
    Blend: AUG-CC-PVTZ-RI
    Molecular point group: c1

    Geometry (in Angstrom), charge = 0, multiplicity = 1:

       Center              X                  Y                   Z               Mass
    ------------   -----------------  -----------------  -----------------  -----------------
         C           -2.457385139655     0.000000179459     0.011320409910    12.000000000000
         C            1.865841860345    -0.000003820541     0.008886409910    12.000000000000
         C            1.162810860345    -1.206300820541     0.001349409910    12.000000000000
         C            1.162817860345     1.206296179459     0.001348409910    12.000000000000
         C           -0.233028139655    -1.202961820541    -0.008723590090    12.000000000000
         C           -0.233023139655     1.202967179459    -0.008722590090    12.000000000000
         C           -0.950469139655     0.000005179459    -0.017045590090    12.000000000000
         H            2.953112860345    -0.000004820541     0.013987409910     1.007825032230
         H            1.701397860345    -2.151232820541     0.002555409910     1.007825032230
         H            1.701410860345     2.151225179459     0.002551409910     1.007825032230
         H           -0.773962139655    -2.148073820541    -0.018859590090     1.007825032230
         H           -0.773950139655     2.148083179459    -0.018855590090     1.007825032230
         H           -2.860597139655    -0.885149820541    -0.488941590090     1.007825032230
         H           -2.860599139655     0.885345179459    -0.488597590090     1.007825032230
         H           -2.868005339655    -0.000219120541     1.134126109910     1.007825032230

  Basis Set: AUG-CC-PVTZ
    Blend: AUG-CC-PVTZ
  Basis Set: (AUG-CC-PVTZ AUX)
    Blend: AUG-CC-PVTZ-JKFIT
	 Reference Energy          =    -269.8235570652751676 [Eh]
	 Singles Energy            =      -0.0000000000000000 [Eh]
	 Same-Spin Energy          =      -0.2994605386269325 [Eh]
	 Opposite-Spin Energy      =      -0.9760353481682711 [Eh]
	 Correlation Energy        =      -1.2754958867952035 [Eh]
	 Total Energy              =    -271.0990529520703944 [Eh]

	 ================> DF-SCS-MP2 Energies <==================
	-----------------------------------------------------------
	 SCS Same-Spin Scale       =       0.3333333333333333 [-]
	 SCS Opposite-Spin Scale   =       1.2000000000000000 [-]
	 SCS Same-Spin Energy      =      -0.0998201795423108 [Eh]
	 SCS Opposite-Spin Energy  =      -1.1712424178019252 [Eh]
	 SCS Correlation Energy    =      -1.2710625973442360 [Eh]
	 SCS Total Energy          =    -271.0946196626193796 [Eh]
	-----------------------------------------------------------

  Dipole Moment: [D]
     X:    -0.3255      Y:    -0.0000      Z:    -0.0054     Total:     0.3255

*** Psi4 exiting successfully. Buy a developer a beer!
