                               Psi4 1.4a3.dev225

  ==> Input File <==

--------------------------------------------------------------------------
#psi4
#
memory 32 gb

molecule  {
0 1
  C       -2.4205580     0.0000000     0.0118250
  C        1.9026740    -0.0000010     0.0093850
  C        1.1996440    -1.2062980     0.0018670
  C        1.1996450     1.2062970     0.0018670
  C       -0.1961960    -1.2029630    -0.0082190
  C       -0.1961960     1.2029630    -0.0082190
  C       -0.9136430     0.0000010    -0.0165280
  H        2.9899450     0.0000000     0.0144850
  H        1.7382350    -2.1512280     0.0030590
  H        1.7382370     2.1512270     0.0030580
  H       -0.7371310    -2.1480750    -0.0183270
  H       -0.7371290     2.1480760    -0.0183270
  H       -2.8237650    -0.8852380    -0.4882860
  H       -2.8237650     0.8852570    -0.4882510
  H       -2.8140249    -0.0000209     1.0876670
units angstrom
no_reorient  #important for SAPT in psi4, default
symmetry c1  #important for SAPT in psi4, default
}

set PROPERTIES_ORIGIN ["COM"]
properties('MP2/aug-cc-pvtz', properties = ['dipole'])
--------------------------------------------------------------------------

    Molecular point group: c1
  Charge       = 0
  Multiplicity = 1
  Basis Set: AUG-CC-PVTZ
    Blend: AUG-CC-PVTZ
  Basis Set: (AUG-CC-PVTZ AUX)
    Blend: AUG-CC-PVTZ-JKFIT

    Orbital Energies [Eh]
    ---------------------

    Doubly Occupied:

       1A    -11.242573     2A    -11.235064     3A    -11.234906
       4A    -11.230810     5A    -11.230550     6A    -11.230289
       7A    -11.230203     8A     -1.150263     9A     -1.042055
      10A     -1.009983    11A     -0.928263    12A     -0.823499
      13A     -0.795294    14A     -0.690349    15A     -0.631935
      16A     -0.630435    17A     -0.582149    18A     -0.567561
      19A     -0.564917    20A     -0.538719    21A     -0.486798
      22A     -0.485862    23A     -0.485326    24A     -0.334151
      25A     -0.323271

  @DF-RHF Final Energy:  -269.82788852777105

   => Energetics <=

    Nuclear Repulsion Energy =            268.5826842333403306
    One-Electron Energy =                -895.4106956451971655
    Two-Electron Energy =                 357.0001228840857266
    Total Energy =                       -269.8278885277710515
  Basis Set: (AUG-CC-PVTZ AUX)
    Blend: AUG-CC-PVTZ-RI
    Molecular point group: c1

    Geometry (in Angstrom), charge = 0, multiplicity = 1:

       Center              X                  Y                   Z               Mass
    ------------   -----------------  -----------------  -----------------  -----------------
         C           -2.457575137688     0.000000151146     0.011829801207    12.000000000000
         C            1.865656862312    -0.000000848854     0.009389801207    12.000000000000
         C            1.162626862312    -1.206297848854     0.001871801207    12.000000000000
         C            1.162627862312     1.206297151146     0.001871801207    12.000000000000
         C           -0.233213137688    -1.202962848854    -0.008214198793    12.000000000000
         C           -0.233213137688     1.202963151146    -0.008214198793    12.000000000000
         C           -0.950660137688     0.000001151146    -0.016523198793    12.000000000000
         H            2.952927862312     0.000000151146     0.014489801207     1.007825032230
         H            1.701217862312    -2.151227848854     0.003063801207     1.007825032230
         H            1.701219862312     2.151227151146     0.003062801207     1.007825032230
         H           -0.774148137688    -2.148074848854    -0.018322198793     1.007825032230
         H           -0.774146137688     2.148076151146    -0.018322198793     1.007825032230
         H           -2.860782137688    -0.885237848854    -0.488281198793     1.007825032230
         H           -2.860782137688     0.885257151146    -0.488246198793     1.007825032230
         H           -2.851042037688    -0.000020748854     1.087671801207     1.007825032230

  Basis Set: AUG-CC-PVTZ
    Blend: AUG-CC-PVTZ
  Basis Set: (AUG-CC-PVTZ AUX)
    Blend: AUG-CC-PVTZ-JKFIT
	 Reference Energy          =    -269.8278885277710515 [Eh]
	 Singles Energy            =      -0.0000000000000000 [Eh]
	 Same-Spin Energy          =      -0.2994679779106406 [Eh]
	 Opposite-Spin Energy      =      -0.9756807963923755 [Eh]
	 Correlation Energy        =      -1.2751487743030161 [Eh]
	 Total Energy              =    -271.1030373020740853 [Eh]

	 ================> DF-SCS-MP2 Energies <==================
	-----------------------------------------------------------
	 SCS Same-Spin Scale       =       0.3333333333333333 [-]
	 SCS Opposite-Spin Scale   =       1.2000000000000000 [-]
	 SCS Same-Spin Energy      =      -0.0998226593035468 [Eh]
	 SCS Opposite-Spin Energy  =      -1.1708169556708505 [Eh]
	 SCS Correlation Energy    =      -1.2706396149743975 [Eh]
	 SCS Total Energy          =    -271.0985281427454652 [Eh]
	-----------------------------------------------------------

  Dipole Moment: [D]
     X:    -0.3544      Y:    -0.0000      Z:     0.0176     Total:     0.3549

*** Psi4 exiting successfully. Buy a developer a beer!
