                               Psi4 1.3.2 release

  ==> Input File <==

--------------------------------------------------------------------------
#psi4
#
memory 32 gb

molecule  {
0 1
  C       -2.4205560     0.0000000     0.0118300
  C        1.9026710    -0.0000040     0.0093960
  C        1.1996400    -1.2063010     0.0018590
  C        1.1996470     1.2062960     0.0018580
  C       -0.1961990    -1.2029620    -0.0082140
  C       -0.1961940     1.2029670    -0.0082130
  C       -0.9133745    -0.0000001     0.0097676
  H        2.9899420    -0.0000050     0.0144970
  H        1.7382270    -2.1512330     0.0030650
  H        1.7382400     2.1512250     0.0030610
  H       -0.7371330    -2.1480740    -0.0183500
  H       -0.7371210     2.1480830    -0.0183460
  H       -2.8237680    -0.8851500    -0.4884320
  H       -2.8237700     0.8853450    -0.4880880
  H       -2.7968300    -0.0002010     1.0407190
units angstrom
no_reorient  #important for SAPT in psi4, default
symmetry c1  #important for SAPT in psi4, default
}

set PROPERTIES_ORIGIN ["COM"]
properties('MP2/aug-cc-pvtz', properties = ['dipole'])
--------------------------------------------------------------------------

    Molecular point group: c1
  Charge       = 0
  Multiplicity = 1
  Basis Set: AUG-CC-PVTZ
    Blend: AUG-CC-PVTZ
  Basis Set: (AUG-CC-PVTZ AUX)
    Blend: AUG-CC-PVTZ-JKFIT

    Orbital Energies [Eh]
    ---------------------

    Doubly Occupied:

       1A    -11.242293     2A    -11.234843     3A    -11.234691
       4A    -11.230436     5A    -11.229965     6A    -11.229881
       7A    -11.224644     8A     -1.150123     9A     -1.042897
      10A     -1.009740    11A     -0.931249    12A     -0.823228
      13A     -0.795926    14A     -0.690462    15A     -0.631511
      16A     -0.630395    17A     -0.581945    18A     -0.575738
      19A     -0.565451    20A     -0.538173    21A     -0.487741
      22A     -0.485899    23A     -0.485186    24A     -0.333904
      25A     -0.323355

  @DF-RHF Final Energy:  -269.82982549838840

   => Energetics <=

    Nuclear Repulsion Energy =            268.7903964280731088
    One-Electron Energy =                -895.8210944157727909
    Two-Electron Energy =                 357.2008724893112799
    Total Energy =                       -269.8298254983884021
  Basis Set: (AUG-CC-PVTZ AUX)
    Blend: AUG-CC-PVTZ-RI
    Molecular point group: c1

    Geometry (in Angstrom), charge = 0, multiplicity = 1:

       Center              X                  Y                   Z               Mass
    ------------   -----------------  -----------------  -----------------  -----------------
         C           -2.457795740268     0.000000643891     0.008919960671    12.000000000000
         C            1.865431259732    -0.000003356109     0.006485960671    12.000000000000
         C            1.162400259732    -1.206300356109    -0.001051039329    12.000000000000
         C            1.162407259732     1.206296643891    -0.001052039329    12.000000000000
         C           -0.233438740268    -1.202961356109    -0.011124039329    12.000000000000
         C           -0.233433740268     1.202967643891    -0.011123039329    12.000000000000
         C           -0.950614240268     0.000000543891     0.006857560671    12.000000000000
         H            2.952702259732    -0.000004356109     0.011586960671     1.007825032230
         H            1.700987259732    -2.151232356109     0.000154960671     1.007825032230
         H            1.701000259732     2.151225643891     0.000150960671     1.007825032230
         H           -0.774372740268    -2.148073356109    -0.021260039329     1.007825032230
         H           -0.774360740268     2.148083643891    -0.021256039329     1.007825032230
         H           -2.861007740268    -0.885149356109    -0.491342039329     1.007825032230
         H           -2.861009740268     0.885345643891    -0.490998039329     1.007825032230
         H           -2.834069740268    -0.000200356109     1.037808960671     1.007825032230

  Basis Set: AUG-CC-PVTZ
    Blend: AUG-CC-PVTZ
  Basis Set: (AUG-CC-PVTZ AUX)
    Blend: AUG-CC-PVTZ-JKFIT
	 Reference Energy          =    -269.8298254983884021 [Eh]
	 Singles Energy            =      -0.0000000000000000 [Eh]
	 Same-Spin Energy          =      -0.2994790039917091 [Eh]
	 Opposite-Spin Energy      =      -0.9753733148850035 [Eh]
	 Correlation Energy        =      -1.2748523188767127 [Eh]
	 Total Energy              =    -271.1046778172650988 [Eh]

	 ================> DF-SCS-MP2 Energies <==================
	-----------------------------------------------------------
	 SCS Same-Spin Scale       =       0.3333333333333333 [-]
	 SCS Opposite-Spin Scale   =       1.2000000000000000 [-]
	 SCS Same-Spin Energy      =      -0.0998263346639030 [Eh]
	 SCS Opposite-Spin Energy  =      -1.1704479778620041 [Eh]
	 SCS Correlation Energy    =      -1.2702743125259071 [Eh]
	 SCS Total Energy          =    -271.1000998109142870 [Eh]
	-----------------------------------------------------------

  Dipole Moment: [D]
     X:    -0.3862      Y:    -0.0000      Z:     0.0250     Total:     0.3870

*** Psi4 exiting successfully. Buy a developer a beer!
