                               Psi4 1.3.2 release

  ==> Input File <==

--------------------------------------------------------------------------
#psi4
#
memory 32 gb

molecule  {
0 1
  N        0.7515910     0.0000020    -0.1260850
  H        1.1309183     0.8230377     0.3370841
  H        1.1399860    -0.8124580     0.3481170
  C       -0.7068950     0.0000000     0.0176830
  H       -1.1105870    -0.8810070    -0.4865140
  H       -1.0785270    -0.0000560     1.0532000
  H       -1.1106010     0.8810470    -0.4864360
units angstrom
no_reorient  #important for SAPT in psi4, default
symmetry c1  #important for SAPT in psi4, default
}

set PROPERTIES_ORIGIN ["COM"]
properties('MP2/aug-cc-pvtz', properties = ['dipole'])
--------------------------------------------------------------------------

    Molecular point group: c1
  Charge       = 0
  Multiplicity = 1
  Basis Set: AUG-CC-PVTZ
    Blend: AUG-CC-PVTZ
  Basis Set: (AUG-CC-PVTZ AUX)
    Blend: AUG-CC-PVTZ-JKFIT

    Orbital Energies [Eh]
    ---------------------

    Doubly Occupied:

       1A    -15.541689     2A    -11.242338     3A     -1.168710
       4A     -0.893415     5A     -0.661900     6A     -0.602136
       7A     -0.553199     8A     -0.516240     9A     -0.392888

  @DF-RHF Final Energy:   -95.25490971954913

   => Energetics <=

    Nuclear Repulsion Energy =             41.9496072273720131
    One-Electron Energy =                -211.2640044996552433
    Two-Electron Energy =                  74.0594875527340974
    Total Energy =                        -95.2549097195491328
  Basis Set: (AUG-CC-PVTZ AUX)
    Blend: AUG-CC-PVTZ-RI
    Molecular point group: c1

    Geometry (in Angstrom), charge = 0, multiplicity = 1:

       Center              X                  Y                   Z               Mass
    ------------   -----------------  -----------------  -----------------  -----------------
         N            0.719216257095    -0.000341866341    -0.100895392713    14.003074004430
         H            1.098543557095     0.822693833659     0.362273707287     1.007825032230
         H            1.107611257095    -0.812801866341     0.373306607287     1.007825032230
         C           -0.739269742905    -0.000343866341     0.042872607287    12.000000000000
         H           -1.142961742905    -0.881350866341    -0.461324392713     1.007825032230
         H           -1.110901742905    -0.000399866341     1.078389607287     1.007825032230
         H           -1.142975742905     0.880703133659    -0.461246392713     1.007825032230

  Basis Set: AUG-CC-PVTZ
    Blend: AUG-CC-PVTZ
  Basis Set: (AUG-CC-PVTZ AUX)
    Blend: AUG-CC-PVTZ-JKFIT
	 Reference Energy          =     -95.2549097195491328 [Eh]
	 Singles Energy            =      -0.0000000000000000 [Eh]
	 Same-Spin Energy          =      -0.0954404061253932 [Eh]
	 Opposite-Spin Energy      =      -0.3519421553618924 [Eh]
	 Correlation Energy        =      -0.4473825614872856 [Eh]
	 Total Energy              =     -95.7022922810364207 [Eh]

	 ================> DF-SCS-MP2 Energies <==================
	-----------------------------------------------------------
	 SCS Same-Spin Scale       =       0.3333333333333333 [-]
	 SCS Opposite-Spin Scale   =       1.2000000000000000 [-]
	 SCS Same-Spin Energy      =      -0.0318134687084644 [Eh]
	 SCS Opposite-Spin Energy  =      -0.4223305864342709 [Eh]
	 SCS Correlation Energy    =      -0.4541440551427353 [Eh]
	 SCS Total Energy          =     -95.7090537746918670 [Eh]
	-----------------------------------------------------------

  Dipole Moment: [D]
     X:    -0.3235      Y:     0.0106      Z:     1.3373     Total:     1.3759

*** Psi4 exiting successfully. Buy a developer a beer!
