                               Psi4 1.3.2 release

  ==> Input File <==

--------------------------------------------------------------------------
#psi4
#
memory 32 gb

molecule  {
0 1
  N        0.7515910     0.0000020    -0.1260850
  H        1.1018020     0.7326343     0.3015317
  H        1.1399860    -0.8124580     0.3481170
  C       -0.7068950     0.0000000     0.0176830
  H       -1.1105870    -0.8810070    -0.4865140
  H       -1.0785270    -0.0000560     1.0532000
  H       -1.1106010     0.8810470    -0.4864360
units angstrom
no_reorient  #important for SAPT in psi4, default
symmetry c1  #important for SAPT in psi4, default
}

set PROPERTIES_ORIGIN ["COM"]
properties('MP2/aug-cc-pvtz', properties = ['dipole'])
--------------------------------------------------------------------------

    Molecular point group: c1
  Charge       = 0
  Multiplicity = 1
  Basis Set: AUG-CC-PVTZ
    Blend: AUG-CC-PVTZ
  Basis Set: (AUG-CC-PVTZ AUX)
    Blend: AUG-CC-PVTZ-JKFIT

    Orbital Energies [Eh]
    ---------------------

    Doubly Occupied:

       1A    -15.529794     2A    -11.242368     3A     -1.185194
       4A     -0.901648     5A     -0.676640     6A     -0.605264
       7A     -0.555751     8A     -0.520610     9A     -0.394947

  @DF-RHF Final Energy:   -95.24816027507951

   => Energetics <=

    Nuclear Repulsion Energy =             42.4302971828115147
    One-Electron Energy =                -212.1324805139166472
    Two-Electron Energy =                  74.4540230560256049
    Total Energy =                        -95.2481602750795133
  Basis Set: (AUG-CC-PVTZ AUX)
    Blend: AUG-CC-PVTZ-RI
    Molecular point group: c1

    Geometry (in Angstrom), charge = 0, multiplicity = 1:

       Center              X                  Y                   Z               Mass
    ------------   -----------------  -----------------  -----------------  -----------------
         N            0.720161555327     0.002593196637    -0.099741138193    14.003074004430
         H            1.070372555327     0.735225496637     0.327875561807     1.007825032230
         H            1.108556555327    -0.809866803363     0.374460861807     1.007825032230
         C           -0.738324444673     0.002591196637     0.044026861807    12.000000000000
         H           -1.142016444673    -0.878415803363    -0.460170138193     1.007825032230
         H           -1.109956444673     0.002535196637     1.079543861807     1.007825032230
         H           -1.142030444673     0.883638196637    -0.460092138193     1.007825032230

  Basis Set: AUG-CC-PVTZ
    Blend: AUG-CC-PVTZ
  Basis Set: (AUG-CC-PVTZ AUX)
    Blend: AUG-CC-PVTZ-JKFIT
	 Reference Energy          =     -95.2481602750795133 [Eh]
	 Singles Energy            =      -0.0000000000000000 [Eh]
	 Same-Spin Energy          =      -0.0950614815905725 [Eh]
	 Opposite-Spin Energy      =      -0.3505591813492241 [Eh]
	 Correlation Energy        =      -0.4456206629397966 [Eh]
	 Total Energy              =     -95.6937809380193158 [Eh]

	 ================> DF-SCS-MP2 Energies <==================
	-----------------------------------------------------------
	 SCS Same-Spin Scale       =       0.3333333333333333 [-]
	 SCS Opposite-Spin Scale   =       1.2000000000000000 [-]
	 SCS Same-Spin Energy      =      -0.0316871605301908 [Eh]
	 SCS Opposite-Spin Energy  =      -0.4206710176190689 [Eh]
	 SCS Correlation Energy    =      -0.4523581781492597 [Eh]
	 SCS Total Energy          =     -95.7005184532287672 [Eh]
	-----------------------------------------------------------

  Dipole Moment: [D]
     X:    -0.3254      Y:    -0.0238      Z:     1.3521     Total:     1.3909

*** Psi4 exiting successfully. Buy a developer a beer!
