                               Psi4 1.3.2 release

  ==> Input File <==

--------------------------------------------------------------------------
#psi4
#
memory 32 gb

molecule  {
0 1
  N        0.7515910     0.0000020    -0.1260850
  H        1.1399620     0.8124640     0.3481260
  H        1.1399860    -0.8124580     0.3481170
  C       -0.9059304    -0.0000003     0.0373026
  H       -1.1105870    -0.8810070    -0.4865140
  H       -1.0785270    -0.0000560     1.0532000
  H       -1.1106010     0.8810470    -0.4864360
units angstrom
no_reorient  #important for SAPT in psi4, default
symmetry c1  #important for SAPT in psi4, default
}

set PROPERTIES_ORIGIN ["COM"]
properties('MP2/aug-cc-pvtz', properties = ['dipole'])
--------------------------------------------------------------------------

    Molecular point group: c1
  Charge       = 0
  Multiplicity = 1
  Basis Set: AUG-CC-PVTZ
    Blend: AUG-CC-PVTZ
  Basis Set: (AUG-CC-PVTZ AUX)
    Blend: AUG-CC-PVTZ-JKFIT

    Orbital Energies [Eh]
    ---------------------

    Doubly Occupied:

       1A    -15.537970     2A    -11.243685     3A     -1.122580
       4A     -0.917486     5A     -0.645482     6A     -0.615584
       7A     -0.552352     8A     -0.499425     9A     -0.390740

  @DF-RHF Final Energy:   -95.22676423307894

   => Energetics <=

    Nuclear Repulsion Energy =             40.3331689532851030
    One-Electron Energy =                -208.0692610285584294
    Two-Electron Energy =                  72.5093278421943808
    Total Energy =                        -95.2267642330789386
  Basis Set: (AUG-CC-PVTZ AUX)
    Blend: AUG-CC-PVTZ-RI
    Molecular point group: c1

    Geometry (in Angstrom), charge = 0, multiplicity = 1:

       Center              X                  Y                   Z               Mass
    ------------   -----------------  -----------------  -----------------  -----------------
         N            0.795863865729     0.000001538438    -0.108838241797    14.003074004430
         H            1.184234865729     0.812463538438     0.365372758203     1.007825032230
         H            1.184258865729    -0.812458461562     0.365363758203     1.007825032230
         C           -0.861657534271    -0.000000761562     0.054549358203    12.000000000000
         H           -1.066314134271    -0.881007461562    -0.469267241797     1.007825032230
         H           -1.034254134271    -0.000056461562     1.070446758203     1.007825032230
         H           -1.066328134271     0.881046538438    -0.469189241797     1.007825032230

  Basis Set: AUG-CC-PVTZ
    Blend: AUG-CC-PVTZ
  Basis Set: (AUG-CC-PVTZ AUX)
    Blend: AUG-CC-PVTZ-JKFIT
	 Reference Energy          =     -95.2267642330789386 [Eh]
	 Singles Energy            =      -0.0000000000000000 [Eh]
	 Same-Spin Energy          =      -0.0957379718606736 [Eh]
	 Opposite-Spin Energy      =      -0.3547338829973176 [Eh]
	 Correlation Energy        =      -0.4504718548579912 [Eh]
	 Total Energy              =     -95.6772360879369330 [Eh]

	 ================> DF-SCS-MP2 Energies <==================
	-----------------------------------------------------------
	 SCS Same-Spin Scale       =       0.3333333333333333 [-]
	 SCS Opposite-Spin Scale   =       1.2000000000000000 [-]
	 SCS Same-Spin Energy      =      -0.0319126572868912 [Eh]
	 SCS Opposite-Spin Energy  =      -0.4256806595967811 [Eh]
	 SCS Correlation Energy    =      -0.4575933168836723 [Eh]
	 SCS Total Energy          =     -95.6843575499626127 [Eh]
	-----------------------------------------------------------

  Dipole Moment: [D]
     X:    -0.7052      Y:    -0.0000      Z:     1.3903     Total:     1.5589

*** Psi4 exiting successfully. Buy a developer a beer!
