                               Psi4 1.3.2 release

  ==> Input File <==

--------------------------------------------------------------------------
#psi4
#
memory 32 gb

molecule  {
0 1
  N        0.7515910     0.0000020    -0.1260850
  H        1.1488874     0.8016428     0.3590234
  H        1.1399860    -0.8124580     0.3481170
  C       -0.7068950     0.0000000     0.0176830
  H       -1.1105870    -0.8810070    -0.4865140
  H       -1.0785270    -0.0000560     1.0532000
  H       -1.1106010     0.8810470    -0.4864360
units angstrom
no_reorient  #important for SAPT in psi4, default
symmetry c1  #important for SAPT in psi4, default
}

set PROPERTIES_ORIGIN ["COM"]
properties('MP2/aug-cc-pvtz', properties = ['dipole'])
--------------------------------------------------------------------------

    Molecular point group: c1
  Charge       = 0
  Multiplicity = 1
  Basis Set: AUG-CC-PVTZ
    Blend: AUG-CC-PVTZ
  Basis Set: (AUG-CC-PVTZ AUX)
    Blend: AUG-CC-PVTZ-JKFIT

    Orbital Energies [Eh]
    ---------------------

    Doubly Occupied:

       1A    -15.541903     2A    -11.242682     3A     -1.169023
       4A     -0.894410     5A     -0.658699     6A     -0.603723
       7A     -0.554059     8A     -0.515376     9A     -0.393927

  @DF-RHF Final Energy:   -95.25490395869080

   => Energetics <=

    Nuclear Repulsion Energy =             41.9423115729925797
    One-Electron Energy =                -211.2468252004090061
    Two-Electron Energy =                  74.0496096687256369
    Total Energy =                        -95.2549039586908037
  Basis Set: (AUG-CC-PVTZ AUX)
    Blend: AUG-CC-PVTZ-RI
    Molecular point group: c1

    Geometry (in Angstrom), charge = 0, multiplicity = 1:

       Center              X                  Y                   Z               Mass
    ------------   -----------------  -----------------  -----------------  -----------------
         N            0.718632867089     0.000352746681    -0.101607680383    14.003074004430
         H            1.115929267089     0.801993546681     0.383500719617     1.007825032230
         H            1.107027867089    -0.812107253319     0.372594319617     1.007825032230
         C           -0.739853132911     0.000350746681     0.042160319617    12.000000000000
         H           -1.143545132911    -0.880656253319    -0.462036680383     1.007825032230
         H           -1.111485132911     0.000294746681     1.077677319617     1.007825032230
         H           -1.143559132911     0.881397746681    -0.461958680383     1.007825032230

  Basis Set: AUG-CC-PVTZ
    Blend: AUG-CC-PVTZ
  Basis Set: (AUG-CC-PVTZ AUX)
    Blend: AUG-CC-PVTZ-JKFIT
	 Reference Energy          =     -95.2549039586908037 [Eh]
	 Singles Energy            =      -0.0000000000000000 [Eh]
	 Same-Spin Energy          =      -0.0954430917690555 [Eh]
	 Opposite-Spin Energy      =      -0.3519569002017736 [Eh]
	 Correlation Energy        =      -0.4473999919708291 [Eh]
	 Total Energy              =     -95.7023039506616300 [Eh]

	 ================> DF-SCS-MP2 Energies <==================
	-----------------------------------------------------------
	 SCS Same-Spin Scale       =       0.3333333333333333 [-]
	 SCS Opposite-Spin Scale   =       1.2000000000000000 [-]
	 SCS Same-Spin Energy      =      -0.0318143639230185 [Eh]
	 SCS Opposite-Spin Energy  =      -0.4223482802421283 [Eh]
	 SCS Correlation Energy    =      -0.4541626441651468 [Eh]
	 SCS Total Energy          =     -95.7090666028559554 [Eh]
	-----------------------------------------------------------

  Dipole Moment: [D]
     X:    -0.3228      Y:    -0.0109      Z:     1.3588     Total:     1.3966

*** Psi4 exiting successfully. Buy a developer a beer!
