                               Psi4 1.3.2 release

  ==> Input File <==

--------------------------------------------------------------------------
#psi4
#
memory 32 gb

molecule  {
0 1
  N        0.7515910     0.0000020    -0.1260850
  H        1.1781220     0.8922937     0.3947203
  H        1.1399860    -0.8124580     0.3481170
  C       -0.7068950     0.0000000     0.0176830
  H       -1.1105870    -0.8810070    -0.4865140
  H       -1.0785270    -0.0000560     1.0532000
  H       -1.1106010     0.8810470    -0.4864360
units angstrom
no_reorient  #important for SAPT in psi4, default
symmetry c1  #important for SAPT in psi4, default
}

set PROPERTIES_ORIGIN ["COM"]
properties('MP2/aug-cc-pvtz', properties = ['dipole'])
--------------------------------------------------------------------------

    Molecular point group: c1
  Charge       = 0
  Multiplicity = 1
  Basis Set: AUG-CC-PVTZ
    Blend: AUG-CC-PVTZ
  Basis Set: (AUG-CC-PVTZ AUX)
    Blend: AUG-CC-PVTZ-JKFIT

    Orbital Energies [Eh]
    ---------------------

    Doubly Occupied:

       1A    -15.552759     2A    -11.242972     3A     -1.157744
       4A     -0.888243     5A     -0.646868     6A     -0.600016
       7A     -0.551939     8A     -0.509384     9A     -0.392284

  @DF-RHF Final Energy:   -95.24533171405240

   => Energetics <=

    Nuclear Repulsion Energy =             41.5359299381020008
    One-Electron Energy =                -210.4781051903624416
    Two-Electron Energy =                  73.6968435382080287
    Total Energy =                        -95.2453317140523978
  Basis Set: (AUG-CC-PVTZ AUX)
    Blend: AUG-CC-PVTZ-RI
    Molecular point group: c1

    Geometry (in Angstrom), charge = 0, multiplicity = 1:

       Center              X                  Y                   Z               Mass
    ------------   -----------------  -----------------  -----------------  -----------------
         N            0.717683728095    -0.002590351703    -0.102766626281    14.003074004430
         H            1.144214728095     0.889701348297     0.418038673719     1.007825032230
         H            1.106078728095    -0.815050351703     0.371435373719     1.007825032230
         C           -0.740802271905    -0.002592351703     0.041001373719    12.000000000000
         H           -1.144494271905    -0.883599351703    -0.463195626281     1.007825032230
         H           -1.112434271905    -0.002648351703     1.076518373719     1.007825032230
         H           -1.144508271905     0.878454648297    -0.463117626281     1.007825032230

  Basis Set: AUG-CC-PVTZ
    Blend: AUG-CC-PVTZ
  Basis Set: (AUG-CC-PVTZ AUX)
    Blend: AUG-CC-PVTZ-JKFIT
	 Reference Energy          =     -95.2453317140523978 [Eh]
	 Singles Energy            =      -0.0000000000000000 [Eh]
	 Same-Spin Energy          =      -0.0958128207802416 [Eh]
	 Opposite-Spin Energy      =      -0.3536075398578640 [Eh]
	 Correlation Energy        =      -0.4494203606381055 [Eh]
	 Total Energy              =     -95.6947520746904985 [Eh]

	 ================> DF-SCS-MP2 Energies <==================
	-----------------------------------------------------------
	 SCS Same-Spin Scale       =       0.3333333333333333 [-]
	 SCS Opposite-Spin Scale   =       1.2000000000000000 [-]
	 SCS Same-Spin Energy      =      -0.0319376069267472 [Eh]
	 SCS Opposite-Spin Energy  =      -0.4243290478294368 [Eh]
	 SCS Correlation Energy    =      -0.4562666547561839 [Eh]
	 SCS Total Energy          =     -95.7015983688085754 [Eh]
	-----------------------------------------------------------

  Dipole Moment: [D]
     X:    -0.3325      Y:     0.0118      Z:     1.3407     Total:     1.3813

*** Psi4 exiting successfully. Buy a developer a beer!
