                               Psi4 1.3.2 release

  ==> Input File <==

--------------------------------------------------------------------------
#psi4
#
memory 32 gb

molecule  {
0 1
  N        0.7515910     0.0000020    -0.1260850
  H        1.1399620     0.8124640     0.3481260
  H        1.1399860    -0.8124580     0.3481170
  C       -0.7068950     0.0000000     0.0176830
  H       -1.1105870    -0.8810070    -0.4865140
  H       -1.0785270    -0.0000560     1.0532000
  H       -1.1106010     0.8810470    -0.4864360
units angstrom
no_reorient  #important for SAPT in psi4, default
symmetry c1  #important for SAPT in psi4, default
}

set PROPERTIES_ORIGIN ["COM"]
properties('MP2/aug-cc-pvtz', properties = ['dipole'])
--------------------------------------------------------------------------

    Molecular point group: c1
  Charge       = 0
  Multiplicity = 1
  Basis Set: AUG-CC-PVTZ
    Blend: AUG-CC-PVTZ
  Basis Set: (AUG-CC-PVTZ AUX)
    Blend: AUG-CC-PVTZ-JKFIT

    Orbital Energies [Eh]
    ---------------------

    Doubly Occupied:

       1A    -15.541797     2A    -11.242509     3A     -1.168861
       4A     -0.893910     5A     -0.660300     6A     -0.602923
       7A     -0.553631     8A     -0.515823     9A     -0.393409

  @DF-RHF Final Energy:   -95.25493945980293

   => Energetics <=

    Nuclear Repulsion Energy =             41.9458703486700557
    One-Electron Energy =                -211.2552930776639641
    Two-Electron Energy =                  74.0544832691909960
    Total Energy =                        -95.2549394598029266
  Basis Set: (AUG-CC-PVTZ AUX)
    Blend: AUG-CC-PVTZ-RI
    Molecular point group: c1

    Geometry (in Angstrom), charge = 0, multiplicity = 1:

       Center              X                  Y                   Z               Mass
    ------------   -----------------  -----------------  -----------------  -----------------
         N            0.718922641711     0.000001422467    -0.101253882237    14.003074004430
         H            1.107293641711     0.812463422467     0.372957117763     1.007825032230
         H            1.107317641711    -0.812458577533     0.372948117763     1.007825032230
         C           -0.739563358289    -0.000000577533     0.042514117763    12.000000000000
         H           -1.143255358289    -0.881007577533    -0.461682882237     1.007825032230
         H           -1.111195358289    -0.000056577533     1.078031117763     1.007825032230
         H           -1.143269358289     0.881046422467    -0.461604882237     1.007825032230

  Basis Set: AUG-CC-PVTZ
    Blend: AUG-CC-PVTZ
  Basis Set: (AUG-CC-PVTZ AUX)
    Blend: AUG-CC-PVTZ-JKFIT
	 Reference Energy          =     -95.2549394598029266 [Eh]
	 Singles Energy            =      -0.0000000000000000 [Eh]
	 Same-Spin Energy          =      -0.0954402863344173 [Eh]
	 Opposite-Spin Energy      =      -0.3519471700430760 [Eh]
	 Correlation Energy        =      -0.4473874563774933 [Eh]
	 Total Energy              =     -95.7023269161804251 [Eh]

	 ================> DF-SCS-MP2 Energies <==================
	-----------------------------------------------------------
	 SCS Same-Spin Scale       =       0.3333333333333333 [-]
	 SCS Opposite-Spin Scale   =       1.2000000000000000 [-]
	 SCS Same-Spin Energy      =      -0.0318134287781391 [Eh]
	 SCS Opposite-Spin Energy  =      -0.4223366040516912 [Eh]
	 SCS Correlation Energy    =      -0.4541500328298303 [Eh]
	 SCS Total Energy          =     -95.7090894926327564 [Eh]
	-----------------------------------------------------------

  Dipole Moment: [D]
     X:    -0.3231      Y:    -0.0000      Z:     1.3481     Total:     1.3863

*** Psi4 exiting successfully. Buy a developer a beer!
