                               Psi4 1.3.2 release

  ==> Input File <==

--------------------------------------------------------------------------
#psi4
#
memory 32 gb

molecule  {
0 1
  N        0.7515910     0.0000020    -0.1260850
  H        1.1217591     0.8333607     0.3259011
  H        1.1399860    -0.8124580     0.3481170
  C       -0.7068950     0.0000000     0.0176830
  H       -1.1105870    -0.8810070    -0.4865140
  H       -1.0785270    -0.0000560     1.0532000
  H       -1.1106010     0.8810470    -0.4864360
units angstrom
no_reorient  #important for SAPT in psi4, default
symmetry c1  #important for SAPT in psi4, default
}

set PROPERTIES_ORIGIN ["COM"]
properties('MP2/aug-cc-pvtz', properties = ['dipole'])
--------------------------------------------------------------------------

    Molecular point group: c1
  Charge       = 0
  Multiplicity = 1
  Basis Set: AUG-CC-PVTZ
    Blend: AUG-CC-PVTZ
  Basis Set: (AUG-CC-PVTZ AUX)
    Blend: AUG-CC-PVTZ-JKFIT

    Orbital Energies [Eh]
    ---------------------

    Doubly Occupied:

       1A    -15.541578     2A    -11.242169     3A     -1.168571
       4A     -0.892925     5A     -0.663499     6A     -0.601361
       7A     -0.552762     8A     -0.516626     9A     -0.392366

  @DF-RHF Final Energy:   -95.25481507254818

   => Energetics <=

    Nuclear Repulsion Energy =             41.9535214523115414
    One-Electron Energy =                -211.2729589070729901
    Two-Electron Energy =                  74.0646223822132583
    Total Energy =                        -95.2548150725481833
  Basis Set: (AUG-CC-PVTZ AUX)
    Blend: AUG-CC-PVTZ-RI
    Molecular point group: c1

    Geometry (in Angstrom), charge = 0, multiplicity = 1:

       Center              X                  Y                   Z               Mass
    ------------   -----------------  -----------------  -----------------  -----------------
         N            0.719513622336    -0.000677015850    -0.100532322194    14.003074004430
         H            1.089681722336     0.832681684150     0.351453777806     1.007825032230
         H            1.107908622336    -0.813137015850     0.373669677806     1.007825032230
         C           -0.738972377664    -0.000679015850     0.043235677806    12.000000000000
         H           -1.142664377664    -0.881686015850    -0.460961322194     1.007825032230
         H           -1.110604377664    -0.000735015850     1.078752677806     1.007825032230
         H           -1.142678377664     0.880367984150    -0.460883322194     1.007825032230

  Basis Set: AUG-CC-PVTZ
    Blend: AUG-CC-PVTZ
  Basis Set: (AUG-CC-PVTZ AUX)
    Blend: AUG-CC-PVTZ-JKFIT
	 Reference Energy          =     -95.2548150725481833 [Eh]
	 Singles Energy            =      -0.0000000000000000 [Eh]
	 Same-Spin Energy          =      -0.0954434421491313 [Eh]
	 Opposite-Spin Energy      =      -0.3519417845969508 [Eh]
	 Correlation Energy        =      -0.4473852267460821 [Eh]
	 Total Energy              =     -95.7022002992942618 [Eh]

	 ================> DF-SCS-MP2 Energies <==================
	-----------------------------------------------------------
	 SCS Same-Spin Scale       =       0.3333333333333333 [-]
	 SCS Opposite-Spin Scale   =       1.2000000000000000 [-]
	 SCS Same-Spin Energy      =      -0.0318144807163771 [Eh]
	 SCS Opposite-Spin Energy  =      -0.4223301415163410 [Eh]
	 SCS Correlation Energy    =      -0.4541446222327181 [Eh]
	 SCS Total Energy          =     -95.7089596947809014 [Eh]
	-----------------------------------------------------------

  Dipole Moment: [D]
     X:    -0.3240      Y:     0.0209      Z:     1.3264     Total:     1.3656

*** Psi4 exiting successfully. Buy a developer a beer!
