                               Psi4 1.3.2 release

  ==> Input File <==

--------------------------------------------------------------------------
#psi4
#
memory 32 gb

molecule  {
0 1
  N        0.7515910     0.0000020    -0.1260850
  H        1.1235513     0.8173656     0.3528355
  H        1.1399860    -0.8124580     0.3481170
  C       -0.7068950     0.0000000     0.0176830
  H       -1.1105870    -0.8810070    -0.4865140
  H       -1.0785270    -0.0000560     1.0532000
  H       -1.1106010     0.8810470    -0.4864360
units angstrom
no_reorient  #important for SAPT in psi4, default
symmetry c1  #important for SAPT in psi4, default
}

set PROPERTIES_ORIGIN ["COM"]
properties('MP2/aug-cc-pvtz', properties = ['dipole'])
--------------------------------------------------------------------------

    Molecular point group: c1
  Charge       = 0
  Multiplicity = 1
  Basis Set: AUG-CC-PVTZ
    Blend: AUG-CC-PVTZ
  Basis Set: (AUG-CC-PVTZ AUX)
    Blend: AUG-CC-PVTZ-JKFIT

    Orbital Energies [Eh]
    ---------------------

    Doubly Occupied:

       1A    -15.541967     2A    -11.242346     3A     -1.169318
       4A     -0.893469     5A     -0.661383     6A     -0.602630
       7A     -0.552913     8A     -0.515902     9A     -0.393891

  @DF-RHF Final Energy:   -95.25485319263909

   => Energetics <=

    Nuclear Repulsion Energy =             41.9571593577207906
    One-Electron Energy =                -211.2763880991096528
    Two-Electron Energy =                  74.0643755487497657
    Total Energy =                        -95.2548531926390893
  Basis Set: (AUG-CC-PVTZ AUX)
    Blend: AUG-CC-PVTZ-RI
    Molecular point group: c1

    Geometry (in Angstrom), charge = 0, multiplicity = 1:

       Center              X                  Y                   Z               Mass
    ------------   -----------------  -----------------  -----------------  -----------------
         N            0.719455436252    -0.000157714299    -0.101406782229    14.003074004430
         H            1.091415736252     0.817205885701     0.377513717771     1.007825032230
         H            1.107850436252    -0.812617714299     0.372795217771     1.007825032230
         C           -0.739030563748    -0.000159714299     0.042361217771    12.000000000000
         H           -1.142722563748    -0.881166714299    -0.461835782229     1.007825032230
         H           -1.110662563748    -0.000215714299     1.077878217771     1.007825032230
         H           -1.142736563748     0.880887285701    -0.461757782229     1.007825032230

  Basis Set: AUG-CC-PVTZ
    Blend: AUG-CC-PVTZ
  Basis Set: (AUG-CC-PVTZ AUX)
    Blend: AUG-CC-PVTZ-JKFIT
	 Reference Energy          =     -95.2548531926390893 [Eh]
	 Singles Energy            =      -0.0000000000000000 [Eh]
	 Same-Spin Energy          =      -0.0954461676822148 [Eh]
	 Opposite-Spin Energy      =      -0.3519739701272578 [Eh]
	 Correlation Energy        =      -0.4474201378094727 [Eh]
	 Total Energy              =     -95.7022733304485627 [Eh]

	 ================> DF-SCS-MP2 Energies <==================
	-----------------------------------------------------------
	 SCS Same-Spin Scale       =       0.3333333333333333 [-]
	 SCS Opposite-Spin Scale   =       1.2000000000000000 [-]
	 SCS Same-Spin Energy      =      -0.0318153892274049 [Eh]
	 SCS Opposite-Spin Energy  =      -0.4223687641527094 [Eh]
	 SCS Correlation Energy    =      -0.4541841533801143 [Eh]
	 SCS Total Energy          =     -95.7090373460192012 [Eh]
	-----------------------------------------------------------

  Dipole Moment: [D]
     X:    -0.3344      Y:    -0.0012      Z:     1.3537     Total:     1.3944

*** Psi4 exiting successfully. Buy a developer a beer!
