                               Psi4 1.4a3.dev225

  ==> Input File <==

--------------------------------------------------------------------------
#psi4
#
memory 32 gb

molecule  {
0 1
  N        0.7515260     0.0000030    -0.1261400
  H        1.1590486     0.8523195     0.3715005
  H        1.1399710    -0.8124230     0.3481590
  C       -0.7067710     0.0000000     0.0176910
  H       -1.1106360    -0.8809610    -0.4863580
  H       -1.0787230    -0.0000410     1.0531300
  H       -1.1106370     0.8809980    -0.4862910
units angstrom
no_reorient  #important for SAPT in psi4, default
symmetry c1  #important for SAPT in psi4, default
}

set PROPERTIES_ORIGIN ["COM"]
properties('MP2/aug-cc-pvtz', properties = ['dipole'])
--------------------------------------------------------------------------

    Molecular point group: c1
  Charge       = 0
  Multiplicity = 1
  Basis Set: AUG-CC-PVTZ
    Blend: AUG-CC-PVTZ
  Basis Set: (AUG-CC-PVTZ AUX)
    Blend: AUG-CC-PVTZ-JKFIT

    Orbital Energies [Eh]
    ---------------------

    Doubly Occupied:

       1A    -15.547428     2A    -11.242674     3A     -1.162785
       4A     -0.890829     5A     -0.653118     6A     -0.601586
       7A     -0.552739     8A     -0.512814     9A     -0.392810

  @DF-RHF Final Energy:   -95.25157928059818

   => Energetics <=

    Nuclear Repulsion Energy =             41.7349078039725256
    One-Electron Energy =                -210.8594081480566160
    Two-Electron Energy =                  73.8729210634859044
    Total Energy =                        -95.2515792805981789
  Basis Set: (AUG-CC-PVTZ AUX)
    Blend: AUG-CC-PVTZ-RI
    Molecular point group: c1

    Geometry (in Angstrom), charge = 0, multiplicity = 1:

       Center              X                  Y                   Z               Mass
    ------------   -----------------  -----------------  -----------------  -----------------
         N            0.718228967269    -0.001293514757    -0.102054910998    14.003074004430
         H            1.125751567269     0.851022985243     0.395585589002     1.007825032230
         H            1.106673967269    -0.813719514757     0.372244089002     1.007825032230
         C           -0.740068032731    -0.001296514757     0.041776089002    12.000000000000
         H           -1.143933032731    -0.882257514757    -0.462272910998     1.007825032230
         H           -1.112020032731    -0.001337514757     1.077215089002     1.007825032230
         H           -1.143934032731     0.879701485243    -0.462205910998     1.007825032230

  Basis Set: AUG-CC-PVTZ
    Blend: AUG-CC-PVTZ
  Basis Set: (AUG-CC-PVTZ AUX)
    Blend: AUG-CC-PVTZ-JKFIT
	 Reference Energy          =     -95.2515792805981789 [Eh]
	 Singles Energy            =      -0.0000000000000000 [Eh]
	 Same-Spin Energy          =      -0.0956327748024907 [Eh]
	 Opposite-Spin Energy      =      -0.3527479023668356 [Eh]
	 Correlation Energy        =      -0.4483806771693263 [Eh]
	 Total Energy              =     -95.6999599577675042 [Eh]

	 ================> DF-SCS-MP2 Energies <==================
	-----------------------------------------------------------
	 SCS Same-Spin Scale       =       0.3333333333333333 [-]
	 SCS Opposite-Spin Scale   =       1.2000000000000000 [-]
	 SCS Same-Spin Energy      =      -0.0318775916008302 [Eh]
	 SCS Opposite-Spin Energy  =      -0.4232974828402027 [Eh]
	 SCS Correlation Energy    =      -0.4551750744410330 [Eh]
	 SCS Total Energy          =     -95.7067543550392088 [Eh]
	-----------------------------------------------------------

  Dipole Moment: [D]
     X:    -0.3260      Y:     0.0074      Z:     1.3451     Total:     1.3840

*** Psi4 exiting successfully. Buy a developer a beer!
