                               Psi4 1.3.2 release

  ==> Input File <==

--------------------------------------------------------------------------
#psi4
#
memory 32 gb

molecule  {
0 1
  N        0.7515910     0.0000020    -0.1260850
  H        1.1399620     0.8124640     0.3481260
  H        1.1399860    -0.8124580     0.3481170
  C       -0.6073773     0.0000001     0.0078732
  H       -1.1105870    -0.8810070    -0.4865140
  H       -1.0785270    -0.0000560     1.0532000
  H       -1.1106010     0.8810470    -0.4864360
units angstrom
no_reorient  #important for SAPT in psi4, default
symmetry c1  #important for SAPT in psi4, default
}

set PROPERTIES_ORIGIN ["COM"]
properties('MP2/aug-cc-pvtz', properties = ['dipole'])
--------------------------------------------------------------------------

    Molecular point group: c1
  Charge       = 0
  Multiplicity = 1
  Basis Set: AUG-CC-PVTZ
    Blend: AUG-CC-PVTZ
  Basis Set: (AUG-CC-PVTZ AUX)
    Blend: AUG-CC-PVTZ-JKFIT

    Orbital Energies [Eh]
    ---------------------

    Doubly Occupied:

       1A    -15.543579     2A    -11.247521     3A     -1.203933
       4A     -0.880579     5A     -0.673963     6A     -0.625138
       7A     -0.563246     8A     -0.491205     9A     -0.386046

  @DF-RHF Final Energy:   -95.24399555454467

   => Energetics <=

    Nuclear Repulsion Energy =             42.8922945989616906
    One-Electron Energy =                -213.0421607120025556
    Two-Electron Energy =                  74.9058705584962041
    Total Energy =                        -95.2439955545446679
  Basis Set: (AUG-CC-PVTZ AUX)
    Blend: AUG-CC-PVTZ-RI
    Molecular point group: c1

    Geometry (in Angstrom), charge = 0, multiplicity = 1:

       Center              X                  Y                   Z               Mass
    ------------   -----------------  -----------------  -----------------  -----------------
         N            0.680452029702     0.000001383810    -0.097461702457    14.003074004430
         H            1.068823029702     0.812463383810     0.376749297543     1.007825032230
         H            1.068847029702    -0.812458616190     0.376740297543     1.007825032230
         C           -0.678516270298    -0.000000516190     0.036496497543    12.000000000000
         H           -1.181725970298    -0.881007616190    -0.457890702457     1.007825032230
         H           -1.149665970298    -0.000056616190     1.081823297543     1.007825032230
         H           -1.181739970298     0.881046383810    -0.457812702457     1.007825032230

  Basis Set: AUG-CC-PVTZ
    Blend: AUG-CC-PVTZ
  Basis Set: (AUG-CC-PVTZ AUX)
    Blend: AUG-CC-PVTZ-JKFIT
	 Reference Energy          =     -95.2439955545446679 [Eh]
	 Singles Energy            =      -0.0000000000000000 [Eh]
	 Same-Spin Energy          =      -0.0960685171557252 [Eh]
	 Opposite-Spin Energy      =      -0.3520146565071586 [Eh]
	 Correlation Energy        =      -0.4480831736628838 [Eh]
	 Total Energy              =     -95.6920787282075480 [Eh]

	 ================> DF-SCS-MP2 Energies <==================
	-----------------------------------------------------------
	 SCS Same-Spin Scale       =       0.3333333333333333 [-]
	 SCS Opposite-Spin Scale   =       1.2000000000000000 [-]
	 SCS Same-Spin Energy      =      -0.0320228390519084 [Eh]
	 SCS Opposite-Spin Energy  =      -0.4224175878085903 [Eh]
	 SCS Correlation Energy    =      -0.4544404268604987 [Eh]
	 SCS Total Energy          =     -95.6984359814051686 [Eh]
	-----------------------------------------------------------

  Dipole Moment: [D]
     X:    -0.0247      Y:    -0.0000      Z:     1.2945     Total:     1.2947

*** Psi4 exiting successfully. Buy a developer a beer!
