                               Psi4 1.4a3.dev225

  ==> Input File <==

--------------------------------------------------------------------------
#psi4
#
memory 32 gb

molecule  {
0 1
  N        0.7515260     0.0000030    -0.1261400
  H        1.1475990     0.8283732     0.3575190
  H        1.1399710    -0.8124230     0.3481590
  C       -0.7067710     0.0000000     0.0176910
  H       -1.1106360    -0.8809610    -0.4863580
  H       -1.0787230    -0.0000410     1.0531300
  H       -1.1106370     0.8809980    -0.4862910
units angstrom
no_reorient  #important for SAPT in psi4, default
symmetry c1  #important for SAPT in psi4, default
}

set PROPERTIES_ORIGIN ["COM"]
properties('MP2/aug-cc-pvtz', properties = ['dipole'])
--------------------------------------------------------------------------

    Molecular point group: c1
  Charge       = 0
  Multiplicity = 1
  Basis Set: AUG-CC-PVTZ
    Blend: AUG-CC-PVTZ
  Basis Set: (AUG-CC-PVTZ AUX)
    Blend: AUG-CC-PVTZ-JKFIT

    Orbital Energies [Eh]
    ---------------------

    Doubly Occupied:

       1A    -15.544092     2A    -11.242551     3A     -1.166315
       4A     -0.892619     5A     -0.657325     6A     -0.602430
       7A     -0.553273     8A     -0.514660     9A     -0.393163

  @DF-RHF Final Energy:   -95.25400592979538

   => Energetics <=

    Nuclear Repulsion Energy =             41.8606512777074329
    One-Electron Energy =                -211.0964603190814159
    Two-Electron Energy =                  73.9818031115785999
    Total Energy =                        -95.2540059297953832
  Basis Set: (AUG-CC-PVTZ AUX)
    Blend: AUG-CC-PVTZ-RI
    Molecular point group: c1

    Geometry (in Angstrom), charge = 0, multiplicity = 1:

       Center              X                  Y                   Z               Mass
    ------------   -----------------  -----------------  -----------------  -----------------
         N            0.718600693300    -0.000516067243    -0.101600983568    14.003074004430
         H            1.114673693300     0.827854132757     0.382058016432     1.007825032230
         H            1.107045693300    -0.812942067243     0.372698016432     1.007825032230
         C           -0.739696306700    -0.000519067243     0.042230016432    12.000000000000
         H           -1.143561306700    -0.881480067243    -0.461818983568     1.007825032230
         H           -1.111648306700    -0.000560067243     1.077669016432     1.007825032230
         H           -1.143562306700     0.880478932757    -0.461751983568     1.007825032230

  Basis Set: AUG-CC-PVTZ
    Blend: AUG-CC-PVTZ
  Basis Set: (AUG-CC-PVTZ AUX)
    Blend: AUG-CC-PVTZ-JKFIT
	 Reference Energy          =     -95.2540059297953832 [Eh]
	 Singles Energy            =      -0.0000000000000000 [Eh]
	 Same-Spin Energy          =      -0.0955188048317994 [Eh]
	 Opposite-Spin Energy      =      -0.3522597308338856 [Eh]
	 Correlation Energy        =      -0.4477785356656850 [Eh]
	 Total Energy              =     -95.7017844654610741 [Eh]

	 ================> DF-SCS-MP2 Energies <==================
	-----------------------------------------------------------
	 SCS Same-Spin Scale       =       0.3333333333333333 [-]
	 SCS Opposite-Spin Scale   =       1.2000000000000000 [-]
	 SCS Same-Spin Energy      =      -0.0318396016105998 [Eh]
	 SCS Opposite-Spin Energy  =      -0.4227116770006628 [Eh]
	 SCS Correlation Energy    =      -0.4545512786112625 [Eh]
	 SCS Total Energy          =     -95.7085572084066456 [Eh]
	-----------------------------------------------------------

  Dipole Moment: [D]
     X:    -0.3237      Y:     0.0033      Z:     1.3471     Total:     1.3855

*** Psi4 exiting successfully. Buy a developer a beer!
