                               Psi4 1.3.2 release

  ==> Input File <==

--------------------------------------------------------------------------
#psi4
#
memory 32 gb

molecule  {
0 1
  N        0.7515910     0.0000020    -0.1260850
  H        1.0636420     0.6528046     0.2549373
  H        1.1399860    -0.8124580     0.3481170
  C       -0.7068950     0.0000000     0.0176830
  H       -1.1105870    -0.8810070    -0.4865140
  H       -1.0785270    -0.0000560     1.0532000
  H       -1.1106010     0.8810470    -0.4864360
units angstrom
no_reorient  #important for SAPT in psi4, default
symmetry c1  #important for SAPT in psi4, default
}

set PROPERTIES_ORIGIN ["COM"]
properties('MP2/aug-cc-pvtz', properties = ['dipole'])
--------------------------------------------------------------------------

    Molecular point group: c1
  Charge       = 0
  Multiplicity = 1
  Basis Set: AUG-CC-PVTZ
    Blend: AUG-CC-PVTZ
  Basis Set: (AUG-CC-PVTZ AUX)
    Blend: AUG-CC-PVTZ-JKFIT

    Orbital Energies [Eh]
    ---------------------

    Doubly Occupied:

       1A    -15.517074     2A    -11.242509     3A     -1.208086
       4A     -0.911329     5A     -0.694025     6A     -0.607286
       7A     -0.558081     8A     -0.524240     9A     -0.396964

  @DF-RHF Final Energy:   -95.21083960254046

   => Energetics <=

    Nuclear Repulsion Energy =             43.0150357792006801
    One-Electron Energy =                -213.1325612621435823
    Two-Electron Energy =                  74.9066858804024491
    Total Energy =                        -95.2108396025404602
  Basis Set: (AUG-CC-PVTZ AUX)
    Blend: AUG-CC-PVTZ-RI
    Molecular point group: c1

    Geometry (in Angstrom), charge = 0, multiplicity = 1:

       Center              X                  Y                   Z               Mass
    ------------   -----------------  -----------------  -----------------  -----------------
         N            0.721400468944     0.005184970807    -0.098228390903    14.003074004430
         H            1.033451468944     0.657987570807     0.282793909097     1.007825032230
         H            1.109795468944    -0.807275029193     0.375973609097     1.007825032230
         C           -0.737085531056     0.005182970807     0.045539609097    12.000000000000
         H           -1.140777531056    -0.875824029193    -0.458657390903     1.007825032230
         H           -1.108717531056     0.005126970807     1.081056609097     1.007825032230
         H           -1.140791531056     0.886229970807    -0.458579390903     1.007825032230

  Basis Set: AUG-CC-PVTZ
    Blend: AUG-CC-PVTZ
  Basis Set: (AUG-CC-PVTZ AUX)
    Blend: AUG-CC-PVTZ-JKFIT
	 Reference Energy          =     -95.2108396025404602 [Eh]
	 Singles Energy            =      -0.0000000000000000 [Eh]
	 Same-Spin Energy          =      -0.0947499761428640 [Eh]
	 Opposite-Spin Energy      =      -0.3495549878392815 [Eh]
	 Correlation Energy        =      -0.4443049639821455 [Eh]
	 Total Energy              =     -95.6551445665226083 [Eh]

	 ================> DF-SCS-MP2 Energies <==================
	-----------------------------------------------------------
	 SCS Same-Spin Scale       =       0.3333333333333333 [-]
	 SCS Opposite-Spin Scale   =       1.2000000000000000 [-]
	 SCS Same-Spin Energy      =      -0.0315833253809547 [Eh]
	 SCS Opposite-Spin Energy  =      -0.4194659854071378 [Eh]
	 SCS Correlation Energy    =      -0.4510493107880925 [Eh]
	 SCS Total Energy          =     -95.6618889133285535 [Eh]
	-----------------------------------------------------------

  Dipole Moment: [D]
     X:    -0.3387      Y:    -0.0580      Z:     1.3540     Total:     1.3970

*** Psi4 exiting successfully. Buy a developer a beer!
