                               Psi4 1.3.2 release

  ==> Input File <==

--------------------------------------------------------------------------
#psi4
#
memory 32 gb

molecule  {
0 1
  N        0.7515910     0.0000020    -0.1260850
  H        1.1724235     0.8019199     0.3382750
  H        1.1399860    -0.8124580     0.3481170
  C       -0.7068950     0.0000000     0.0176830
  H       -1.1105870    -0.8810070    -0.4865140
  H       -1.0785270    -0.0000560     1.0532000
  H       -1.1106010     0.8810470    -0.4864360
units angstrom
no_reorient  #important for SAPT in psi4, default
symmetry c1  #important for SAPT in psi4, default
}

set PROPERTIES_ORIGIN ["COM"]
properties('MP2/aug-cc-pvtz', properties = ['dipole'])
--------------------------------------------------------------------------

    Molecular point group: c1
  Charge       = 0
  Multiplicity = 1
  Basis Set: AUG-CC-PVTZ
    Blend: AUG-CC-PVTZ
  Basis Set: (AUG-CC-PVTZ AUX)
    Blend: AUG-CC-PVTZ-JKFIT

    Orbital Energies [Eh]
    ---------------------

    Doubly Occupied:

       1A    -15.541437     2A    -11.242881     3A     -1.167984
       4A     -0.894806     5A     -0.658151     6A     -0.603568
       7A     -0.555098     8A     -0.515529     9A     -0.392425

  @DF-RHF Final Energy:   -95.25490311936478

   => Energetics <=

    Nuclear Repulsion Energy =             41.9241843880696194
    One-Electron Energy =                -211.2144139255543394
    Two-Electron Energy =                  74.0353264181199364
    Total Energy =                        -95.2549031193647835
  Basis Set: (AUG-CC-PVTZ AUX)
    Blend: AUG-CC-PVTZ-RI
    Molecular point group: c1

    Geometry (in Angstrom), charge = 0, multiplicity = 1:

       Center              X                  Y                   Z               Mass
    ------------   -----------------  -----------------  -----------------  -----------------
         N            0.717868737247     0.000343750273    -0.100934056817    14.003074004430
         H            1.138701237247     0.802261650273     0.363425943183     1.007825032230
         H            1.106263737247    -0.812116249727     0.373267943183     1.007825032230
         C           -0.740617262753     0.000341750273     0.042833943183    12.000000000000
         H           -1.144309262753    -0.880665249727    -0.461363056817     1.007825032230
         H           -1.112249262753     0.000285750273     1.078350943183     1.007825032230
         H           -1.144323262753     0.881388750273    -0.461285056817     1.007825032230

  Basis Set: AUG-CC-PVTZ
    Blend: AUG-CC-PVTZ
  Basis Set: (AUG-CC-PVTZ AUX)
    Blend: AUG-CC-PVTZ-JKFIT
	 Reference Energy          =     -95.2549031193647835 [Eh]
	 Singles Energy            =      -0.0000000000000000 [Eh]
	 Same-Spin Energy          =      -0.0954372608829247 [Eh]
	 Opposite-Spin Energy      =      -0.3519086687069682 [Eh]
	 Correlation Energy        =      -0.4473459295898928 [Eh]
	 Total Energy              =     -95.7022490489546698 [Eh]

	 ================> DF-SCS-MP2 Energies <==================
	-----------------------------------------------------------
	 SCS Same-Spin Scale       =       0.3333333333333333 [-]
	 SCS Opposite-Spin Scale   =       1.2000000000000000 [-]
	 SCS Same-Spin Energy      =      -0.0318124202943082 [Eh]
	 SCS Opposite-Spin Energy  =      -0.4222904024483618 [Eh]
	 SCS Correlation Energy    =      -0.4541028227426700 [Eh]
	 SCS Total Energy          =     -95.7090059421074528 [Eh]
	-----------------------------------------------------------

  Dipole Moment: [D]
     X:    -0.3011      Y:     0.0016      Z:     1.3364     Total:     1.3699

*** Psi4 exiting successfully. Buy a developer a beer!
