                               Psi4 1.4a3.dev225

  ==> Input File <==

--------------------------------------------------------------------------
#psi4
#
memory 32 gb

molecule  {
0 1
  N        0.7515260     0.0000030    -0.1261400
  H        1.1208834     0.7724985     0.3248955
  H        1.1399710    -0.8124230     0.3481590
  C       -0.7067710     0.0000000     0.0176910
  H       -1.1106360    -0.8809610    -0.4863580
  H       -1.0787230    -0.0000410     1.0531300
  H       -1.1106370     0.8809980    -0.4862910
units angstrom
no_reorient  #important for SAPT in psi4, default
symmetry c1  #important for SAPT in psi4, default
}

set PROPERTIES_ORIGIN ["COM"]
properties('MP2/aug-cc-pvtz', properties = ['dipole'])
--------------------------------------------------------------------------

    Molecular point group: c1
  Charge       = 0
  Multiplicity = 1
  Basis Set: AUG-CC-PVTZ
    Blend: AUG-CC-PVTZ
  Basis Set: (AUG-CC-PVTZ AUX)
    Blend: AUG-CC-PVTZ-JKFIT

    Orbital Energies [Eh]
    ---------------------

    Doubly Occupied:

       1A    -15.535937     2A    -11.242377     3A     -1.176341
       4A     -0.897527     5A     -0.668216     6A     -0.604190
       7A     -0.554671     8A     -0.518373     9A     -0.394130

  @DF-RHF Final Energy:   -95.25429428368818

   => Energetics <=

    Nuclear Repulsion Energy =             42.1794703534715509
    One-Electron Energy =                -211.6840069876172379
    Two-Electron Energy =                  74.2502423504575120
    Total Energy =                        -95.2542942836881821
  Basis Set: (AUG-CC-PVTZ AUX)
    Blend: AUG-CC-PVTZ-RI
    Molecular point group: c1

    Geometry (in Angstrom), charge = 0, multiplicity = 1:

       Center              X                  Y                   Z               Mass
    ------------   -----------------  -----------------  -----------------  -----------------
         N            0.719468049710     0.001297976956    -0.100541819565    14.003074004430
         H            1.088825449710     0.773793476956     0.350493680435     1.007825032230
         H            1.107913049710    -0.811128023044     0.373757180435     1.007825032230
         C           -0.738828950290     0.001294976956     0.043289180435    12.000000000000
         H           -1.142693950290    -0.879666023044    -0.460759819565     1.007825032230
         H           -1.110780950290     0.001253976956     1.078728180435     1.007825032230
         H           -1.142694950290     0.882292976956    -0.460692819565     1.007825032230

  Basis Set: AUG-CC-PVTZ
    Blend: AUG-CC-PVTZ
  Basis Set: (AUG-CC-PVTZ AUX)
    Blend: AUG-CC-PVTZ-JKFIT
	 Reference Energy          =     -95.2542942836881821 [Eh]
	 Singles Energy            =      -0.0000000000000000 [Eh]
	 Same-Spin Energy          =      -0.0952484286218931 [Eh]
	 Opposite-Spin Energy      =      -0.3512127422031429 [Eh]
	 Correlation Energy        =      -0.4464611708250360 [Eh]
	 Total Energy              =     -95.7007554545132137 [Eh]

	 ================> DF-SCS-MP2 Energies <==================
	-----------------------------------------------------------
	 SCS Same-Spin Scale       =       0.3333333333333333 [-]
	 SCS Opposite-Spin Scale   =       1.2000000000000000 [-]
	 SCS Same-Spin Energy      =      -0.0317494762072977 [Eh]
	 SCS Opposite-Spin Energy  =      -0.4214552906437715 [Eh]
	 SCS Correlation Energy    =      -0.4532047668510691 [Eh]
	 SCS Total Energy          =     -95.7074990505392549 [Eh]
	-----------------------------------------------------------

  Dipole Moment: [D]
     X:    -0.3224      Y:    -0.0105      Z:     1.3506     Total:     1.3886

*** Psi4 exiting successfully. Buy a developer a beer!
