                               Psi4 1.3.2 release

  ==> Input File <==

--------------------------------------------------------------------------
#psi4
#
memory 32 gb

molecule  {
0 1
  N        0.7515910     0.0000020    -0.1260850
  H        1.2162820     0.9721234     0.4413147
  H        1.1399860    -0.8124580     0.3481170
  C       -0.7068950     0.0000000     0.0176830
  H       -1.1105870    -0.8810070    -0.4865140
  H       -1.0785270    -0.0000560     1.0532000
  H       -1.1106010     0.8810470    -0.4864360
units angstrom
no_reorient  #important for SAPT in psi4, default
symmetry c1  #important for SAPT in psi4, default
}

set PROPERTIES_ORIGIN ["COM"]
properties('MP2/aug-cc-pvtz', properties = ['dipole'])
--------------------------------------------------------------------------

    Molecular point group: c1
  Charge       = 0
  Multiplicity = 1
  Basis Set: AUG-CC-PVTZ
    Blend: AUG-CC-PVTZ
  Basis Set: (AUG-CC-PVTZ AUX)
    Blend: AUG-CC-PVTZ-JKFIT

    Orbital Energies [Eh]
    ---------------------

    Doubly Occupied:

       1A    -15.562725     2A    -11.243792     3A     -1.150630
       4A     -0.884498     5A     -0.637622     6A     -0.596516
       7A     -0.550904     8A     -0.501029     9A     -0.391436

  @DF-RHF Final Energy:   -95.22729359332746

   => Energetics <=

    Nuclear Repulsion Energy =             41.1830877269353763
    One-Electron Energy =                -209.7824594991251388
    Two-Electron Energy =                  73.3720781788622958
    Total Energy =                        -95.2272935933274596
  Basis Set: (AUG-CC-PVTZ AUX)
    Blend: AUG-CC-PVTZ-RI
    Molecular point group: c1

    Geometry (in Angstrom), charge = 0, multiplicity = 1:

       Center              X                  Y                   Z               Mass
    ------------   -----------------  -----------------  -----------------  -----------------
         N            0.716444814478    -0.005182125873    -0.104279373572    14.003074004430
         H            1.181135814478     0.966939274127     0.463120326428     1.007825032230
         H            1.104839814478    -0.817642125873     0.369922626428     1.007825032230
         C           -0.742041185522    -0.005184125873     0.039488626428    12.000000000000
         H           -1.145733185522    -0.886191125873    -0.464708373572     1.007825032230
         H           -1.113673185522    -0.005240125873     1.075005626428     1.007825032230
         H           -1.145747185522     0.875862874127    -0.464630373572     1.007825032230

  Basis Set: AUG-CC-PVTZ
    Blend: AUG-CC-PVTZ
  Basis Set: (AUG-CC-PVTZ AUX)
    Blend: AUG-CC-PVTZ-JKFIT
	 Reference Energy          =     -95.2272935933274596 [Eh]
	 Singles Energy            =      -0.0000000000000000 [Eh]
	 Same-Spin Energy          =      -0.0961286429568959 [Eh]
	 Opposite-Spin Energy      =      -0.3554814676859631 [Eh]
	 Correlation Energy        =      -0.4516101106428589 [Eh]
	 Total Energy              =     -95.6789037039703203 [Eh]

	 ================> DF-SCS-MP2 Energies <==================
	-----------------------------------------------------------
	 SCS Same-Spin Scale       =       0.3333333333333333 [-]
	 SCS Opposite-Spin Scale   =       1.2000000000000000 [-]
	 SCS Same-Spin Energy      =      -0.0320428809856319 [Eh]
	 SCS Opposite-Spin Energy  =      -0.4265777612231557 [Eh]
	 SCS Correlation Energy    =      -0.4586206422087876 [Eh]
	 SCS Total Energy          =     -95.6859142355362451 [Eh]
	-----------------------------------------------------------

  Dipole Moment: [D]
     X:    -0.3535      Y:     0.0108      Z:     1.3289     Total:     1.3751

*** Psi4 exiting successfully. Buy a developer a beer!
