                               Psi4 1.3.2 release

  ==> Input File <==

--------------------------------------------------------------------------
#psi4
#
memory 32 gb

molecule  {
0 1
  N        0.7515910     0.0000020    -0.1260850
  H        1.1399620     0.8124640     0.3481260
  H        1.1399860    -0.8124580     0.3481170
  C       -0.5078596     0.0000003    -0.0019366
  H       -1.1105870    -0.8810070    -0.4865140
  H       -1.0785270    -0.0000560     1.0532000
  H       -1.1106010     0.8810470    -0.4864360
units angstrom
no_reorient  #important for SAPT in psi4, default
symmetry c1  #important for SAPT in psi4, default
}

set PROPERTIES_ORIGIN ["COM"]
properties('MP2/aug-cc-pvtz', properties = ['dipole'])
--------------------------------------------------------------------------

    Molecular point group: c1
  Charge       = 0
  Multiplicity = 1
  Basis Set: AUG-CC-PVTZ
    Blend: AUG-CC-PVTZ
  Basis Set: (AUG-CC-PVTZ AUX)
    Blend: AUG-CC-PVTZ-JKFIT

    Orbital Energies [Eh]
    ---------------------

    Doubly Occupied:

       1A    -15.546434     2A    -11.255719     3A     -1.249844
       4A     -0.867555     5A     -0.693713     6A     -0.657197
       7A     -0.571949     8A     -0.463704     9A     -0.371473

  @DF-RHF Final Energy:   -95.20577506932534

   => Energetics <=

    Nuclear Repulsion Energy =             43.9966386214499892
    One-Electron Energy =                -215.0496528786383408
    Two-Electron Energy =                  75.8472391878630106
    Total Energy =                        -95.2057750693253411
  Basis Set: (AUG-CC-PVTZ AUX)
    Blend: AUG-CC-PVTZ-RI
    Molecular point group: c1

    Geometry (in Angstrom), charge = 0, multiplicity = 1:

       Center              X                  Y                   Z               Mass
    ------------   -----------------  -----------------  -----------------  -----------------
         N            0.641981417693     0.000001306496    -0.093669522677    14.003074004430
         H            1.030352417693     0.812463306496     0.380541477323     1.007825032230
         H            1.030376417693    -0.812458693504     0.380532477323     1.007825032230
         C           -0.617469182307    -0.000000393504     0.030478877323    12.000000000000
         H           -1.220196582307    -0.881007693504    -0.454098522677     1.007825032230
         H           -1.188136582307    -0.000056693504     1.085615477323     1.007825032230
         H           -1.220210582307     0.881046306496    -0.454020522677     1.007825032230

  Basis Set: AUG-CC-PVTZ
    Blend: AUG-CC-PVTZ
  Basis Set: (AUG-CC-PVTZ AUX)
    Blend: AUG-CC-PVTZ-JKFIT
	 Reference Energy          =     -95.2057750693253411 [Eh]
	 Singles Energy            =      -0.0000000000000000 [Eh]
	 Same-Spin Energy          =      -0.0972987716083074 [Eh]
	 Opposite-Spin Energy      =      -0.3531049698903819 [Eh]
	 Correlation Energy        =      -0.4504037414986893 [Eh]
	 Total Energy              =     -95.6561788108240307 [Eh]

	 ================> DF-SCS-MP2 Energies <==================
	-----------------------------------------------------------
	 SCS Same-Spin Scale       =       0.3333333333333333 [-]
	 SCS Opposite-Spin Scale   =       1.2000000000000000 [-]
	 SCS Same-Spin Energy      =      -0.0324329238694358 [Eh]
	 SCS Opposite-Spin Energy  =      -0.4237259638684583 [Eh]
	 SCS Correlation Energy    =      -0.4561588877378941 [Eh]
	 SCS Total Energy          =     -95.6619339570632405 [Eh]
	-----------------------------------------------------------

  Dipole Moment: [D]
     X:     0.3818      Y:     0.0000      Z:     1.2084     Total:     1.2673

*** Psi4 exiting successfully. Buy a developer a beer!
