                               Psi4 1.3.2 release

  ==> Input File <==

--------------------------------------------------------------------------
#psi4
#
memory 32 gb

molecule  {
0 1
  N        0.7515910     0.0000020    -0.1260850
  H        1.1576918     0.7905774     0.3697731
  H        1.1399860    -0.8124580     0.3481170
  C       -0.7068950     0.0000000     0.0176830
  H       -1.1105870    -0.8810070    -0.4865140
  H       -1.0785270    -0.0000560     1.0532000
  H       -1.1106010     0.8810470    -0.4864360
units angstrom
no_reorient  #important for SAPT in psi4, default
symmetry c1  #important for SAPT in psi4, default
}

set PROPERTIES_ORIGIN ["COM"]
properties('MP2/aug-cc-pvtz', properties = ['dipole'])
--------------------------------------------------------------------------

    Molecular point group: c1
  Charge       = 0
  Multiplicity = 1
  Basis Set: AUG-CC-PVTZ
    Blend: AUG-CC-PVTZ
  Basis Set: (AUG-CC-PVTZ AUX)
    Blend: AUG-CC-PVTZ-JKFIT

    Orbital Energies [Eh]
    ---------------------

    Doubly Occupied:

       1A    -15.542006     2A    -11.242857     3A     -1.169198
       4A     -0.894915     5A     -0.657099     6A     -0.604535
       7A     -0.554481     8A     -0.514898     9A     -0.394444

  @DF-RHF Final Energy:   -95.25480289132162

   => Energetics <=

    Nuclear Repulsion Energy =             41.9389312005351300
    One-Electron Energy =                -211.2386005286961961
    Two-Electron Energy =                  74.0448664368394418
    Total Energy =                        -95.2548028913216172
  Basis Set: (AUG-CC-PVTZ AUX)
    Blend: AUG-CC-PVTZ-RI
    Molecular point group: c1

    Geometry (in Angstrom), charge = 0, multiplicity = 1:

       Center              X                  Y                   Z               Mass
    ------------   -----------------  -----------------  -----------------  -----------------
         N            0.718347020887     0.000711999164    -0.101956683258    14.003074004430
         H            1.124447820887     0.791287399164     0.393901416742     1.007825032230
         H            1.106742020887    -0.811748000836     0.372245316742     1.007825032230
         C           -0.740138979113     0.000709999164     0.041811316742    12.000000000000
         H           -1.143830979113    -0.880297000836    -0.462385683258     1.007825032230
         H           -1.111770979113     0.000653999164     1.077328316742     1.007825032230
         H           -1.143844979113     0.881756999164    -0.462307683258     1.007825032230

  Basis Set: AUG-CC-PVTZ
    Blend: AUG-CC-PVTZ
  Basis Set: (AUG-CC-PVTZ AUX)
    Blend: AUG-CC-PVTZ-JKFIT
	 Reference Energy          =     -95.2548028913216172 [Eh]
	 Singles Energy            =      -0.0000000000000000 [Eh]
	 Same-Spin Energy          =      -0.0954488316992317 [Eh]
	 Opposite-Spin Energy      =      -0.3519714129167023 [Eh]
	 Correlation Energy        =      -0.4474202446159340 [Eh]
	 Total Energy              =     -95.7022231359375581 [Eh]

	 ================> DF-SCS-MP2 Energies <==================
	-----------------------------------------------------------
	 SCS Same-Spin Scale       =       0.3333333333333333 [-]
	 SCS Opposite-Spin Scale   =       1.2000000000000000 [-]
	 SCS Same-Spin Energy      =      -0.0318162772330772 [Eh]
	 SCS Opposite-Spin Energy  =      -0.4223656955000427 [Eh]
	 SCS Correlation Energy    =      -0.4541819727331199 [Eh]
	 SCS Total Energy          =     -95.7089848640547416 [Eh]
	-----------------------------------------------------------

  Dipole Moment: [D]
     X:    -0.3226      Y:    -0.0220      Z:     1.3693     Total:     1.4069

*** Psi4 exiting successfully. Buy a developer a beer!
