                               Psi4 1.3.2 release

  ==> Input File <==

--------------------------------------------------------------------------
#psi4
#
memory 32 gb

molecule  {
0 1
  N        0.7515910     0.0000020    -0.1260850
  H        1.1562544     0.8073149     0.3432720
  H        1.1399860    -0.8124580     0.3481170
  C       -0.7068950     0.0000000     0.0176830
  H       -1.1105870    -0.8810070    -0.4865140
  H       -1.0785270    -0.0000560     1.0532000
  H       -1.1106010     0.8810470    -0.4864360
units angstrom
no_reorient  #important for SAPT in psi4, default
symmetry c1  #important for SAPT in psi4, default
}

set PROPERTIES_ORIGIN ["COM"]
properties('MP2/aug-cc-pvtz', properties = ['dipole'])
--------------------------------------------------------------------------

    Molecular point group: c1
  Charge       = 0
  Multiplicity = 1
  Basis Set: AUG-CC-PVTZ
    Blend: AUG-CC-PVTZ
  Basis Set: (AUG-CC-PVTZ AUX)
    Blend: AUG-CC-PVTZ-JKFIT

    Orbital Energies [Eh]
    ---------------------

    Doubly Occupied:

       1A    -15.541620     2A    -11.242687     3A     -1.168416
       4A     -0.894356     5A     -0.659222     6A     -0.603236
       7A     -0.554361     8A     -0.515698     9A     -0.392920

  @DF-RHF Final Energy:   -95.25495583932518

   => Energetics <=

    Nuclear Repulsion Energy =             41.9348805619865175
    One-Electron Energy =                -211.2346373937477608
    Two-Electron Energy =                  74.0448009924360662
    Total Energy =                        -95.2549558393251772
  Basis Set: (AUG-CC-PVTZ AUX)
    Blend: AUG-CC-PVTZ-RI
    Molecular point group: c1

    Geometry (in Angstrom), charge = 0, multiplicity = 1:

       Center              X                  Y                   Z               Mass
    ------------   -----------------  -----------------  -----------------  -----------------
         N            0.718393687932     0.000168594639    -0.101096290867    14.003074004430
         H            1.123057087932     0.807481494639     0.368260709133     1.007825032230
         H            1.106788687932    -0.812291405361     0.373105709133     1.007825032230
         C           -0.740092312068     0.000166594639     0.042671709133    12.000000000000
         H           -1.143784312068    -0.880840405361    -0.461525290867     1.007825032230
         H           -1.111724312068     0.000110594639     1.078188709133     1.007825032230
         H           -1.143798312068     0.881213594639    -0.461447290867     1.007825032230

  Basis Set: AUG-CC-PVTZ
    Blend: AUG-CC-PVTZ
  Basis Set: (AUG-CC-PVTZ AUX)
    Blend: AUG-CC-PVTZ-JKFIT
	 Reference Energy          =     -95.2549558393251772 [Eh]
	 Singles Energy            =      -0.0000000000000000 [Eh]
	 Same-Spin Energy          =      -0.0954373356990479 [Eh]
	 Opposite-Spin Energy      =      -0.3519254207234340 [Eh]
	 Correlation Energy        =      -0.4473627564224819 [Eh]
	 Total Energy              =     -95.7023185957476556 [Eh]

	 ================> DF-SCS-MP2 Energies <==================
	-----------------------------------------------------------
	 SCS Same-Spin Scale       =       0.3333333333333333 [-]
	 SCS Opposite-Spin Scale   =       1.2000000000000000 [-]
	 SCS Same-Spin Energy      =      -0.0318124452330160 [Eh]
	 SCS Opposite-Spin Energy  =      -0.4223105048681208 [Eh]
	 SCS Correlation Energy    =      -0.4541229501011367 [Eh]
	 SCS Total Energy          =     -95.7090787894263144 [Eh]
	-----------------------------------------------------------

  Dipole Moment: [D]
     X:    -0.3121      Y:     0.0009      Z:     1.3424     Total:     1.3782

*** Psi4 exiting successfully. Buy a developer a beer!
