                               Psi4 1.4a3.dev225

  ==> Input File <==

--------------------------------------------------------------------------
#psi4
#
memory 32 gb

molecule  {
0 1
  N        0.7515260     0.0000030    -0.1261400
  H        1.1323330     0.7964448     0.3388770
  H        1.1399710    -0.8124230     0.3481590
  C       -0.7067710     0.0000000     0.0176910
  H       -1.1106360    -0.8809610    -0.4863580
  H       -1.0787230    -0.0000410     1.0531300
  H       -1.1106370     0.8809980    -0.4862910
units angstrom
no_reorient  #important for SAPT in psi4, default
symmetry c1  #important for SAPT in psi4, default
}

set PROPERTIES_ORIGIN ["COM"]
properties('MP2/aug-cc-pvtz', properties = ['dipole'])
--------------------------------------------------------------------------

    Molecular point group: c1
  Charge       = 0
  Multiplicity = 1
  Basis Set: AUG-CC-PVTZ
    Blend: AUG-CC-PVTZ
  Basis Set: (AUG-CC-PVTZ AUX)
    Blend: AUG-CC-PVTZ-JKFIT

    Orbital Energies [Eh]
    ---------------------

    Doubly Occupied:

       1A    -15.539495     2A    -11.242433     3A     -1.171718
       4A     -0.895298     5A     -0.663390     6A     -0.603468
       7A     -0.554048     8A     -0.516877     9A     -0.393689

  @DF-RHF Final Energy:   -95.25523462182724

   => Energetics <=

    Nuclear Repulsion Energy =             42.0381873327625541
    One-Electron Energy =                -211.4260122536333881
    Two-Electron Energy =                  74.1325902990435850
    Total Energy =                        -95.2552346218272419
  Basis Set: (AUG-CC-PVTZ AUX)
    Blend: AUG-CC-PVTZ-RI
    Molecular point group: c1

    Geometry (in Angstrom), charge = 0, multiplicity = 1:

       Center              X                  Y                   Z               Mass
    ------------   -----------------  -----------------  -----------------  -----------------
         N            0.719096323679     0.000520529442    -0.100995746995    14.003074004430
         H            1.099903323679     0.796962329442     0.364021253005     1.007825032230
         H            1.107541323679    -0.811905470558     0.373303253005     1.007825032230
         C           -0.739200676321     0.000517529442     0.042835253005    12.000000000000
         H           -1.143065676321    -0.880443470558    -0.461213746995     1.007825032230
         H           -1.111152676321     0.000476529442     1.078274253005     1.007825032230
         H           -1.143066676321     0.881515529442    -0.461146746995     1.007825032230

  Basis Set: AUG-CC-PVTZ
    Blend: AUG-CC-PVTZ
  Basis Set: (AUG-CC-PVTZ AUX)
    Blend: AUG-CC-PVTZ-JKFIT
	 Reference Energy          =     -95.2552346218272419 [Eh]
	 Singles Energy            =      -0.0000000000000000 [Eh]
	 Same-Spin Energy          =      -0.0953640607249693 [Eh]
	 Opposite-Spin Energy      =      -0.3516444549684531 [Eh]
	 Correlation Energy        =      -0.4470085156934225 [Eh]
	 Total Energy              =     -95.7022431375206679 [Eh]

	 ================> DF-SCS-MP2 Energies <==================
	-----------------------------------------------------------
	 SCS Same-Spin Scale       =       0.3333333333333333 [-]
	 SCS Opposite-Spin Scale   =       1.2000000000000000 [-]
	 SCS Same-Spin Energy      =      -0.0317880202416564 [Eh]
	 SCS Opposite-Spin Energy  =      -0.4219733459621438 [Eh]
	 SCS Correlation Energy    =      -0.4537613662038002 [Eh]
	 SCS Total Energy          =     -95.7089959880310488 [Eh]
	-----------------------------------------------------------

  Dipole Moment: [D]
     X:    -0.3223      Y:    -0.0039      Z:     1.3493     Total:     1.3873

*** Psi4 exiting successfully. Buy a developer a beer!
