                               Psi4 1.4a3.dev225

  ==> Input File <==

--------------------------------------------------------------------------
#psi4
#
memory 32 gb

molecule  {
0 1
  N        0.7515260     0.0000030    -0.1261400
  H        1.1399660     0.8124090     0.3481980
  H        1.1399710    -0.8124230     0.3481590
  C       -0.7266744    -0.0000000     0.0196541
  H       -1.1106360    -0.8809610    -0.4863580
  H       -1.0787230    -0.0000410     1.0531300
  H       -1.1106370     0.8809980    -0.4862910
units angstrom
no_reorient  #important for SAPT in psi4, default
symmetry c1  #important for SAPT in psi4, default
}

set PROPERTIES_ORIGIN ["COM"]
properties('MP2/aug-cc-pvtz', properties = ['dipole'])
--------------------------------------------------------------------------

    Molecular point group: c1
  Charge       = 0
  Multiplicity = 1
  Basis Set: AUG-CC-PVTZ
    Blend: AUG-CC-PVTZ
  Basis Set: (AUG-CC-PVTZ AUX)
    Blend: AUG-CC-PVTZ-JKFIT

    Orbital Energies [Eh]
    ---------------------

    Doubly Occupied:

       1A    -15.541481     2A    -11.241914     3A     -1.163007
       4A     -0.896498     5A     -0.658150     6A     -0.601374
       7A     -0.549872     8A     -0.520293     9A     -0.394094

  @DF-RHF Final Energy:   -95.25463087991785

   => Energetics <=

    Nuclear Repulsion Energy =             41.7730179882330006
    One-Electron Energy =                -210.9219335014213925
    Two-Electron Energy =                  73.8942846332705443
    Total Energy =                        -95.2546308799178547
  Basis Set: (AUG-CC-PVTZ AUX)
    Blend: AUG-CC-PVTZ-RI
    Molecular point group: c1

    Geometry (in Angstrom), charge = 0, multiplicity = 1:

       Center              X                  Y                   Z               Mass
    ------------   -----------------  -----------------  -----------------  -----------------
         N            0.726542576771     0.000002231099    -0.102057241928    14.003074004430
         H            1.114982576771     0.812408231099     0.372280758072     1.007825032230
         H            1.114987576771    -0.812423768901     0.372241758072     1.007825032230
         C           -0.751657823229    -0.000000768901     0.043736858072    12.000000000000
         H           -1.135619423229    -0.880961768901    -0.462275241928     1.007825032230
         H           -1.103706423229    -0.000041768901     1.077212758072     1.007825032230
         H           -1.135620423229     0.880997231099    -0.462208241928     1.007825032230

  Basis Set: AUG-CC-PVTZ
    Blend: AUG-CC-PVTZ
  Basis Set: (AUG-CC-PVTZ AUX)
    Blend: AUG-CC-PVTZ-JKFIT
	 Reference Energy          =     -95.2546308799178547 [Eh]
	 Singles Energy            =      -0.0000000000000000 [Eh]
	 Same-Spin Energy          =      -0.0953839029645082 [Eh]
	 Opposite-Spin Energy      =      -0.3520551695678670 [Eh]
	 Correlation Energy        =      -0.4474390725323751 [Eh]
	 Total Energy              =     -95.7020699524502305 [Eh]

	 ================> DF-SCS-MP2 Energies <==================
	-----------------------------------------------------------
	 SCS Same-Spin Scale       =       0.3333333333333333 [-]
	 SCS Opposite-Spin Scale   =       1.2000000000000000 [-]
	 SCS Same-Spin Energy      =      -0.0317946343215027 [Eh]
	 SCS Opposite-Spin Energy  =      -0.4224662034814404 [Eh]
	 SCS Correlation Energy    =      -0.4542608378029431 [Eh]
	 SCS Total Energy          =     -95.7088917177208032 [Eh]
	-----------------------------------------------------------

  Dipole Moment: [D]
     X:    -0.3726      Y:    -0.0000      Z:     1.3559     Total:     1.4062

*** Psi4 exiting successfully. Buy a developer a beer!
