                               Psi4 1.3.2 release

  ==> Input File <==

--------------------------------------------------------------------------
#psi4
#
memory 32 gb

molecule  {
0 1
  N        0.7515910     0.0000020    -0.1260850
  H        1.1916460     0.7439425     0.4112294
  H        1.1399860    -0.8124580     0.3481170
  C       -0.7068950     0.0000000     0.0176830
  H       -1.1105870    -0.8810070    -0.4865140
  H       -1.0785270    -0.0000560     1.0532000
  H       -1.1106010     0.8810470    -0.4864360
units angstrom
no_reorient  #important for SAPT in psi4, default
symmetry c1  #important for SAPT in psi4, default
}

set PROPERTIES_ORIGIN ["COM"]
properties('MP2/aug-cc-pvtz', properties = ['dipole'])
--------------------------------------------------------------------------

    Molecular point group: c1
  Charge       = 0
  Multiplicity = 1
  Basis Set: AUG-CC-PVTZ
    Blend: AUG-CC-PVTZ
  Basis Set: (AUG-CC-PVTZ AUX)
    Blend: AUG-CC-PVTZ-JKFIT

    Orbital Energies [Eh]
    ---------------------

    Doubly Occupied:

       1A    -15.542394     2A    -11.243574     3A     -1.170025
       4A     -0.896982     5A     -0.650726     6A     -0.607897
       7A     -0.556113     8A     -0.512671     9A     -0.396494

  @DF-RHF Final Energy:   -95.25373697742043

   => Energetics <=

    Nuclear Repulsion Energy =             41.9272091081588130
    One-Electron Energy =                -211.2081433156839410
    Two-Electron Energy =                  74.0271972301046901
    Total Energy =                        -95.2537369774204308
  Basis Set: (AUG-CC-PVTZ AUX)
    Blend: AUG-CC-PVTZ-RI
    Molecular point group: c1

    Geometry (in Angstrom), charge = 0, multiplicity = 1:

       Center              X                  Y                   Z               Mass
    ------------   -----------------  -----------------  -----------------  -----------------
         N            0.717244653992     0.002226061339    -0.103302615505    14.003074004430
         H            1.157299653992     0.746166561339     0.434011784495     1.007825032230
         H            1.105639653992    -0.810233938661     0.370899384495     1.007825032230
         C           -0.741241346008     0.002224061339     0.040465384495    12.000000000000
         H           -1.144933346008    -0.878782938661    -0.463731615505     1.007825032230
         H           -1.112873346008     0.002168061339     1.075982384495     1.007825032230
         H           -1.144947346008     0.883271061339    -0.463653615505     1.007825032230

  Basis Set: AUG-CC-PVTZ
    Blend: AUG-CC-PVTZ
  Basis Set: (AUG-CC-PVTZ AUX)
    Blend: AUG-CC-PVTZ-JKFIT
	 Reference Energy          =     -95.2537369774204308 [Eh]
	 Singles Energy            =      -0.0000000000000000 [Eh]
	 Same-Spin Energy          =      -0.0955012987212178 [Eh]
	 Opposite-Spin Energy      =      -0.3520782617814854 [Eh]
	 Correlation Energy        =      -0.4475795605027032 [Eh]
	 Total Energy              =     -95.7013165379231339 [Eh]

	 ================> DF-SCS-MP2 Energies <==================
	-----------------------------------------------------------
	 SCS Same-Spin Scale       =       0.3333333333333333 [-]
	 SCS Opposite-Spin Scale   =       1.2000000000000000 [-]
	 SCS Same-Spin Energy      =      -0.0318337662404059 [Eh]
	 SCS Opposite-Spin Energy  =      -0.4224939141377824 [Eh]
	 SCS Correlation Energy    =      -0.4543276803781884 [Eh]
	 SCS Total Energy          =     -95.7080646577986158 [Eh]
	-----------------------------------------------------------

  Dipole Moment: [D]
     X:    -0.3224      Y:    -0.0688      Z:     1.4099     Total:     1.4479

*** Psi4 exiting successfully. Buy a developer a beer!
