                               Psi4 1.4a3.dev225

  ==> Input File <==

--------------------------------------------------------------------------
#psi4
#
memory 32 gb

molecule  {
0 1
  N        0.7515260     0.0000030    -0.1261400
  H        1.1399660     0.8124090     0.3481980
  H        1.1399710    -0.8124230     0.3481590
  C       -0.7565296    -0.0000001     0.0225987
  H       -1.1106360    -0.8809610    -0.4863580
  H       -1.0787230    -0.0000410     1.0531300
  H       -1.1106370     0.8809980    -0.4862910
units angstrom
no_reorient  #important for SAPT in psi4, default
symmetry c1  #important for SAPT in psi4, default
}

set PROPERTIES_ORIGIN ["COM"]
properties('MP2/aug-cc-pvtz', properties = ['dipole'])
--------------------------------------------------------------------------

    Molecular point group: c1
  Charge       = 0
  Multiplicity = 1
  Basis Set: AUG-CC-PVTZ
    Blend: AUG-CC-PVTZ
  Basis Set: (AUG-CC-PVTZ AUX)
    Blend: AUG-CC-PVTZ-JKFIT

    Orbital Energies [Eh]
    ---------------------

    Doubly Occupied:

       1A    -15.540967     2A    -11.241341     3A     -1.154759
       4A     -0.900290     5A     -0.655245     6A     -0.600878
       7A     -0.542884     8A     -0.526718     9A     -0.394662

  @DF-RHF Final Energy:   -95.25288278075098

   => Energetics <=

    Nuclear Repulsion Energy =             41.5178651809473322
    One-Electron Energy =                -210.4260069227851488
    Two-Electron Energy =                  73.6552589610868438
    Total Energy =                        -95.2528827807509799
  Basis Set: (AUG-CC-PVTZ AUX)
    Blend: AUG-CC-PVTZ-RI
    Molecular point group: c1

    Geometry (in Angstrom), charge = 0, multiplicity = 1:

       Center              X                  Y                   Z               Mass
    ------------   -----------------  -----------------  -----------------  -----------------
         N            0.738083717851     0.000002269756    -0.103195537569    14.003074004430
         H            1.126523717851     0.812408269756     0.371142462431     1.007825032230
         H            1.126528717851    -0.812423730244     0.371103462431     1.007825032230
         C           -0.769971882149    -0.000000830244     0.045543162431    12.000000000000
         H           -1.124078282149    -0.880961730244    -0.463413537569     1.007825032230
         H           -1.092165282149    -0.000041730244     1.076074462431     1.007825032230
         H           -1.124079282149     0.880997269756    -0.463346537569     1.007825032230

  Basis Set: AUG-CC-PVTZ
    Blend: AUG-CC-PVTZ
  Basis Set: (AUG-CC-PVTZ AUX)
    Blend: AUG-CC-PVTZ-JKFIT
	 Reference Energy          =     -95.2528827807509799 [Eh]
	 Singles Energy            =      -0.0000000000000000 [Eh]
	 Same-Spin Energy          =      -0.0953371015757189 [Eh]
	 Opposite-Spin Energy      =      -0.3522921937093227 [Eh]
	 Correlation Energy        =      -0.4476292952850416 [Eh]
	 Total Energy              =     -95.7005120760360199 [Eh]

	 ================> DF-SCS-MP2 Energies <==================
	-----------------------------------------------------------
	 SCS Same-Spin Scale       =       0.3333333333333333 [-]
	 SCS Opposite-Spin Scale   =       1.2000000000000000 [-]
	 SCS Same-Spin Energy      =      -0.0317790338585730 [Eh]
	 SCS Opposite-Spin Energy  =      -0.4227506324511873 [Eh]
	 SCS Correlation Energy    =      -0.4545296663097602 [Eh]
	 SCS Total Energy          =     -95.7074124470607330 [Eh]
	-----------------------------------------------------------

  Dipole Moment: [D]
     X:    -0.4423      Y:    -0.0000      Z:     1.3658     Total:     1.4356

*** Psi4 exiting successfully. Buy a developer a beer!
