                               Psi4 1.3.2 release

  ==> Input File <==

--------------------------------------------------------------------------
#psi4
#
memory 32 gb

molecule  {
0 1
  N        0.7515910     0.0000020    -0.1260850
  H        1.1399620     0.8124640     0.3481260
  H        1.1399860    -0.8124580     0.3481170
  C       -0.8064127    -0.0000001     0.0274928
  H       -1.1105870    -0.8810070    -0.4865140
  H       -1.0785270    -0.0000560     1.0532000
  H       -1.1106010     0.8810470    -0.4864360
units angstrom
no_reorient  #important for SAPT in psi4, default
symmetry c1  #important for SAPT in psi4, default
}

set PROPERTIES_ORIGIN ["COM"]
properties('MP2/aug-cc-pvtz', properties = ['dipole'])
--------------------------------------------------------------------------

    Molecular point group: c1
  Charge       = 0
  Multiplicity = 1
  Basis Set: AUG-CC-PVTZ
    Blend: AUG-CC-PVTZ
  Basis Set: (AUG-CC-PVTZ AUX)
    Blend: AUG-CC-PVTZ-JKFIT

    Orbital Energies [Eh]
    ---------------------

    Doubly Occupied:

       1A    -15.540031     2A    -11.241193     3A     -1.142451
       4A     -0.906357     5A     -0.651180     6A     -0.603717
       7A     -0.536542     8A     -0.528921     9A     -0.394501

  @DF-RHF Final Energy:   -95.24696466008407

   => Energetics <=

    Nuclear Repulsion Energy =             41.1070172451637035
    One-Electron Energy =                -209.6181771680548707
    Two-Electron Energy =                  73.2641952628071067
    Total Energy =                        -95.2469646600840747
  Basis Set: (AUG-CC-PVTZ AUX)
    Blend: AUG-CC-PVTZ-RI
    Molecular point group: c1

    Geometry (in Angstrom), charge = 0, multiplicity = 1:

       Center              X                  Y                   Z               Mass
    ------------   -----------------  -----------------  -----------------  -----------------
         N            0.757393253720     0.000001461124    -0.105046062017    14.003074004430
         H            1.145764253720     0.812463461124     0.369164937983     1.007825032230
         H            1.145788253720    -0.812458538876     0.369155937983     1.007825032230
         C           -0.800610446280    -0.000000638876     0.048531737983    12.000000000000
         H           -1.104784746280    -0.881007538876    -0.465475062017     1.007825032230
         H           -1.072724746280    -0.000056538876     1.074238937983     1.007825032230
         H           -1.104798746280     0.881046461124    -0.465397062017     1.007825032230

  Basis Set: AUG-CC-PVTZ
    Blend: AUG-CC-PVTZ
  Basis Set: (AUG-CC-PVTZ AUX)
    Blend: AUG-CC-PVTZ-JKFIT
	 Reference Energy          =     -95.2469646600840747 [Eh]
	 Singles Energy            =      -0.0000000000000000 [Eh]
	 Same-Spin Energy          =      -0.0953589884597143 [Eh]
	 Opposite-Spin Energy      =      -0.3528816740668601 [Eh]
	 Correlation Energy        =      -0.4482406625265744 [Eh]
	 Total Energy              =     -95.6952053226106472 [Eh]

	 ================> DF-SCS-MP2 Energies <==================
	-----------------------------------------------------------
	 SCS Same-Spin Scale       =       0.3333333333333333 [-]
	 SCS Opposite-Spin Scale   =       1.2000000000000000 [-]
	 SCS Same-Spin Energy      =      -0.0317863294865714 [Eh]
	 SCS Opposite-Spin Energy  =      -0.4234580088802321 [Eh]
	 SCS Correlation Energy    =      -0.4552443383668035 [Eh]
	 SCS Total Energy          =     -95.7022089984508852 [Eh]
	-----------------------------------------------------------

  Dipole Moment: [D]
     X:    -0.5460      Y:    -0.0000      Z:     1.3780     Total:     1.4822

*** Psi4 exiting successfully. Buy a developer a beer!
