                               Psi4 1.3.2 release

  ==> Input File <==

--------------------------------------------------------------------------
#psi4
#
memory 32 gb

molecule  {
0 1
  N        0.7515910     0.0000020    -0.1260850
  H        1.1070274     0.8220182     0.3573992
  H        1.1399860    -0.8124580     0.3481170
  C       -0.7068950     0.0000000     0.0176830
  H       -1.1105870    -0.8810070    -0.4865140
  H       -1.0785270    -0.0000560     1.0532000
  H       -1.1106010     0.8810470    -0.4864360
units angstrom
no_reorient  #important for SAPT in psi4, default
symmetry c1  #important for SAPT in psi4, default
}

set PROPERTIES_ORIGIN ["COM"]
properties('MP2/aug-cc-pvtz', properties = ['dipole'])
--------------------------------------------------------------------------

    Molecular point group: c1
  Charge       = 0
  Multiplicity = 1
  Basis Set: AUG-CC-PVTZ
    Blend: AUG-CC-PVTZ
  Basis Set: (AUG-CC-PVTZ AUX)
    Blend: AUG-CC-PVTZ-JKFIT

    Orbital Energies [Eh]
    ---------------------

    Doubly Occupied:

       1A    -15.542130     2A    -11.242200     3A     -1.169788
       4A     -0.893033     5A     -0.662471     6A     -0.602356
       7A     -0.552210     8A     -0.515931     9A     -0.394366

  @DF-RHF Final Energy:   -95.25469625520260

   => Energetics <=

    Nuclear Repulsion Energy =             41.9687528871704600
    One-Electron Energy =                -211.2979289291880036
    Two-Electron Energy =                  74.0744797868149334
    Total Energy =                        -95.2546962552026031
  Basis Set: (AUG-CC-PVTZ AUX)
    Blend: AUG-CC-PVTZ-RI
    Molecular point group: c1

    Geometry (in Angstrom), charge = 0, multiplicity = 1:

       Center              X                  Y                   Z               Mass
    ------------   -----------------  -----------------  -----------------  -----------------
         N            0.719991905977    -0.000308766959    -0.101554948635    14.003074004430
         H            1.075428305977     0.821707433041     0.381929251365     1.007825032230
         H            1.108386905977    -0.812768766959     0.372647051365     1.007825032230
         C           -0.738494094023    -0.000310766959     0.042213051365    12.000000000000
         H           -1.142186094023    -0.881317766959    -0.461983948635     1.007825032230
         H           -1.110126094023    -0.000366766959     1.077730051365     1.007825032230
         H           -1.142200094023     0.880736233041    -0.461905948635     1.007825032230

  Basis Set: AUG-CC-PVTZ
    Blend: AUG-CC-PVTZ
  Basis Set: (AUG-CC-PVTZ AUX)
    Blend: AUG-CC-PVTZ-JKFIT
	 Reference Energy          =     -95.2546962552026031 [Eh]
	 Singles Energy            =      -0.0000000000000000 [Eh]
	 Same-Spin Energy          =      -0.0954550370631875 [Eh]
	 Opposite-Spin Energy      =      -0.3520058752787585 [Eh]
	 Correlation Energy        =      -0.4474609123419461 [Eh]
	 Total Energy              =     -95.7021571675445557 [Eh]

	 ================> DF-SCS-MP2 Energies <==================
	-----------------------------------------------------------
	 SCS Same-Spin Scale       =       0.3333333333333333 [-]
	 SCS Opposite-Spin Scale   =       1.2000000000000000 [-]
	 SCS Same-Spin Energy      =      -0.0318183456877292 [Eh]
	 SCS Opposite-Spin Energy  =      -0.4224070503345103 [Eh]
	 SCS Correlation Energy    =      -0.4542253960222394 [Eh]
	 SCS Total Energy          =     -95.7089216512248413 [Eh]
	-----------------------------------------------------------

  Dipole Moment: [D]
     X:    -0.3458      Y:    -0.0026      Z:     1.3590     Total:     1.4023

*** Psi4 exiting successfully. Buy a developer a beer!
