                               Psi4 1.3.2 release

  ==> Input File <==

--------------------------------------------------------------------------
#psi4
#
memory 32 gb

molecule  {
0 1
  N        0.7515910     0.0000020    -0.1260850
  H        1.2043722     0.7903989     0.3278583
  H        1.1399860    -0.8124580     0.3481170
  C       -0.7068950     0.0000000     0.0176830
  H       -1.1105870    -0.8810070    -0.4865140
  H       -1.0785270    -0.0000560     1.0532000
  H       -1.1106010     0.8810470    -0.4864360
units angstrom
no_reorient  #important for SAPT in psi4, default
symmetry c1  #important for SAPT in psi4, default
}

set PROPERTIES_ORIGIN ["COM"]
properties('MP2/aug-cc-pvtz', properties = ['dipole'])
--------------------------------------------------------------------------

    Molecular point group: c1
  Charge       = 0
  Multiplicity = 1
  Basis Set: AUG-CC-PVTZ
    Blend: AUG-CC-PVTZ
  Basis Set: (AUG-CC-PVTZ AUX)
    Blend: AUG-CC-PVTZ-JKFIT

    Orbital Energies [Eh]
    ---------------------

    Doubly Occupied:

       1A    -15.541051     2A    -11.243312     3A     -1.167156
       4A     -0.895719     5A     -0.656028     6A     -0.604285
       7A     -0.556581     8A     -0.515077     9A     -0.391416

  @DF-RHF Final Energy:   -95.25459356918307

   => Energetics <=

    Nuclear Repulsion Energy =             41.9036509927566527
    One-Electron Energy =                -211.1752358758379842
    Two-Electron Energy =                  74.0169913138982736
    Total Energy =                        -95.2545935691830721
  Basis Set: (AUG-CC-PVTZ AUX)
    Blend: AUG-CC-PVTZ-RI
    Molecular point group: c1

    Geometry (in Angstrom), charge = 0, multiplicity = 1:

       Center              X                  Y                   Z               Mass
    ------------   -----------------  -----------------  -----------------  -----------------
         N            0.716831481496     0.000717794397    -0.100595865217    14.003074004430
         H            1.169612681496     0.791114694397     0.353347434783     1.007825032230
         H            1.105226481496    -0.811742205603     0.373606134783     1.007825032230
         C           -0.741654518504     0.000715794397     0.043172134783    12.000000000000
         H           -1.145346518504    -0.880291205603    -0.461024865217     1.007825032230
         H           -1.113286518504     0.000659794397     1.078689134783     1.007825032230
         H           -1.145360518504     0.881762794397    -0.460946865217     1.007825032230

  Basis Set: AUG-CC-PVTZ
    Blend: AUG-CC-PVTZ
  Basis Set: (AUG-CC-PVTZ AUX)
    Blend: AUG-CC-PVTZ-JKFIT
	 Reference Energy          =     -95.2545935691830721 [Eh]
	 Singles Energy            =      -0.0000000000000000 [Eh]
	 Same-Spin Energy          =      -0.0954455292487515 [Eh]
	 Opposite-Spin Energy      =      -0.3518899426321768 [Eh]
	 Correlation Energy        =      -0.4473354718809283 [Eh]
	 Total Energy              =     -95.7019290410640053 [Eh]

	 ================> DF-SCS-MP2 Energies <==================
	-----------------------------------------------------------
	 SCS Same-Spin Scale       =       0.3333333333333333 [-]
	 SCS Opposite-Spin Scale   =       1.2000000000000000 [-]
	 SCS Same-Spin Energy      =      -0.0318151764162505 [Eh]
	 SCS Opposite-Spin Energy  =      -0.4222679311586121 [Eh]
	 SCS Correlation Energy    =      -0.4540831075748626 [Eh]
	 SCS Total Energy          =     -95.7086766767579320 [Eh]
	-----------------------------------------------------------

  Dipole Moment: [D]
     X:    -0.2798      Y:     0.0023      Z:     1.3239     Total:     1.3532

*** Psi4 exiting successfully. Buy a developer a beer!
