                               Psi4 1.3.2 release

  ==> Input File <==

--------------------------------------------------------------------------
#psi4
#
memory 32 gb

molecule  {
0 1
  N        0.7515910     0.0000020    -0.1260850
  H        1.1031051     0.8532421     0.3031256
  H        1.1399860    -0.8124580     0.3481170
  C       -0.7068950     0.0000000     0.0176830
  H       -1.1105870    -0.8810070    -0.4865140
  H       -1.0785270    -0.0000560     1.0532000
  H       -1.1106010     0.8810470    -0.4864360
units angstrom
no_reorient  #important for SAPT in psi4, default
symmetry c1  #important for SAPT in psi4, default
}

set PROPERTIES_ORIGIN ["COM"]
properties('MP2/aug-cc-pvtz', properties = ['dipole'])
--------------------------------------------------------------------------

    Molecular point group: c1
  Charge       = 0
  Multiplicity = 1
  Basis Set: AUG-CC-PVTZ
    Blend: AUG-CC-PVTZ
  Basis Set: (AUG-CC-PVTZ AUX)
    Blend: AUG-CC-PVTZ-JKFIT

    Orbital Energies [Eh]
    ---------------------

    Doubly Occupied:

       1A    -15.541347     2A    -11.241838     3A     -1.168328
       4A     -0.891958     5A     -0.666689     6A     -0.599851
       7A     -0.551879     8A     -0.517309     9A     -0.391315

  @DF-RHF Final Energy:   -95.25443246711784

   => Energetics <=

    Nuclear Repulsion Energy =             41.9618805847217686
    One-Electron Energy =                -211.2915973753984815
    Two-Electron Energy =                  74.0752843235588756
    Total Energy =                        -95.2544324671178373
  Basis Set: (AUG-CC-PVTZ AUX)
    Blend: AUG-CC-PVTZ-RI
    Molecular point group: c1

    Geometry (in Angstrom), charge = 0, multiplicity = 1:

       Center              X                  Y                   Z               Mass
    ------------   -----------------  -----------------  -----------------  -----------------
         N            0.720119248505    -0.001322491143    -0.099792886212    14.003074004430
         H            1.071633348505     0.851917608857     0.329417713788     1.007825032230
         H            1.108514248505    -0.813782491143     0.374409113788     1.007825032230
         C           -0.738366751495    -0.001324491143     0.043975113788    12.000000000000
         H           -1.142058751495    -0.882331491143    -0.460221886212     1.007825032230
         H           -1.109998751495    -0.001380491143     1.079492113788     1.007825032230
         H           -1.142072751495     0.879722508857    -0.460143886212     1.007825032230

  Basis Set: AUG-CC-PVTZ
    Blend: AUG-CC-PVTZ
  Basis Set: (AUG-CC-PVTZ AUX)
    Blend: AUG-CC-PVTZ-JKFIT
	 Reference Energy          =     -95.2544324671178373 [Eh]
	 Singles Energy            =      -0.0000000000000000 [Eh]
	 Same-Spin Energy          =      -0.0954582258126252 [Eh]
	 Opposite-Spin Energy      =      -0.3519546647453070 [Eh]
	 Correlation Energy        =      -0.4474128905579322 [Eh]
	 Total Energy              =     -95.7018453576757651 [Eh]

	 ================> DF-SCS-MP2 Energies <==================
	-----------------------------------------------------------
	 SCS Same-Spin Scale       =       0.3333333333333333 [-]
	 SCS Opposite-Spin Scale   =       1.2000000000000000 [-]
	 SCS Same-Spin Energy      =      -0.0318194086042084 [Eh]
	 SCS Opposite-Spin Energy  =      -0.4223455976943684 [Eh]
	 SCS Correlation Energy    =      -0.4541650062985768 [Eh]
	 SCS Total Energy          =     -95.7085974734164182 [Eh]
	-----------------------------------------------------------

  Dipole Moment: [D]
     X:    -0.3252      Y:     0.0408      Z:     1.3041     Total:     1.3447

*** Psi4 exiting successfully. Buy a developer a beer!
