                               Psi4 1.4a3.dev225

  ==> Input File <==

--------------------------------------------------------------------------
#psi4
#
memory 32 gb

molecule  {
0 1
  N        0.7515260     0.0000030    -0.1261400
  H        1.1399660     0.8124090     0.3481980
  H        1.1399710    -0.8124230     0.3481590
  C       -0.6570124     0.0000001     0.0127833
  H       -1.1106360    -0.8809610    -0.4863580
  H       -1.0787230    -0.0000410     1.0531300
  H       -1.1106370     0.8809980    -0.4862910
units angstrom
no_reorient  #important for SAPT in psi4, default
symmetry c1  #important for SAPT in psi4, default
}

set PROPERTIES_ORIGIN ["COM"]
properties('MP2/aug-cc-pvtz', properties = ['dipole'])
--------------------------------------------------------------------------

    Molecular point group: c1
  Charge       = 0
  Multiplicity = 1
  Basis Set: AUG-CC-PVTZ
    Blend: AUG-CC-PVTZ
  Basis Set: (AUG-CC-PVTZ AUX)
    Blend: AUG-CC-PVTZ-JKFIT

    Orbital Energies [Eh]
    ---------------------

    Doubly Occupied:

       1A    -15.542655     2A    -11.244560     3A     -1.185230
       4A     -0.887312     5A     -0.666482     6A     -0.611610
       7A     -0.559841     8A     -0.503910     9A     -0.390598

  @DF-RHF Final Energy:   -95.25228462073778

   => Energetics <=

    Nuclear Repulsion Energy =             42.4048161789965619
    One-Electron Energy =                -212.1298054778884818
    Two-Electron Energy =                  74.4727046781541446
    Total Energy =                        -95.2522846207377825
  Basis Set: (AUG-CC-PVTZ AUX)
    Blend: AUG-CC-PVTZ-RI
    Molecular point group: c1

    Geometry (in Angstrom), charge = 0, multiplicity = 1:

       Center              X                  Y                   Z               Mass
    ------------   -----------------  -----------------  -----------------  -----------------
         N            0.699613299128     0.000002192442    -0.099401192994    14.003074004430
         H            1.088053299128     0.812408192442     0.374936807006     1.007825032230
         H            1.088058299128    -0.812423807558     0.374897807006     1.007825032230
         C           -0.708925100872    -0.000000707558     0.039522107006    12.000000000000
         H           -1.162548700872    -0.880961807558    -0.459619192994     1.007825032230
         H           -1.130635700872    -0.000041807558     1.079868807006     1.007825032230
         H           -1.162549700872     0.880997192442    -0.459552192994     1.007825032230

  Basis Set: AUG-CC-PVTZ
    Blend: AUG-CC-PVTZ
  Basis Set: (AUG-CC-PVTZ AUX)
    Blend: AUG-CC-PVTZ-JKFIT
	 Reference Energy          =     -95.2522846207377825 [Eh]
	 Singles Energy            =      -0.0000000000000000 [Eh]
	 Same-Spin Energy          =      -0.0956833368747140 [Eh]
	 Opposite-Spin Energy      =      -0.3518531838424050 [Eh]
	 Correlation Energy        =      -0.4475365207171191 [Eh]
	 Total Energy              =     -95.6998211414549047 [Eh]

	 ================> DF-SCS-MP2 Energies <==================
	-----------------------------------------------------------
	 SCS Same-Spin Scale       =       0.3333333333333333 [-]
	 SCS Opposite-Spin Scale   =       1.2000000000000000 [-]
	 SCS Same-Spin Energy      =      -0.0318944456249047 [Eh]
	 SCS Opposite-Spin Energy  =      -0.4222238206108860 [Eh]
	 SCS Correlation Energy    =      -0.4541182662357907 [Eh]
	 SCS Total Energy          =     -95.7064028869735779 [Eh]
	-----------------------------------------------------------

  Dipole Moment: [D]
     X:    -0.1846      Y:    -0.0000      Z:     1.3249     Total:     1.3377

*** Psi4 exiting successfully. Buy a developer a beer!
