                               Psi4 1.3.2 release

  ==> Input File <==

--------------------------------------------------------------------------
#psi4
#
memory 32 gb

molecule  {
0 1
  N        0.7515910     0.0000020    -0.1260850
  H        1.0398996     0.8381117     0.3741679
  H        1.1399860    -0.8124580     0.3481170
  C       -0.7068950     0.0000000     0.0176830
  H       -1.1105870    -0.8810070    -0.4865140
  H       -1.0785270    -0.0000560     1.0532000
  H       -1.1106010     0.8810470    -0.4864360
units angstrom
no_reorient  #important for SAPT in psi4, default
symmetry c1  #important for SAPT in psi4, default
}

set PROPERTIES_ORIGIN ["COM"]
properties('MP2/aug-cc-pvtz', properties = ['dipole'])
--------------------------------------------------------------------------

    Molecular point group: c1
  Charge       = 0
  Multiplicity = 1
  Basis Set: AUG-CC-PVTZ
    Blend: AUG-CC-PVTZ
  Basis Set: (AUG-CC-PVTZ AUX)
    Blend: AUG-CC-PVTZ-JKFIT

    Orbital Energies [Eh]
    ---------------------

    Doubly Occupied:

       1A    -15.542706     2A    -11.241786     3A     -1.171807
       4A     -0.891353     5A     -0.666876     6A     -0.601469
       7A     -0.549639     8A     -0.515455     9A     -0.396196

  @DF-RHF Final Energy:   -95.25334638716710

   => Energetics <=

    Nuclear Repulsion Energy =             42.0182976718897692
    One-Electron Energy =                -211.3887140348866467
    Two-Electron Energy =                  74.1170699758297786
    Total Energy =                        -95.2533463871670989
  Basis Set: (AUG-CC-PVTZ AUX)
    Blend: AUG-CC-PVTZ-RI
    Molecular point group: c1

    Geometry (in Angstrom), charge = 0, multiplicity = 1:

       Center              X                  Y                   Z               Mass
    ------------   -----------------  -----------------  -----------------  -----------------
         N            0.722171296581    -0.000831263192    -0.102099366108    14.003074004430
         H            1.010479896581     0.837278436808     0.398153533892     1.007825032230
         H            1.110566296581    -0.813291263192     0.372102633892     1.007825032230
         C           -0.736314703419    -0.000833263192     0.041668633892    12.000000000000
         H           -1.140006703419    -0.881840263192    -0.462528366108     1.007825032230
         H           -1.107946703419    -0.000889263192     1.077185633892     1.007825032230
         H           -1.140020703419     0.880213736808    -0.462450366108     1.007825032230

  Basis Set: AUG-CC-PVTZ
    Blend: AUG-CC-PVTZ
  Basis Set: (AUG-CC-PVTZ AUX)
    Blend: AUG-CC-PVTZ-JKFIT
	 Reference Energy          =     -95.2533463871670989 [Eh]
	 Singles Energy            =      -0.0000000000000000 [Eh]
	 Same-Spin Energy          =      -0.0955216038961654 [Eh]
	 Opposite-Spin Energy      =      -0.3521855177112387 [Eh]
	 Correlation Energy        =      -0.4477071216074041 [Eh]
	 Total Energy              =     -95.7010535087745069 [Eh]

	 ================> DF-SCS-MP2 Energies <==================
	-----------------------------------------------------------
	 SCS Same-Spin Scale       =       0.3333333333333333 [-]
	 SCS Opposite-Spin Scale   =       1.2000000000000000 [-]
	 SCS Same-Spin Energy      =      -0.0318405346320551 [Eh]
	 SCS Opposite-Spin Energy  =      -0.4226226212534864 [Eh]
	 SCS Correlation Energy    =      -0.4544631558855416 [Eh]
	 SCS Total Energy          =     -95.7078095430526474 [Eh]
	-----------------------------------------------------------

  Dipole Moment: [D]
     X:    -0.3933      Y:    -0.0104      Z:     1.3784     Total:     1.4335

*** Psi4 exiting successfully. Buy a developer a beer!
