                               Psi4 1.3.2 release

  ==> Input File <==

--------------------------------------------------------------------------
#psi4
#
memory 32 gb

molecule  {
0 1
  N        0.7515910     0.0000020    -0.1260850
  H        1.0840229     0.8720840     0.2798271
  H        1.1399860    -0.8124580     0.3481170
  C       -0.7068950     0.0000000     0.0176830
  H       -1.1105870    -0.8810070    -0.4865140
  H       -1.0785270    -0.0000560     1.0532000
  H       -1.1106010     0.8810470    -0.4864360
units angstrom
no_reorient  #important for SAPT in psi4, default
symmetry c1  #important for SAPT in psi4, default
}

set PROPERTIES_ORIGIN ["COM"]
properties('MP2/aug-cc-pvtz', properties = ['dipole'])
--------------------------------------------------------------------------

    Molecular point group: c1
  Charge       = 0
  Multiplicity = 1
  Basis Set: AUG-CC-PVTZ
    Blend: AUG-CC-PVTZ
  Basis Set: (AUG-CC-PVTZ AUX)
    Blend: AUG-CC-PVTZ-JKFIT

    Orbital Energies [Eh]
    ---------------------

    Doubly Occupied:

       1A    -15.541105     2A    -11.241519     3A     -1.168129
       4A     -0.891011     5A     -0.669864     6A     -0.598395
       7A     -0.550986     8A     -0.517871     9A     -0.390255

  @DF-RHF Final Energy:   -95.25379460506088

   => Energetics <=

    Nuclear Repulsion Energy =             41.9709445184568466
    One-Electron Energy =                -211.3112086530192641
    Two-Electron Energy =                  74.0864695295015281
    Total Energy =                        -95.2537946050608753
  Basis Set: (AUG-CC-PVTZ AUX)
    Blend: AUG-CC-PVTZ-RI
    Molecular point group: c1

    Geometry (in Angstrom), charge = 0, multiplicity = 1:

       Center              X                  Y                   Z               Mass
    ------------   -----------------  -----------------  -----------------  -----------------
         N            0.720738776739    -0.001934217727    -0.099036470361    14.003074004430
         H            1.053170676739     0.870147782273     0.306875629639     1.007825032230
         H            1.109133776739    -0.814394217727     0.375165529639     1.007825032230
         C           -0.737747223261    -0.001936217727     0.044731529639    12.000000000000
         H           -1.141439223261    -0.882943217727    -0.459465470361     1.007825032230
         H           -1.109379223261    -0.001992217727     1.080248529639     1.007825032230
         H           -1.141453223261     0.879110782273    -0.459387470361     1.007825032230

  Basis Set: AUG-CC-PVTZ
    Blend: AUG-CC-PVTZ
  Basis Set: (AUG-CC-PVTZ AUX)
    Blend: AUG-CC-PVTZ-JKFIT
	 Reference Energy          =     -95.2537946050608753 [Eh]
	 Singles Energy            =      -0.0000000000000000 [Eh]
	 Same-Spin Energy          =      -0.0954845642331664 [Eh]
	 Opposite-Spin Energy      =      -0.3519851741025787 [Eh]
	 Correlation Energy        =      -0.4474697383357450 [Eh]
	 Total Energy              =     -95.7012643433966161 [Eh]

	 ================> DF-SCS-MP2 Energies <==================
	-----------------------------------------------------------
	 SCS Same-Spin Scale       =       0.3333333333333333 [-]
	 SCS Opposite-Spin Scale   =       1.2000000000000000 [-]
	 SCS Same-Spin Energy      =      -0.0318281880777221 [Eh]
	 SCS Opposite-Spin Energy  =      -0.4223822089230944 [Eh]
	 SCS Correlation Energy    =      -0.4542103970008166 [Eh]
	 SCS Total Energy          =     -95.7080050020616966 [Eh]
	-----------------------------------------------------------

  Dipole Moment: [D]
     X:    -0.3268      Y:     0.0597      Z:     1.2812     Total:     1.3236

*** Psi4 exiting successfully. Buy a developer a beer!
