                               Psi4 1.3.2 release

  ==> Input File <==

--------------------------------------------------------------------------
#psi4
#
memory 32 gb

molecule  {
0 1
  N        0.7515910     0.0000020    -0.1260850
  H        1.2357693     0.7779148     0.3168885
  H        1.1399860    -0.8124580     0.3481170
  C       -0.7068950     0.0000000     0.0176830
  H       -1.1105870    -0.8810070    -0.4865140
  H       -1.0785270    -0.0000560     1.0532000
  H       -1.1106010     0.8810470    -0.4864360
units angstrom
no_reorient  #important for SAPT in psi4, default
symmetry c1  #important for SAPT in psi4, default
}

set PROPERTIES_ORIGIN ["COM"]
properties('MP2/aug-cc-pvtz', properties = ['dipole'])
--------------------------------------------------------------------------

    Molecular point group: c1
  Charge       = 0
  Multiplicity = 1
  Basis Set: AUG-CC-PVTZ
    Blend: AUG-CC-PVTZ
  Basis Set: (AUG-CC-PVTZ AUX)
    Blend: AUG-CC-PVTZ-JKFIT

    Orbital Energies [Eh]
    ---------------------

    Doubly Occupied:

       1A    -15.540639     2A    -11.243799     3A     -1.166374
       4A     -0.896646     5A     -0.653933     6A     -0.605068
       7A     -0.558058     8A     -0.514491     9A     -0.390382

  @DF-RHF Final Energy:   -95.25401728907210

   => Energetics <=

    Nuclear Repulsion Energy =             41.8842299649350096
    One-Electron Energy =                -211.1377095270429720
    Two-Electron Energy =                  73.9994622730358742
    Total Energy =                        -95.2540172890720953
  Basis Set: (AUG-CC-PVTZ AUX)
    Blend: AUG-CC-PVTZ-RI
    Molecular point group: c1

    Geometry (in Angstrom), charge = 0, multiplicity = 1:

       Center              X                  Y                   Z               Mass
    ------------   -----------------  -----------------  -----------------  -----------------
         N            0.715812134150     0.001123106804    -0.100239716511    14.003074004430
         H            1.199990434150     0.779035906804     0.342733783489     1.007825032230
         H            1.104207134150    -0.811336893196     0.373962283489     1.007825032230
         C           -0.742673865850     0.001121106804     0.043528283489    12.000000000000
         H           -1.146365865850    -0.879885893196    -0.460668716511     1.007825032230
         H           -1.114305865850     0.001065106804     1.079045283489     1.007825032230
         H           -1.146379865850     0.882168106804    -0.460590716511     1.007825032230

  Basis Set: AUG-CC-PVTZ
    Blend: AUG-CC-PVTZ
  Basis Set: (AUG-CC-PVTZ AUX)
    Blend: AUG-CC-PVTZ-JKFIT
	 Reference Energy          =     -95.2540172890720953 [Eh]
	 Singles Energy            =      -0.0000000000000000 [Eh]
	 Same-Spin Energy          =      -0.0954646902009952 [Eh]
	 Opposite-Spin Energy      =      -0.3518905629787445 [Eh]
	 Correlation Energy        =      -0.4473552531797398 [Eh]
	 Total Energy              =     -95.7013725422518320 [Eh]

	 ================> DF-SCS-MP2 Energies <==================
	-----------------------------------------------------------
	 SCS Same-Spin Scale       =       0.3333333333333333 [-]
	 SCS Opposite-Spin Scale   =       1.2000000000000000 [-]
	 SCS Same-Spin Energy      =      -0.0318215634003317 [Eh]
	 SCS Opposite-Spin Energy  =      -0.4222686755744934 [Eh]
	 SCS Correlation Energy    =      -0.4540902389748251 [Eh]
	 SCS Total Energy          =     -95.7081075280469236 [Eh]
	-----------------------------------------------------------

  Dipole Moment: [D]
     X:    -0.2590      Y:     0.0020      Z:     1.3107     Total:     1.3360

*** Psi4 exiting successfully. Buy a developer a beer!
