                               Psi4 1.3.2 release

  ==> Input File <==

--------------------------------------------------------------------------
#psi4
#
memory 32 gb

molecule  {
0 1
  N        0.7515910     0.0000020    -0.1260850
  H        1.0736597     0.8305709     0.3660834
  H        1.1399860    -0.8124580     0.3481170
  C       -0.7068950     0.0000000     0.0176830
  H       -1.1105870    -0.8810070    -0.4865140
  H       -1.0785270    -0.0000560     1.0532000
  H       -1.1106010     0.8810470    -0.4864360
units angstrom
no_reorient  #important for SAPT in psi4, default
symmetry c1  #important for SAPT in psi4, default
}

set PROPERTIES_ORIGIN ["COM"]
properties('MP2/aug-cc-pvtz', properties = ['dipole'])
--------------------------------------------------------------------------

    Molecular point group: c1
  Charge       = 0
  Multiplicity = 1
  Basis Set: AUG-CC-PVTZ
    Blend: AUG-CC-PVTZ
  Basis Set: (AUG-CC-PVTZ AUX)
    Blend: AUG-CC-PVTZ-JKFIT

    Orbital Energies [Eh]
    ---------------------

    Doubly Occupied:

       1A    -15.542433     2A    -11.241958     3A     -1.170769
       4A     -0.892180     5A     -0.664664     6A     -0.601870
       7A     -0.550867     8A     -0.515820     9A     -0.395295

  @DF-RHF Final Energy:   -95.25416727754035

   => Energetics <=

    Nuclear Repulsion Energy =             41.9928786648338530
    One-Electron Energy =                -211.3423810258852882
    Two-Electron Energy =                  74.0953350835110882
    Total Energy =                        -95.2541672775403470
  Basis Set: (AUG-CC-PVTZ AUX)
    Blend: AUG-CC-PVTZ-RI
    Molecular point group: c1

    Geometry (in Angstrom), charge = 0, multiplicity = 1:

       Center              X                  Y                   Z               Mass
    ------------   -----------------  -----------------  -----------------  -----------------
         N            0.721075231393    -0.000586441395    -0.101836892389    14.003074004430
         H            1.043143931393     0.829982458605     0.390331507611     1.007825032230
         H            1.109470231393    -0.813046441395     0.372365107611     1.007825032230
         C           -0.737410768607    -0.000588441395     0.041931107611    12.000000000000
         H           -1.141102768607    -0.881595441395    -0.462265892389     1.007825032230
         H           -1.109042768607    -0.000644441395     1.077448107611     1.007825032230
         H           -1.141116768607     0.880458558605    -0.462187892389     1.007825032230

  Basis Set: AUG-CC-PVTZ
    Blend: AUG-CC-PVTZ
  Basis Set: (AUG-CC-PVTZ AUX)
    Blend: AUG-CC-PVTZ-JKFIT
	 Reference Energy          =     -95.2541672775403470 [Eh]
	 Singles Energy            =      -0.0000000000000000 [Eh]
	 Same-Spin Energy          =      -0.0954819773288924 [Eh]
	 Opposite-Spin Energy      =      -0.3520851998341341 [Eh]
	 Correlation Energy        =      -0.4475671771630264 [Eh]
	 Total Energy              =     -95.7017344547033701 [Eh]

	 ================> DF-SCS-MP2 Energies <==================
	-----------------------------------------------------------
	 SCS Same-Spin Scale       =       0.3333333333333333 [-]
	 SCS Opposite-Spin Scale   =       1.2000000000000000 [-]
	 SCS Same-Spin Energy      =      -0.0318273257762975 [Eh]
	 SCS Opposite-Spin Energy  =      -0.4225022398009609 [Eh]
	 SCS Correlation Energy    =      -0.4543295655772583 [Eh]
	 SCS Total Energy          =     -95.7084968431176009 [Eh]
	-----------------------------------------------------------

  Dipole Moment: [D]
     X:    -0.3692      Y:    -0.0060      Z:     1.3691     Total:     1.4180

*** Psi4 exiting successfully. Buy a developer a beer!
