                               Psi4 1.3.2 release

  ==> Input File <==

--------------------------------------------------------------------------
#psi4
#
memory 32 gb

molecule  {
0 1
  N        0.7515910     0.0000020    -0.1260850
  H        1.1749268     0.7677276     0.3908161
  H        1.1399860    -0.8124580     0.3481170
  C       -0.7068950     0.0000000     0.0176830
  H       -1.1105870    -0.8810070    -0.4865140
  H       -1.0785270    -0.0000560     1.0532000
  H       -1.1106010     0.8810470    -0.4864360
units angstrom
no_reorient  #important for SAPT in psi4, default
symmetry c1  #important for SAPT in psi4, default
}

set PROPERTIES_ORIGIN ["COM"]
properties('MP2/aug-cc-pvtz', properties = ['dipole'])
--------------------------------------------------------------------------

    Molecular point group: c1
  Charge       = 0
  Multiplicity = 1
  Basis Set: AUG-CC-PVTZ
    Blend: AUG-CC-PVTZ
  Basis Set: (AUG-CC-PVTZ AUX)
    Blend: AUG-CC-PVTZ-JKFIT

    Orbital Energies [Eh]
    ---------------------

    Doubly Occupied:

       1A    -15.542205     2A    -11.243213     3A     -1.169585
       4A     -0.895938     5A     -0.653905     6A     -0.606194
       7A     -0.555309     8A     -0.513849     9A     -0.395472

  @DF-RHF Final Energy:   -95.25440283808798

   => Energetics <=

    Nuclear Repulsion Energy =             41.9327088746237280
    One-Electron Energy =                -211.2228830410896023
    Two-Electron Energy =                  74.0357713283778907
    Total Energy =                        -95.2544028380879837
  Basis Set: (AUG-CC-PVTZ AUX)
    Blend: AUG-CC-PVTZ-RI
    Molecular point group: c1

    Geometry (in Angstrom), charge = 0, multiplicity = 1:

       Center              X                  Y                   Z               Mass
    ------------   -----------------  -----------------  -----------------  -----------------
         N            0.717787464383     0.001453847391    -0.102639871393    14.003074004430
         H            1.141123264383     0.769179447391     0.414261228607     1.007825032230
         H            1.106182464383    -0.811006152609     0.371562128607     1.007825032230
         C           -0.740698535617     0.001451847391     0.041128128607    12.000000000000
         H           -1.144390535617    -0.879555152609    -0.463068871393     1.007825032230
         H           -1.112330535617     0.001395847391     1.076645128607     1.007825032230
         H           -1.144404535617     0.882498847391    -0.462990871393     1.007825032230

  Basis Set: AUG-CC-PVTZ
    Blend: AUG-CC-PVTZ
  Basis Set: (AUG-CC-PVTZ AUX)
    Blend: AUG-CC-PVTZ-JKFIT
	 Reference Energy          =     -95.2544028380879837 [Eh]
	 Singles Energy            =      -0.0000000000000000 [Eh]
	 Same-Spin Energy          =      -0.0954691484243811 [Eh]
	 Opposite-Spin Energy      =      -0.3520150028202348 [Eh]
	 Correlation Energy        =      -0.4474841512446159 [Eh]
	 Total Energy              =     -95.7018869893325927 [Eh]

	 ================> DF-SCS-MP2 Energies <==================
	-----------------------------------------------------------
	 SCS Same-Spin Scale       =       0.3333333333333333 [-]
	 SCS Opposite-Spin Scale   =       1.2000000000000000 [-]
	 SCS Same-Spin Energy      =      -0.0318230494747937 [Eh]
	 SCS Opposite-Spin Energy  =      -0.4224180033842818 [Eh]
	 SCS Correlation Energy    =      -0.4542410528590755 [Eh]
	 SCS Total Energy          =     -95.7086438909470587 [Eh]
	-----------------------------------------------------------

  Dipole Moment: [D]
     X:    -0.3224      Y:    -0.0449      Z:     1.3899     Total:     1.4275

*** Psi4 exiting successfully. Buy a developer a beer!
