                               Psi4 1.4a3.dev225

  ==> Input File <==

--------------------------------------------------------------------------
#psi4
#
memory 32 gb

molecule  {
0 1
  N        0.7515260     0.0000030    -0.1261400
  H        1.1399660     0.8124090     0.3481980
  H        1.1399710    -0.8124230     0.3481590
  C       -0.6868676     0.0000000     0.0157279
  H       -1.1106360    -0.8809610    -0.4863580
  H       -1.0787230    -0.0000410     1.0531300
  H       -1.1106370     0.8809980    -0.4862910
units angstrom
no_reorient  #important for SAPT in psi4, default
symmetry c1  #important for SAPT in psi4, default
}

set PROPERTIES_ORIGIN ["COM"]
properties('MP2/aug-cc-pvtz', properties = ['dipole'])
--------------------------------------------------------------------------

    Molecular point group: c1
  Charge       = 0
  Multiplicity = 1
  Basis Set: AUG-CC-PVTZ
    Blend: AUG-CC-PVTZ
  Basis Set: (AUG-CC-PVTZ AUX)
    Blend: AUG-CC-PVTZ-JKFIT

    Orbital Energies [Eh]
    ---------------------

    Doubly Occupied:

       1A    -15.542147     2A    -11.243206     3A     -1.175164
       4A     -0.891298     5A     -0.662627     6A     -0.605649
       7A     -0.556649     8A     -0.511154     9A     -0.392489

  @DF-RHF Final Energy:   -95.25449365188793

   => Energetics <=

    Nuclear Repulsion Energy =             42.1271495180311817
    One-Electron Energy =                -211.6025194746507339
    Two-Electron Energy =                  74.2208763047316182
    Total Energy =                        -95.2544936518879268
  Basis Set: (AUG-CC-PVTZ AUX)
    Blend: AUG-CC-PVTZ-RI
    Molecular point group: c1

    Geometry (in Angstrom), charge = 0, multiplicity = 1:

       Center              X                  Y                   Z               Mass
    ------------   -----------------  -----------------  -----------------  -----------------
         N            0.711154440208     0.000002231099    -0.100539488635    14.003074004430
         H            1.099594440208     0.812408231099     0.373798511365     1.007825032230
         H            1.099599440208    -0.812423768901     0.373759511365     1.007825032230
         C           -0.727239159792    -0.000000768901     0.041328411365    12.000000000000
         H           -1.151007559792    -0.880961768901    -0.460757488635     1.007825032230
         H           -1.119094559792    -0.000041768901     1.078730511365     1.007825032230
         H           -1.151008559792     0.880997231099    -0.460690488635     1.007825032230

  Basis Set: AUG-CC-PVTZ
    Blend: AUG-CC-PVTZ
  Basis Set: (AUG-CC-PVTZ AUX)
    Blend: AUG-CC-PVTZ-JKFIT
	 Reference Energy          =     -95.2544936518879268 [Eh]
	 Singles Energy            =      -0.0000000000000000 [Eh]
	 Same-Spin Energy          =      -0.0955212807495102 [Eh]
	 Opposite-Spin Energy      =      -0.3518786825598577 [Eh]
	 Correlation Energy        =      -0.4473999633093679 [Eh]
	 Total Energy              =     -95.7018936151972923 [Eh]

	 ================> DF-SCS-MP2 Energies <==================
	-----------------------------------------------------------
	 SCS Same-Spin Scale       =       0.3333333333333333 [-]
	 SCS Opposite-Spin Scale   =       1.2000000000000000 [-]
	 SCS Same-Spin Energy      =      -0.0318404269165034 [Eh]
	 SCS Opposite-Spin Energy  =      -0.4222544190718293 [Eh]
	 SCS Correlation Energy    =      -0.4540948459883327 [Eh]
	 SCS Total Energy          =     -95.7085884978762635 [Eh]
	-----------------------------------------------------------

  Dipole Moment: [D]
     X:    -0.2699      Y:    -0.0000      Z:     1.3397     Total:     1.3666

*** Psi4 exiting successfully. Buy a developer a beer!
