                               Psi4 1.3.2 release

  ==> Input File <==

--------------------------------------------------------------------------
#psi4
#
memory 32 gb

molecule  {
0 1
  C        1.6145290    -0.0000010     0.5621290
  C        2.5582230    -0.7522490    -0.3397160
  C        2.5582240     0.7522500    -0.3397120
  C        0.1480820    -0.0000010     0.2808970
  C       -0.5548080     1.2061540     0.1589450
  C       -0.5639463    -1.2061550     0.2081042
  C       -1.9306470     1.2078790    -0.0767010
  C       -1.9306490    -1.2078780    -0.0767020
  C       -2.6220200     0.0000010    -0.1960300
  H        1.8787490    -0.0000050     1.6191980
  H        2.1259860    -1.2531880    -1.2001610
  H        3.4001610    -1.2700850     0.1085340
  H        3.4001670     1.2700790     0.1085380
  H        2.1259890     1.2531940    -1.2001560
  H       -0.0142320     2.1466170     0.2491570
  H       -0.0142360    -2.1466190     0.2491580
  H       -2.4630520     2.1516370    -0.1717350
  H       -2.4630540    -2.1516360    -0.1717360
  H       -3.6932210     0.0000030    -0.3831350
units angstrom
no_reorient  #important for SAPT in psi4, default
symmetry c1  #important for SAPT in psi4, default
}

set PROPERTIES_ORIGIN ["COM"]
properties('MP2/aug-cc-pvtz', properties = ['dipole'])
--------------------------------------------------------------------------

    Molecular point group: c1
  Charge       = 0
  Multiplicity = 1
  Basis Set: AUG-CC-PVTZ
    Blend: AUG-CC-PVTZ
  Basis Set: (AUG-CC-PVTZ AUX)
    Blend: AUG-CC-PVTZ-JKFIT

    Orbital Energies [Eh]
    ---------------------

    Doubly Occupied:

       1A    -11.240268     2A    -11.235713     3A    -11.234791
       4A    -11.234512     5A    -11.232118     6A    -11.230937
       7A    -11.230701     8A    -11.226865     9A    -11.226210
      10A     -1.164958    11A     -1.128254    12A     -1.012774
      13A     -1.010047    14A     -0.856396    15A     -0.834903
      16A     -0.809112    17A     -0.773816    18A     -0.699210
      19A     -0.664849    20A     -0.635694    21A     -0.620744
      22A     -0.607774    23A     -0.581735    24A     -0.541985
      25A     -0.514554    26A     -0.500541    27A     -0.492753
      28A     -0.483430    29A     -0.428157    30A     -0.415486
      31A     -0.333773    32A     -0.323829

  @DF-RHF Final Energy:  -346.71934238816232

   => Energetics <=

    Nuclear Repulsion Energy =            403.2939042473538507
    One-Electron Energy =               -1266.9727173427584148
    Two-Electron Energy =                 516.9594707072423034
    Total Energy =                       -346.7193423881623175
  Basis Set: (AUG-CC-PVTZ AUX)
    Blend: AUG-CC-PVTZ-RI
    Molecular point group: c1

    Geometry (in Angstrom), charge = 0, multiplicity = 1:

       Center              X                  Y                   Z               Mass
    ------------   -----------------  -----------------  -----------------  -----------------
         C            1.651448364608    -0.000000974394     0.550475436995    12.000000000000
         C            2.595142364608    -0.752248974394    -0.351369563005    12.000000000000
         C            2.595143364608     0.752250025606    -0.351365563005    12.000000000000
         C            0.185001364608    -0.000000974394     0.269243436995    12.000000000000
         C           -0.517888635392     1.206154025606     0.147291436995    12.000000000000
         C           -0.527026935392    -1.206154974394     0.196450636995    12.000000000000
         C           -1.893727635392     1.207879025606    -0.088354563005    12.000000000000
         C           -1.893729635392    -1.207877974394    -0.088355563005    12.000000000000
         C           -2.585100635392     0.000001025606    -0.207683563005    12.000000000000
         H            1.915668364608    -0.000004974394     1.607544436995     1.007825032230
         H            2.162905364608    -1.253187974394    -1.211814563005     1.007825032230
         H            3.437080364608    -1.270084974394     0.096880436995     1.007825032230
         H            3.437086364608     1.270079025606     0.096884436995     1.007825032230
         H            2.162908364608     1.253194025606    -1.211809563005     1.007825032230
         H            0.022687364608     2.146617025606     0.237503436995     1.007825032230
         H            0.022683364608    -2.146618974394     0.237504436995     1.007825032230
         H           -2.426132635392     2.151637025606    -0.183388563005     1.007825032230
         H           -2.426134635392    -2.151635974394    -0.183389563005     1.007825032230
         H           -3.656301635392     0.000003025606    -0.394788563005     1.007825032230

  Basis Set: AUG-CC-PVTZ
    Blend: AUG-CC-PVTZ
  Basis Set: (AUG-CC-PVTZ AUX)
    Blend: AUG-CC-PVTZ-JKFIT
	 Reference Energy          =    -346.7193423881623175 [Eh]
	 Singles Energy            =      -0.0000000000000000 [Eh]
	 Same-Spin Energy          =      -0.3876796415259176 [Eh]
	 Opposite-Spin Energy      =      -1.2554137745998086 [Eh]
	 Correlation Energy        =      -1.6430934161257262 [Eh]
	 Total Energy              =    -348.3624358042880544 [Eh]

	 ================> DF-SCS-MP2 Energies <==================
	-----------------------------------------------------------
	 SCS Same-Spin Scale       =       0.3333333333333333 [-]
	 SCS Opposite-Spin Scale   =       1.2000000000000000 [-]
	 SCS Same-Spin Energy      =      -0.1292265471753059 [Eh]
	 SCS Opposite-Spin Energy  =      -1.5064965295197703 [Eh]
	 SCS Correlation Energy    =      -1.6357230766950761 [Eh]
	 SCS Total Energy          =    -348.3550654648573754 [Eh]
	-----------------------------------------------------------

  Dipole Moment: [D]
     X:     0.2829      Y:     0.0061      Z:     0.0365     Total:     0.2853

*** Psi4 exiting successfully. Buy a developer a beer!
