                               Psi4 1.3.2 release

  ==> Input File <==

--------------------------------------------------------------------------
#psi4
#
memory 32 gb

molecule  {
0 1
  C        1.6145290    -0.0000010     0.5621290
  C        2.5582230    -0.7522490    -0.3397160
  C        2.5582240     0.7522500    -0.3397120
  C        0.1480820    -0.0000010     0.2808970
  C       -0.5548080     1.2061540     0.1589450
  C       -0.6004916    -1.2061549     0.4047369
  C       -1.9306470     1.2078790    -0.0767010
  C       -1.9306490    -1.2078780    -0.0767020
  C       -2.6220200     0.0000010    -0.1960300
  H        1.8787490    -0.0000050     1.6191980
  H        2.1259860    -1.2531880    -1.2001610
  H        3.4001610    -1.2700850     0.1085340
  H        3.4001670     1.2700790     0.1085380
  H        2.1259890     1.2531940    -1.2001560
  H       -0.0142320     2.1466170     0.2491570
  H       -0.0142360    -2.1466190     0.2491580
  H       -2.4630520     2.1516370    -0.1717350
  H       -2.4630540    -2.1516360    -0.1717360
  H       -3.6932210     0.0000030    -0.3831350
units angstrom
no_reorient  #important for SAPT in psi4, default
symmetry c1  #important for SAPT in psi4, default
}

set PROPERTIES_ORIGIN ["COM"]
properties('MP2/aug-cc-pvtz', properties = ['dipole'])
--------------------------------------------------------------------------

    Molecular point group: c1
  Charge       = 0
  Multiplicity = 1
  Basis Set: AUG-CC-PVTZ
    Blend: AUG-CC-PVTZ
  Basis Set: (AUG-CC-PVTZ AUX)
    Blend: AUG-CC-PVTZ-JKFIT

    Orbital Energies [Eh]
    ---------------------

    Doubly Occupied:

       1A    -11.245584     2A    -11.239458     3A    -11.237620
       4A    -11.236281     5A    -11.235804     6A    -11.231870
       7A    -11.230490     8A    -11.227211     9A    -11.226550
      10A     -1.164029    11A     -1.127993    12A     -1.012445
      13A     -1.007742    14A     -0.855844    15A     -0.833961
      16A     -0.808793    17A     -0.771464    18A     -0.697226
      19A     -0.664946    20A     -0.634869    21A     -0.617138
      22A     -0.605842    23A     -0.578010    24A     -0.542349
      25A     -0.514966    26A     -0.499359    27A     -0.485456
      28A     -0.484837    29A     -0.427139    30A     -0.415466
      31A     -0.334002    32A     -0.322561

  @DF-RHF Final Energy:  -346.70058721534758

   => Energetics <=

    Nuclear Repulsion Energy =            402.4003541639073092
    One-Electron Energy =               -1265.1672734311971453
    Two-Electron Energy =                 516.0663320519422541
    Total Energy =                       -346.7005872153475821
  Basis Set: (AUG-CC-PVTZ AUX)
    Blend: AUG-CC-PVTZ-RI
    Molecular point group: c1

    Geometry (in Angstrom), charge = 0, multiplicity = 1:

       Center              X                  Y                   Z               Mass
    ------------   -----------------  -----------------  -----------------  -----------------
         C            1.655162372893    -0.000000984557     0.530492142921    12.000000000000
         C            2.598856372893    -0.752248984557    -0.371352857079    12.000000000000
         C            2.598857372893     0.752250015443    -0.371348857079    12.000000000000
         C            0.188715372893    -0.000000984557     0.249260142921    12.000000000000
         C           -0.514174627107     1.206154015443     0.127308142921    12.000000000000
         C           -0.559858227107    -1.206154884557     0.373100042921    12.000000000000
         C           -1.890013627107     1.207879015443    -0.108337857079    12.000000000000
         C           -1.890015627107    -1.207877984557    -0.108338857079    12.000000000000
         C           -2.581386627107     0.000001015443    -0.227666857079    12.000000000000
         H            1.919382372893    -0.000004984557     1.587561142921     1.007825032230
         H            2.166619372893    -1.253187984557    -1.231797857079     1.007825032230
         H            3.440794372893    -1.270084984557     0.076897142921     1.007825032230
         H            3.440800372893     1.270079015443     0.076901142921     1.007825032230
         H            2.166622372893     1.253194015443    -1.231792857079     1.007825032230
         H            0.026401372893     2.146617015443     0.217520142921     1.007825032230
         H            0.026397372893    -2.146618984557     0.217521142921     1.007825032230
         H           -2.422418627107     2.151637015443    -0.203371857079     1.007825032230
         H           -2.422420627107    -2.151635984557    -0.203372857079     1.007825032230
         H           -3.652587627107     0.000003015443    -0.414771857079     1.007825032230

  Basis Set: AUG-CC-PVTZ
    Blend: AUG-CC-PVTZ
  Basis Set: (AUG-CC-PVTZ AUX)
    Blend: AUG-CC-PVTZ-JKFIT
	 Reference Energy          =    -346.7005872153475821 [Eh]
	 Singles Energy            =      -0.0000000000000000 [Eh]
	 Same-Spin Energy          =      -0.3884898251708446 [Eh]
	 Opposite-Spin Energy      =      -1.2580305397626197 [Eh]
	 Correlation Energy        =      -1.6465203649334643 [Eh]
	 Total Energy              =    -348.3471075802810333 [Eh]

	 ================> DF-SCS-MP2 Energies <==================
	-----------------------------------------------------------
	 SCS Same-Spin Scale       =       0.3333333333333333 [-]
	 SCS Opposite-Spin Scale   =       1.2000000000000000 [-]
	 SCS Same-Spin Energy      =      -0.1294966083902815 [Eh]
	 SCS Opposite-Spin Energy  =      -1.5096366477151435 [Eh]
	 SCS Correlation Energy    =      -1.6391332561054250 [Eh]
	 SCS Total Energy          =    -348.3397204714530062 [Eh]
	-----------------------------------------------------------

  Dipole Moment: [D]
     X:     0.2484      Y:     0.1211      Z:    -0.0822     Total:     0.2883

*** Psi4 exiting successfully. Buy a developer a beer!
