                               Psi4 1.3.2 release

  ==> Input File <==

--------------------------------------------------------------------------
#psi4
#
memory 32 gb

molecule  {
0 1
  C        1.6145290    -0.0000010     0.5621290
  C        2.5582230    -0.7522490    -0.3397160
  C        2.5582240     0.7522500    -0.3397120
  C        0.1480820    -0.0000010     0.2808970
  C       -0.5548080     1.2061540     0.1589450
  C       -0.5822190    -1.2061549     0.3064206
  C       -1.9306470     1.2078790    -0.0767010
  C       -1.9306490    -1.2078780    -0.0767020
  C       -2.6220200     0.0000010    -0.1960300
  H        1.8787490    -0.0000050     1.6191980
  H        2.1259860    -1.2531880    -1.2001610
  H        3.4001610    -1.2700850     0.1085340
  H        3.4001670     1.2700790     0.1085380
  H        2.1259890     1.2531940    -1.2001560
  H       -0.0142320     2.1466170     0.2491570
  H       -0.0142360    -2.1466190     0.2491580
  H       -2.4630520     2.1516370    -0.1717350
  H       -2.4630540    -2.1516360    -0.1717360
  H       -3.6932210     0.0000030    -0.3831350
units angstrom
no_reorient  #important for SAPT in psi4, default
symmetry c1  #important for SAPT in psi4, default
}

set PROPERTIES_ORIGIN ["COM"]
properties('MP2/aug-cc-pvtz', properties = ['dipole'])
--------------------------------------------------------------------------

    Molecular point group: c1
  Charge       = 0
  Multiplicity = 1
  Basis Set: AUG-CC-PVTZ
    Blend: AUG-CC-PVTZ
  Basis Set: (AUG-CC-PVTZ AUX)
    Blend: AUG-CC-PVTZ-JKFIT

    Orbital Energies [Eh]
    ---------------------

    Doubly Occupied:

       1A    -11.242080     2A    -11.236244     3A    -11.235928
       4A    -11.235574     5A    -11.232639     6A    -11.232046
       7A    -11.230642     8A    -11.227002     9A    -11.226345
      10A     -1.164608    11A     -1.128215    12A     -1.012629
      13A     -1.009381    14A     -0.856237    15A     -0.834509
      16A     -0.809041    17A     -0.772892    18A     -0.698438
      19A     -0.664999    20A     -0.635388    21A     -0.619433
      22A     -0.607054    23A     -0.580496    24A     -0.542313
      25A     -0.514734    26A     -0.499912    27A     -0.490223
      28A     -0.484346    29A     -0.427626    30A     -0.415517
      31A     -0.333876    32A     -0.323399

  @DF-RHF Final Energy:  -346.71318990883788

   => Energetics <=

    Nuclear Repulsion Energy =            402.9541284704321242
    One-Electron Energy =               -1266.2871064467822180
    Two-Electron Energy =                 516.6197880675122178
    Total Energy =                       -346.7131899088378759
  Basis Set: (AUG-CC-PVTZ AUX)
    Blend: AUG-CC-PVTZ-RI
    Molecular point group: c1

    Geometry (in Angstrom), charge = 0, multiplicity = 1:

       Center              X                  Y                   Z               Mass
    ------------   -----------------  -----------------  -----------------  -----------------
         C            1.653305373832    -0.000000984557     0.540483784877    12.000000000000
         C            2.596999373832    -0.752248984557    -0.361361215123    12.000000000000
         C            2.597000373832     0.752250015443    -0.361357215123    12.000000000000
         C            0.186858373832    -0.000000984557     0.259251784877    12.000000000000
         C           -0.516031626168     1.206154015443     0.137299784877    12.000000000000
         C           -0.543442626168    -1.206154884557     0.284775384877    12.000000000000
         C           -1.891870626168     1.207879015443    -0.098346215123    12.000000000000
         C           -1.891872626168    -1.207877984557    -0.098347215123    12.000000000000
         C           -2.583243626168     0.000001015443    -0.217675215123    12.000000000000
         H            1.917525373832    -0.000004984557     1.597552784877     1.007825032230
         H            2.164762373832    -1.253187984557    -1.221806215123     1.007825032230
         H            3.438937373832    -1.270084984557     0.086888784877     1.007825032230
         H            3.438943373832     1.270079015443     0.086892784877     1.007825032230
         H            2.164765373832     1.253194015443    -1.221801215123     1.007825032230
         H            0.024544373832     2.146617015443     0.227511784877     1.007825032230
         H            0.024540373832    -2.146618984557     0.227512784877     1.007825032230
         H           -2.424275626168     2.151637015443    -0.193380215123     1.007825032230
         H           -2.424277626168    -2.151635984557    -0.193381215123     1.007825032230
         H           -3.654444626168     0.000003015443    -0.404780215123     1.007825032230

  Basis Set: AUG-CC-PVTZ
    Blend: AUG-CC-PVTZ
  Basis Set: (AUG-CC-PVTZ AUX)
    Blend: AUG-CC-PVTZ-JKFIT
	 Reference Energy          =    -346.7131899088378759 [Eh]
	 Singles Energy            =      -0.0000000000000000 [Eh]
	 Same-Spin Energy          =      -0.3879437698296054 [Eh]
	 Opposite-Spin Energy      =      -1.2562424842221704 [Eh]
	 Correlation Energy        =      -1.6441862540517760 [Eh]
	 Total Energy              =    -348.3573761628896364 [Eh]

	 ================> DF-SCS-MP2 Energies <==================
	-----------------------------------------------------------
	 SCS Same-Spin Scale       =       0.3333333333333333 [-]
	 SCS Opposite-Spin Scale   =       1.2000000000000000 [-]
	 SCS Same-Spin Energy      =      -0.1293145899432018 [Eh]
	 SCS Opposite-Spin Energy  =      -1.5074909810666044 [Eh]
	 SCS Correlation Energy    =      -1.6368055710098062 [Eh]
	 SCS Total Energy          =    -348.3499954798476779 [Eh]
	-----------------------------------------------------------

  Dipole Moment: [D]
     X:     0.2733      Y:     0.0458      Z:    -0.0197     Total:     0.2778

*** Psi4 exiting successfully. Buy a developer a beer!
