                               Psi4 1.3.2 release

  ==> Input File <==

--------------------------------------------------------------------------
#psi4
#
memory 32 gb

molecule  {
0 1
  C        1.6145290    -0.0000010     0.5621290
  C        2.5582230    -0.7522490    -0.3397160
  C        2.5582240     0.7522500    -0.3397120
  C        0.1480820    -0.0000010     0.2808970
  C       -0.5548080     1.2061540     0.1589450
  C       -0.5730826    -1.2061549     0.2572624
  C       -1.9306470     1.2078790    -0.0767010
  C       -1.9306490    -1.2078780    -0.0767020
  C       -2.6220200     0.0000010    -0.1960300
  H        1.8787490    -0.0000050     1.6191980
  H        2.1259860    -1.2531880    -1.2001610
  H        3.4001610    -1.2700850     0.1085340
  H        3.4001670     1.2700790     0.1085380
  H        2.1259890     1.2531940    -1.2001560
  H       -0.0142320     2.1466170     0.2491570
  H       -0.0142360    -2.1466190     0.2491580
  H       -2.4630520     2.1516370    -0.1717350
  H       -2.4630540    -2.1516360    -0.1717360
  H       -3.6932210     0.0000030    -0.3831350
units angstrom
no_reorient  #important for SAPT in psi4, default
symmetry c1  #important for SAPT in psi4, default
}

set PROPERTIES_ORIGIN ["COM"]
properties('MP2/aug-cc-pvtz', properties = ['dipole'])
--------------------------------------------------------------------------

    Molecular point group: c1
  Charge       = 0
  Multiplicity = 1
  Basis Set: AUG-CC-PVTZ
    Blend: AUG-CC-PVTZ
  Basis Set: (AUG-CC-PVTZ AUX)
    Blend: AUG-CC-PVTZ-JKFIT

    Orbital Energies [Eh]
    ---------------------

    Doubly Occupied:

       1A    -11.240954     2A    -11.235803     3A    -11.235283
       4A    -11.234937     5A    -11.232121     6A    -11.231562
       7A    -11.230687     8A    -11.226925     9A    -11.226269
      10A     -1.164817    11A     -1.128260    12A     -1.012719
      13A     -1.009825    14A     -0.856347    15A     -0.834731
      16A     -0.809100    17A     -0.773429    18A     -0.698906
      19A     -0.664955    20A     -0.635571    21A     -0.620247
      22A     -0.607462    23A     -0.581276    24A     -0.542180
      25A     -0.514638    26A     -0.500195    27A     -0.491780
      28A     -0.483935    29A     -0.427888    30A     -0.415508
      31A     -0.333831    32A     -0.323669

  @DF-RHF Final Energy:  -346.71705958921024

   => Energetics <=

    Nuclear Repulsion Energy =            403.1515342163169748
    One-Electron Energy =               -1266.6855621359773068
    Two-Electron Energy =                 516.8169683304500950
    Total Energy =                       -346.7170595892101801
  Basis Set: (AUG-CC-PVTZ AUX)
    Blend: AUG-CC-PVTZ-RI
    Molecular point group: c1

    Geometry (in Angstrom), charge = 0, multiplicity = 1:

       Center              X                  Y                   Z               Mass
    ------------   -----------------  -----------------  -----------------  -----------------
         C            1.652376864139    -0.000000984557     0.545479610936    12.000000000000
         C            2.596070864139    -0.752248984557    -0.356365389064    12.000000000000
         C            2.596071864139     0.752250015443    -0.356361389064    12.000000000000
         C            0.185929864139    -0.000000984557     0.264247610936    12.000000000000
         C           -0.516960135861     1.206154015443     0.142295610936    12.000000000000
         C           -0.535234735861    -1.206154884557     0.240613010936    12.000000000000
         C           -1.892799135861     1.207879015443    -0.093350389064    12.000000000000
         C           -1.892801135861    -1.207877984557    -0.093351389064    12.000000000000
         C           -2.584172135861     0.000001015443    -0.212679389064    12.000000000000
         H            1.916596864139    -0.000004984557     1.602548610936     1.007825032230
         H            2.163833864139    -1.253187984557    -1.216810389064     1.007825032230
         H            3.438008864139    -1.270084984557     0.091884610936     1.007825032230
         H            3.438014864139     1.270079015443     0.091888610936     1.007825032230
         H            2.163836864139     1.253194015443    -1.216805389064     1.007825032230
         H            0.023615864139     2.146617015443     0.232507610936     1.007825032230
         H            0.023611864139    -2.146618984557     0.232508610936     1.007825032230
         H           -2.425204135861     2.151637015443    -0.188384389064     1.007825032230
         H           -2.425206135861    -2.151635984557    -0.188385389064     1.007825032230
         H           -3.655373135861     0.000003015443    -0.399784389064     1.007825032230

  Basis Set: AUG-CC-PVTZ
    Blend: AUG-CC-PVTZ
  Basis Set: (AUG-CC-PVTZ AUX)
    Blend: AUG-CC-PVTZ-JKFIT
	 Reference Energy          =    -346.7170595892102369 [Eh]
	 Singles Energy            =      -0.0000000000000000 [Eh]
	 Same-Spin Energy          =      -0.3877742463552996 [Eh]
	 Opposite-Spin Energy      =      -1.2557034612786895 [Eh]
	 Correlation Energy        =      -1.6434777076339890 [Eh]
	 Total Energy              =    -348.3605372968441998 [Eh]

	 ================> DF-SCS-MP2 Energies <==================
	-----------------------------------------------------------
	 SCS Same-Spin Scale       =       0.3333333333333333 [-]
	 SCS Opposite-Spin Scale   =       1.2000000000000000 [-]
	 SCS Same-Spin Energy      =      -0.1292580821184332 [Eh]
	 SCS Opposite-Spin Energy  =      -1.5068441535344272 [Eh]
	 SCS Correlation Energy    =      -1.6361022356528605 [Eh]
	 SCS Total Energy          =    -348.3531618248630934 [Eh]
	-----------------------------------------------------------

  Dipole Moment: [D]
     X:     0.2800      Y:     0.0215      Z:     0.0091     Total:     0.2810

*** Psi4 exiting successfully. Buy a developer a beer!
