                               Psi4 1.3.2 release

  ==> Input File <==

--------------------------------------------------------------------------
#psi4
#
memory 32 gb

molecule  {
0 1
  C        1.6145290    -0.0000010     0.5621290
  C        2.5582230    -0.7522490    -0.3397160
  C        2.5582240     0.7522500    -0.3397120
  C        0.1480820    -0.0000010     0.2808970
  C       -0.5548080     1.2061540     0.1589450
  C       -0.6096279    -1.2061548     0.4538951
  C       -1.9306470     1.2078790    -0.0767010
  C       -1.9306490    -1.2078780    -0.0767020
  C       -2.6220200     0.0000010    -0.1960300
  H        1.8787490    -0.0000050     1.6191980
  H        2.1259860    -1.2531880    -1.2001610
  H        3.4001610    -1.2700850     0.1085340
  H        3.4001670     1.2700790     0.1085380
  H        2.1259890     1.2531940    -1.2001560
  H       -0.0142320     2.1466170     0.2491570
  H       -0.0142360    -2.1466190     0.2491580
  H       -2.4630520     2.1516370    -0.1717350
  H       -2.4630540    -2.1516360    -0.1717360
  H       -3.6932210     0.0000030    -0.3831350
units angstrom
no_reorient  #important for SAPT in psi4, default
symmetry c1  #important for SAPT in psi4, default
}

set PROPERTIES_ORIGIN ["COM"]
properties('MP2/aug-cc-pvtz', properties = ['dipole'])
--------------------------------------------------------------------------

    Molecular point group: c1
  Charge       = 0
  Multiplicity = 1
  Basis Set: AUG-CC-PVTZ
    Blend: AUG-CC-PVTZ
  Basis Set: (AUG-CC-PVTZ AUX)
    Blend: AUG-CC-PVTZ-JKFIT

    Orbital Energies [Eh]
    ---------------------

    Doubly Occupied:

       1A    -11.247908     2A    -11.241637     3A    -11.239071
       4A    -11.237872     5A    -11.236505     6A    -11.231744
       7A    -11.230406     8A    -11.227344     9A    -11.226681
      10A     -1.163684    11A     -1.127828    12A     -1.012383
      13A     -1.006528    14A     -0.855568    15A     -0.833662
      16A     -0.808612    17A     -0.770634    18A     -0.696605
      19A     -0.664883    20A     -0.634563    21A     -0.615895
      22A     -0.604902    23A     -0.576384    24A     -0.542218
      25A     -0.515104    26A     -0.499009    27A     -0.484947
      28A     -0.482204    29A     -0.426923    30A     -0.415383
      31A     -0.334138    32A     -0.322013

  @DF-RHF Final Energy:  -346.69180482345831

   => Energetics <=

    Nuclear Repulsion Energy =            402.0481993531291778
    One-Electron Energy =               -1264.4535352460541162
    Two-Electron Energy =                 515.7135310694667396
    Total Energy =                       -346.6918048234582557
  Basis Set: (AUG-CC-PVTZ AUX)
    Blend: AUG-CC-PVTZ-RI
    Molecular point group: c1

    Geometry (in Angstrom), charge = 0, multiplicity = 1:

       Center              X                  Y                   Z               Mass
    ------------   -----------------  -----------------  -----------------  -----------------
         C            1.656090872424    -0.000000994720     0.525496316861    12.000000000000
         C            2.599784872424    -0.752248994720    -0.376348683139    12.000000000000
         C            2.599785872424     0.752250005280    -0.376344683139    12.000000000000
         C            0.189643872424    -0.000000994720     0.244264316861    12.000000000000
         C           -0.513246127576     1.206154005280     0.122312316861    12.000000000000
         C           -0.568066027576    -1.206154794720     0.417262416861    12.000000000000
         C           -1.889085127576     1.207879005280    -0.113333683139    12.000000000000
         C           -1.889087127576    -1.207877994720    -0.113334683139    12.000000000000
         C           -2.580458127576     0.000001005280    -0.232662683139    12.000000000000
         H            1.920310872424    -0.000004994720     1.582565316861     1.007825032230
         H            2.167547872424    -1.253187994720    -1.236793683139     1.007825032230
         H            3.441722872424    -1.270084994720     0.071901316861     1.007825032230
         H            3.441728872424     1.270079005280     0.071905316861     1.007825032230
         H            2.167550872424     1.253194005280    -1.236788683139     1.007825032230
         H            0.027329872424     2.146617005280     0.212524316861     1.007825032230
         H            0.027325872424    -2.146618994720     0.212525316861     1.007825032230
         H           -2.421490127576     2.151637005280    -0.208367683139     1.007825032230
         H           -2.421492127576    -2.151635994720    -0.208368683139     1.007825032230
         H           -3.651659127576     0.000003005280    -0.419767683139     1.007825032230

  Basis Set: AUG-CC-PVTZ
    Blend: AUG-CC-PVTZ
  Basis Set: (AUG-CC-PVTZ AUX)
    Blend: AUG-CC-PVTZ-JKFIT
	 Reference Energy          =    -346.6918048234583125 [Eh]
	 Singles Energy            =      -0.0000000000000000 [Eh]
	 Same-Spin Energy          =      -0.3888550564472504 [Eh]
	 Opposite-Spin Energy      =      -1.2592491690416527 [Eh]
	 Correlation Energy        =      -1.6481042254889031 [Eh]
	 Total Energy              =    -348.3399090489472201 [Eh]

	 ================> DF-SCS-MP2 Energies <==================
	-----------------------------------------------------------
	 SCS Same-Spin Scale       =       0.3333333333333333 [-]
	 SCS Opposite-Spin Scale   =       1.2000000000000000 [-]
	 SCS Same-Spin Energy      =      -0.1296183521490835 [Eh]
	 SCS Opposite-Spin Energy  =      -1.5110990028499833 [Eh]
	 SCS Correlation Energy    =      -1.6407173549990668 [Eh]
	 SCS Total Energy          =    -348.3325221784573955 [Eh]
	-----------------------------------------------------------

  Dipole Moment: [D]
     X:     0.2304      Y:     0.1713      Z:    -0.1158     Total:     0.3096

*** Psi4 exiting successfully. Buy a developer a beer!
