                               Psi4 1.3.2 release

  ==> Input File <==

--------------------------------------------------------------------------
#psi4
#
memory 32 gb

molecule  {
0 1
  C        1.6145290    -0.0000010     0.5621290
  C        2.5582230    -0.7522490    -0.3397160
  C        2.5582240     0.7522500    -0.3397120
  C        0.1480820    -0.0000010     0.2808970
  C       -0.5548080     1.2061540     0.1589450
  C       -0.5913553    -1.2061549     0.3555788
  C       -1.9306470     1.2078790    -0.0767010
  C       -1.9306490    -1.2078780    -0.0767020
  C       -2.6220200     0.0000010    -0.1960300
  H        1.8787490    -0.0000050     1.6191980
  H        2.1259860    -1.2531880    -1.2001610
  H        3.4001610    -1.2700850     0.1085340
  H        3.4001670     1.2700790     0.1085380
  H        2.1259890     1.2531940    -1.2001560
  H       -0.0142320     2.1466170     0.2491570
  H       -0.0142360    -2.1466190     0.2491580
  H       -2.4630520     2.1516370    -0.1717350
  H       -2.4630540    -2.1516360    -0.1717360
  H       -3.6932210     0.0000030    -0.3831350
units angstrom
no_reorient  #important for SAPT in psi4, default
symmetry c1  #important for SAPT in psi4, default
}

set PROPERTIES_ORIGIN ["COM"]
properties('MP2/aug-cc-pvtz', properties = ['dipole'])
--------------------------------------------------------------------------

    Molecular point group: c1
  Charge       = 0
  Multiplicity = 1
  Basis Set: AUG-CC-PVTZ
    Blend: AUG-CC-PVTZ
  Basis Set: (AUG-CC-PVTZ AUX)
    Blend: AUG-CC-PVTZ-JKFIT

    Orbital Energies [Eh]
    ---------------------

    Doubly Occupied:

       1A    -11.243632     2A    -11.237649     3A    -11.236459
       4A    -11.236088     5A    -11.234045     6A    -11.231979
       7A    -11.230573     8A    -11.227097     9A    -11.226438
      10A     -1.164342    11A     -1.128124    12A     -1.012531
      13A     -1.008691    14A     -0.856068    15A     -0.834248
      16A     -0.808937    17A     -0.772227    18A     -0.697858
      19A     -0.664990    20A     -0.635149    21A     -0.618364
      22A     -0.606531    23A     -0.579399    24A     -0.542374
      25A     -0.514843    26A     -0.499649    27A     -0.488104
      28A     -0.484656    29A     -0.427375    30A     -0.415506
      31A     -0.333925    32A     -0.323027

  @DF-RHF Final Energy:  -346.70770811410262

   => Energetics <=

    Nuclear Repulsion Energy =            402.7031031977786029
    One-Electron Energy =               -1265.7798700911805554
    Two-Electron Energy =                 516.3690587792993938
    Total Energy =                       -346.7077081141026156
  Basis Set: (AUG-CC-PVTZ AUX)
    Blend: AUG-CC-PVTZ-RI
    Molecular point group: c1

    Geometry (in Angstrom), charge = 0, multiplicity = 1:

       Center              X                  Y                   Z               Mass
    ------------   -----------------  -----------------  -----------------  -----------------
         C            1.654233873363    -0.000000984557     0.535487958817    12.000000000000
         C            2.597927873363    -0.752248984557    -0.366357041183    12.000000000000
         C            2.597928873363     0.752250015443    -0.366353041183    12.000000000000
         C            0.187786873363    -0.000000984557     0.254255958817    12.000000000000
         C           -0.515103126637     1.206154015443     0.132303958817    12.000000000000
         C           -0.551650426637    -1.206154884557     0.328937758817    12.000000000000
         C           -1.890942126637     1.207879015443    -0.103342041183    12.000000000000
         C           -1.890944126637    -1.207877984557    -0.103343041183    12.000000000000
         C           -2.582315126637     0.000001015443    -0.222671041183    12.000000000000
         H            1.918453873363    -0.000004984557     1.592556958817     1.007825032230
         H            2.165690873363    -1.253187984557    -1.226802041183     1.007825032230
         H            3.439865873363    -1.270084984557     0.081892958817     1.007825032230
         H            3.439871873363     1.270079015443     0.081896958817     1.007825032230
         H            2.165693873363     1.253194015443    -1.226797041183     1.007825032230
         H            0.025472873363     2.146617015443     0.222515958817     1.007825032230
         H            0.025468873363    -2.146618984557     0.222516958817     1.007825032230
         H           -2.423347126637     2.151637015443    -0.198376041183     1.007825032230
         H           -2.423349126637    -2.151635984557    -0.198377041183     1.007825032230
         H           -3.653516126637     0.000003015443    -0.409776041183     1.007825032230

  Basis Set: AUG-CC-PVTZ
    Blend: AUG-CC-PVTZ
  Basis Set: (AUG-CC-PVTZ AUX)
    Blend: AUG-CC-PVTZ-JKFIT
	 Reference Energy          =    -346.7077081141026156 [Eh]
	 Singles Energy            =      -0.0000000000000000 [Eh]
	 Same-Spin Energy          =      -0.3881840095612378 [Eh]
	 Opposite-Spin Energy      =      -1.2570235862586800 [Eh]
	 Correlation Energy        =      -1.6452075958199179 [Eh]
	 Total Energy              =    -348.3529157099225131 [Eh]

	 ================> DF-SCS-MP2 Energies <==================
	-----------------------------------------------------------
	 SCS Same-Spin Scale       =       0.3333333333333333 [-]
	 SCS Opposite-Spin Scale   =       1.2000000000000000 [-]
	 SCS Same-Spin Energy      =      -0.1293946698537459 [Eh]
	 SCS Opposite-Spin Energy  =      -1.5084283035104160 [Eh]
	 SCS Correlation Energy    =      -1.6378229733641620 [Eh]
	 SCS Total Energy          =    -348.3455310874667816 [Eh]
	-----------------------------------------------------------

  Dipole Moment: [D]
     X:     0.2627      Y:     0.0791      Z:    -0.0501     Total:     0.2789

*** Psi4 exiting successfully. Buy a developer a beer!
