                               Psi4 1.4a2.dev612

  ==> Input File <==

--------------------------------------------------------------------------
#psi4
#
memory 32 gb

molecule  {
0 1
  O        1.0830410    -1.2590340     0.2697030
  O       -3.0460190    -0.6564700     0.3579990
  O       -1.7208190     1.1319200     0.8547670
  N        0.1334480     0.3363350    -1.0591540
  C        2.4359514     0.6691278    -0.3012199
  C        1.1530800    -0.1541890    -0.2667860
  C       -1.1420340    -0.3248900    -0.9988550
  C        3.4883670     0.0910310     0.6318210
  C       -1.9580260     0.1406600     0.1881420
  H        2.7160870     0.9611190    -1.1975940
  H        2.0743670     1.6930220     0.2624750
  H       -0.9793980    -1.4015010    -0.9274340
  H       -1.7176060    -0.1322810    -1.9133280
  H        0.1138710     1.3396710    -1.2046940
  H        3.7876720    -0.8582410     0.1862610
  H        4.3593370     0.7487140     0.6762100
  H        3.1503700    -0.1123850     1.6481590
  H       -3.5474700    -0.2792990     1.1088070
units angstrom
no_reorient  #important for SAPT in psi4, default
symmetry c1  #important for SAPT in psi4, default
}

set PROPERTIES_ORIGIN ["COM"]
properties('MP2/aug-cc-pvtz', properties = ['dipole'])
--------------------------------------------------------------------------

    Molecular point group: c1
  Charge       = 0
  Multiplicity = 1
  Basis Set: AUG-CC-PVTZ
    Blend: AUG-CC-PVTZ
  Basis Set: (AUG-CC-PVTZ AUX)
    Blend: AUG-CC-PVTZ-JKFIT

    Orbital Energies [Eh]
    ---------------------

    Doubly Occupied:

       1A    -20.625239     2A    -20.562610     3A    -20.529415
       4A    -15.593221     5A    -11.398662     6A    -11.357834
       7A    -11.290835     8A    -11.247177     9A    -11.218083
      10A     -1.468261    11A     -1.385270    12A     -1.368316
      13A     -1.242063    14A     -1.064083    15A     -1.006440
      16A     -0.890582    17A     -0.826354    18A     -0.786514
      19A     -0.719772    20A     -0.715537    21A     -0.700902
      22A     -0.653957    23A     -0.646577    24A     -0.628030
      25A     -0.607206    26A     -0.597473    27A     -0.560448
      28A     -0.543526    29A     -0.536054    30A     -0.522144
      31A     -0.492446    32A     -0.473017    33A     -0.466556
      34A     -0.431140    35A     -0.411699

  @DF-RHF Final Energy:  -473.81577538299058

   => Energetics <=

    Nuclear Repulsion Energy =            457.6770006111211160
    One-Electron Energy =               -1555.8506635508640557
    Two-Electron Energy =                 624.3578875567521891
    Total Energy =                       -473.8157753829906369
  Basis Set: (AUG-CC-PVTZ AUX)
    Blend: AUG-CC-PVTZ-RI
    Molecular point group: c1

    Geometry (in Angstrom), charge = 0, multiplicity = 1:

       Center              X                  Y                   Z               Mass
    ------------   -----------------  -----------------  -----------------  -----------------
         O            1.077624551881    -1.253016745067     0.280797384273    15.994914619570
         O           -3.051435448119    -0.650452745067     0.369093384273    15.994914619570
         O           -1.726235448119     1.137937254933     0.865861384273    15.994914619570
         N            0.128031551881     0.342352254933    -1.048059615727    14.003074004430
         C            2.430534951881     0.675145054933    -0.290125515727    12.000000000000
         C            1.147663551881    -0.148171745067    -0.255691615727    12.000000000000
         C           -1.147450448119    -0.318872745067    -0.987760615727    12.000000000000
         C            3.482950551881     0.097048254933     0.642915384273    12.000000000000
         C           -1.963442448119     0.146677254933     0.199236384273    12.000000000000
         H            2.710670551881     0.967136254933    -1.186499615727     1.007825032230
         H            2.068950551881     1.699039254933     0.273569384273     1.007825032230
         H           -0.984814448119    -1.395483745067    -0.916339615727     1.007825032230
         H           -1.723022448119    -0.126263745067    -1.902233615727     1.007825032230
         H            0.108454551881     1.345688254933    -1.193599615727     1.007825032230
         H            3.782255551881    -0.852223745067     0.197355384273     1.007825032230
         H            4.353920551881     0.754731254933     0.687304384273     1.007825032230
         H            3.144953551881    -0.106367745067     1.659253384273     1.007825032230
         H           -3.552886448119    -0.273281745067     1.119901384273     1.007825032230

  Basis Set: AUG-CC-PVTZ
    Blend: AUG-CC-PVTZ
  Basis Set: (AUG-CC-PVTZ AUX)
    Blend: AUG-CC-PVTZ-JKFIT
	 Reference Energy          =    -473.8157753829905801 [Eh]
	 Singles Energy            =      -0.0000000000000000 [Eh]
	 Same-Spin Energy          =      -0.4671211896990879 [Eh]
	 Opposite-Spin Energy      =      -1.4589783467780599 [Eh]
	 Correlation Energy        =      -1.9260995364771478 [Eh]
	 Total Energy              =    -475.7418749194677048 [Eh]

	 ================> DF-SCS-MP2 Energies <==================
	-----------------------------------------------------------
	 SCS Same-Spin Scale       =       0.3333333333333333 [-]
	 SCS Opposite-Spin Scale   =       1.2000000000000000 [-]
	 SCS Same-Spin Energy      =      -0.1557070632330293 [Eh]
	 SCS Opposite-Spin Energy  =      -1.7507740161336718 [Eh]
	 SCS Correlation Energy    =      -1.9064810793667011 [Eh]
	 SCS Total Energy          =    -475.7222564623572794 [Eh]
	-----------------------------------------------------------

  Dipole Moment: [D]
     X:    -0.9142      Y:     1.8052      Z:    -1.8023     Total:     2.7097

*** Psi4 exiting successfully. Buy a developer a beer!
