                               Psi4 1.4a2.dev612

  ==> Input File <==

--------------------------------------------------------------------------
#psi4
#
memory 32 gb

molecule  {
0 1
  O        1.0830410    -1.2590340     0.2697030
  O       -3.0460190    -0.6564700     0.3579990
  O       -1.7208190     1.1319200     0.8547670
  N        0.1334480     0.3363350    -1.0591540
  C        2.3767950     0.7348440    -0.1800510
  C        1.1530800    -0.1541890    -0.2667860
  C       -1.1420340    -0.3248900    -0.9988550
  C        3.4883670     0.0910310     0.6318210
  C       -1.9580260     0.1406600     0.1881420
  H        2.7160870     0.9611190    -1.1975940
  H        2.0743670     1.6930220     0.2624750
  H       -0.9793980    -1.4015010    -0.9274340
  H       -1.7176060    -0.1322810    -1.9133280
  H        0.1755769     1.2711668    -1.3821751
  H        3.7876720    -0.8582410     0.1862610
  H        4.3593370     0.7487140     0.6762100
  H        3.1503700    -0.1123850     1.6481590
  H       -3.5474700    -0.2792990     1.1088070
units angstrom
no_reorient  #important for SAPT in psi4, default
symmetry c1  #important for SAPT in psi4, default
}

set PROPERTIES_ORIGIN ["COM"]
properties('MP2/aug-cc-pvtz', properties = ['dipole'])
--------------------------------------------------------------------------

    Molecular point group: c1
  Charge       = 0
  Multiplicity = 1
  Basis Set: AUG-CC-PVTZ
    Blend: AUG-CC-PVTZ
  Basis Set: (AUG-CC-PVTZ AUX)
    Blend: AUG-CC-PVTZ-JKFIT

    Orbital Energies [Eh]
    ---------------------

    Doubly Occupied:

       1A    -20.624351     2A    -20.560815     3A    -20.527167
       4A    -15.591158     5A    -11.397249     6A    -11.356203
       7A    -11.291621     8A    -11.243913     9A    -11.216189
      10A     -1.467025    11A     -1.383773    12A     -1.366635
      13A     -1.242806    14A     -1.063127    15A     -1.006588
      16A     -0.890037    17A     -0.824080    18A     -0.793388
      19A     -0.715441    20A     -0.710836    21A     -0.698276
      22A     -0.653097    23A     -0.644463    24A     -0.636274
      25A     -0.602362    26A     -0.601738    27A     -0.561015
      28A     -0.540508    29A     -0.524775    30A     -0.517185
      31A     -0.494791    32A     -0.489944    33A     -0.467267
      34A     -0.432275    35A     -0.407766

  @DF-RHF Final Energy:  -473.83951642365741

   => Energetics <=

    Nuclear Repulsion Energy =            457.9372791385899291
    One-Electron Energy =               -1556.4653106461857988
    Two-Electron Energy =                 624.6885150839384551
    Total Energy =                       -473.8395164236574146
  Basis Set: (AUG-CC-PVTZ AUX)
    Blend: AUG-CC-PVTZ-RI
    Molecular point group: c1

    Geometry (in Angstrom), charge = 0, multiplicity = 1:

       Center              X                  Y                   Z               Mass
    ------------   -----------------  -----------------  -----------------  -----------------
         O            1.082566538236    -1.258507083828     0.271067687964    15.994914619570
         O           -3.046493461764    -0.655943083828     0.359363687964    15.994914619570
         O           -1.721293461764     1.132446916172     0.856131687964    15.994914619570
         N            0.132973538236     0.336861916172    -1.057789312036    14.003074004430
         C            2.376320538236     0.735370916172    -0.178686312036    12.000000000000
         C            1.152605538236    -0.153662083828    -0.265421312036    12.000000000000
         C           -1.142508461764    -0.324363083828    -0.997490312036    12.000000000000
         C            3.487892538236     0.091557916172     0.633185687964    12.000000000000
         C           -1.958500461764     0.141186916172     0.189506687964    12.000000000000
         H            2.715612538236     0.961645916172    -1.196229312036     1.007825032230
         H            2.073892538236     1.693548916172     0.263839687964     1.007825032230
         H           -0.979872461764    -1.400974083828    -0.926069312036     1.007825032230
         H           -1.718080461764    -0.131754083828    -1.911963312036     1.007825032230
         H            0.175102438236     1.271693716172    -1.380810412036     1.007825032230
         H            3.787197538236    -0.857714083828     0.187625687964     1.007825032230
         H            4.358862538236     0.749240916172     0.677574687964     1.007825032230
         H            3.149895538236    -0.111858083828     1.649523687964     1.007825032230
         H           -3.547944461764    -0.278772083828     1.110171687964     1.007825032230

  Basis Set: AUG-CC-PVTZ
    Blend: AUG-CC-PVTZ
  Basis Set: (AUG-CC-PVTZ AUX)
    Blend: AUG-CC-PVTZ-JKFIT
	 Reference Energy          =    -473.8395164236574146 [Eh]
	 Singles Energy            =      -0.0000000000000000 [Eh]
	 Same-Spin Energy          =      -0.4666536159904936 [Eh]
	 Opposite-Spin Energy      =      -1.4573607229176426 [Eh]
	 Correlation Energy        =      -1.9240143389081363 [Eh]
	 Total Energy              =    -475.7635307625655514 [Eh]

	 ================> DF-SCS-MP2 Energies <==================
	-----------------------------------------------------------
	 SCS Same-Spin Scale       =       0.3333333333333333 [-]
	 SCS Opposite-Spin Scale   =       1.2000000000000000 [-]
	 SCS Same-Spin Energy      =      -0.1555512053301645 [Eh]
	 SCS Opposite-Spin Energy  =      -1.7488328675011711 [Eh]
	 SCS Correlation Energy    =      -1.9043840728313355 [Eh]
	 SCS Total Energy          =    -475.7439004964887772 [Eh]
	-----------------------------------------------------------

  Dipole Moment: [D]
     X:    -0.8795      Y:     1.8708      Z:    -2.0284     Total:     2.8962

*** Psi4 exiting successfully. Buy a developer a beer!
