                               Psi4 1.4a2.dev612

  ==> Input File <==

--------------------------------------------------------------------------
#psi4
#
memory 32 gb

molecule  {
0 1
  O        1.0830410    -1.2590340     0.2697030
  O       -3.0460190    -0.6564700     0.3579990
  O       -1.7208190     1.1319200     0.8547670
  N        0.1334480     0.3363350    -1.0591540
  C        2.3767950     0.7348440    -0.1800510
  C        1.1530800    -0.1541890    -0.2667860
  C       -1.1690272    -0.2963068    -1.0297478
  C        3.4883670     0.0910310     0.6318210
  C       -1.9580260     0.1406600     0.1881420
  H        2.7160870     0.9611190    -1.1975940
  H        2.0743670     1.6930220     0.2624750
  H       -0.9793980    -1.4015010    -0.9274340
  H       -1.7176060    -0.1322810    -1.9133280
  H        0.1138710     1.3396710    -1.2046940
  H        3.7876720    -0.8582410     0.1862610
  H        4.3593370     0.7487140     0.6762100
  H        3.1503700    -0.1123850     1.6481590
  H       -3.5474700    -0.2792990     1.1088070
units angstrom
no_reorient  #important for SAPT in psi4, default
symmetry c1  #important for SAPT in psi4, default
}

set PROPERTIES_ORIGIN ["COM"]
properties('MP2/aug-cc-pvtz', properties = ['dipole'])
--------------------------------------------------------------------------

    Molecular point group: c1
  Charge       = 0
  Multiplicity = 1
  Basis Set: AUG-CC-PVTZ
    Blend: AUG-CC-PVTZ
  Basis Set: (AUG-CC-PVTZ AUX)
    Blend: AUG-CC-PVTZ-JKFIT

    Orbital Energies [Eh]
    ---------------------

    Doubly Occupied:

       1A    -20.625766     2A    -20.563229     3A    -20.528396
       4A    -15.592504     5A    -11.399520     6A    -11.356489
       7A    -11.290842     8A    -11.244302     9A    -11.216440
      10A     -1.468750    11A     -1.383884    12A     -1.368795
      13A     -1.239146    14A     -1.063324    15A     -1.007044
      16A     -0.889351    17A     -0.826270    18A     -0.782416
      19A     -0.716546    20A     -0.711368    21A     -0.702438
      22A     -0.655820    23A     -0.639722    24A     -0.637362
      25A     -0.603751    26A     -0.601768    27A     -0.554595
      28A     -0.541147    29A     -0.526307    30A     -0.517341
      31A     -0.495665    32A     -0.491534    33A     -0.468920
      34A     -0.433702    35A     -0.409867

  @DF-RHF Final Energy:  -473.83668305872874

   => Energetics <=

    Nuclear Repulsion Energy =            457.6012951017721093
    One-Electron Energy =               -1555.7673148748690437
    Two-Electron Energy =                 624.3293367143681962
    Total Energy =                       -473.8366830587286813
  Basis Set: (AUG-CC-PVTZ AUX)
    Blend: AUG-CC-PVTZ-RI
    Molecular point group: c1

    Geometry (in Angstrom), charge = 0, multiplicity = 1:

       Center              X                  Y                   Z               Mass
    ------------   -----------------  -----------------  -----------------  -----------------
         O            1.085512611229    -1.261651019209     0.272531492911    15.994914619570
         O           -3.043547388771    -0.659087019209     0.360827492911    15.994914619570
         O           -1.718347388771     1.129302980791     0.857595492911    15.994914619570
         N            0.135919611229     0.333717980791    -1.056325507089    14.003074004430
         C            2.379266611229     0.732226980791    -0.177222507089    12.000000000000
         C            1.155551611229    -0.156806019209    -0.263957507089    12.000000000000
         C           -1.166555588771    -0.298923819209    -1.026919307089    12.000000000000
         C            3.490838611229     0.088413980791     0.634649492911    12.000000000000
         C           -1.955554388771     0.138042980791     0.190970492911    12.000000000000
         H            2.718558611229     0.958501980791    -1.194765507089     1.007825032230
         H            2.076838611229     1.690404980791     0.265303492911     1.007825032230
         H           -0.976926388771    -1.404118019209    -0.924605507089     1.007825032230
         H           -1.715134388771    -0.134898019209    -1.910499507089     1.007825032230
         H            0.116342611229     1.337053980791    -1.201865507089     1.007825032230
         H            3.790143611229    -0.860858019209     0.189089492911     1.007825032230
         H            4.361808611229     0.746096980791     0.679038492911     1.007825032230
         H            3.152841611229    -0.115002019209     1.650987492911     1.007825032230
         H           -3.544998388771    -0.281916019209     1.111635492911     1.007825032230

  Basis Set: AUG-CC-PVTZ
    Blend: AUG-CC-PVTZ
  Basis Set: (AUG-CC-PVTZ AUX)
    Blend: AUG-CC-PVTZ-JKFIT
	 Reference Energy          =    -473.8366830587287382 [Eh]
	 Singles Energy            =      -0.0000000000000000 [Eh]
	 Same-Spin Energy          =      -0.4667939004423830 [Eh]
	 Opposite-Spin Energy      =      -1.4580618043192468 [Eh]
	 Correlation Energy        =      -1.9248557047616299 [Eh]
	 Total Energy              =    -475.7615387634903641 [Eh]

	 ================> DF-SCS-MP2 Energies <==================
	-----------------------------------------------------------
	 SCS Same-Spin Scale       =       0.3333333333333333 [-]
	 SCS Opposite-Spin Scale   =       1.2000000000000000 [-]
	 SCS Same-Spin Energy      =      -0.1555979668141277 [Eh]
	 SCS Opposite-Spin Energy  =      -1.7496741651830960 [Eh]
	 SCS Correlation Energy    =      -1.9052721319972237 [Eh]
	 SCS Total Energy          =    -475.7419551907259461 [Eh]
	-----------------------------------------------------------

  Dipole Moment: [D]
     X:    -0.9901      Y:     1.8945      Z:    -1.7599     Total:     2.7689

*** Psi4 exiting successfully. Buy a developer a beer!
