                               Psi4 1.4a2.dev612

  ==> Input File <==

--------------------------------------------------------------------------
#psi4
#
memory 32 gb

molecule  {
0 1
  O        1.0830410    -1.2590340     0.2697030
  O       -3.0460190    -0.6564700     0.3579990
  O       -1.7208190     1.1319200     0.8547670
  N        0.1334480     0.3363350    -1.0591540
  C        2.3767950     0.7348440    -0.1800510
  C        1.1530800    -0.1541890    -0.2667860
  C       -1.1960204    -0.2677235    -1.0606406
  C        3.4883670     0.0910310     0.6318210
  C       -1.9580260     0.1406600     0.1881420
  H        2.7160870     0.9611190    -1.1975940
  H        2.0743670     1.6930220     0.2624750
  H       -0.9793980    -1.4015010    -0.9274340
  H       -1.7176060    -0.1322810    -1.9133280
  H        0.1138710     1.3396710    -1.2046940
  H        3.7876720    -0.8582410     0.1862610
  H        4.3593370     0.7487140     0.6762100
  H        3.1503700    -0.1123850     1.6481590
  H       -3.5474700    -0.2792990     1.1088070
units angstrom
no_reorient  #important for SAPT in psi4, default
symmetry c1  #important for SAPT in psi4, default
}

set PROPERTIES_ORIGIN ["COM"]
properties('MP2/aug-cc-pvtz', properties = ['dipole'])
--------------------------------------------------------------------------

    Molecular point group: c1
  Charge       = 0
  Multiplicity = 1
  Basis Set: AUG-CC-PVTZ
    Blend: AUG-CC-PVTZ
  Basis Set: (AUG-CC-PVTZ AUX)
    Blend: AUG-CC-PVTZ-JKFIT

    Orbital Energies [Eh]
    ---------------------

    Doubly Occupied:

       1A    -20.626021     2A    -20.563567     3A    -20.528107
       4A    -15.592407     5A    -11.400490     6A    -11.356980
       7A    -11.291386     8A    -11.244418     9A    -11.216431
      10A     -1.468965    11A     -1.383041    12A     -1.369026
      13A     -1.236290    14A     -1.063222    15A     -1.008238
      16A     -0.888948    17A     -0.828692    18A     -0.779413
      19A     -0.717967    20A     -0.709661    21A     -0.706966
      22A     -0.658682    23A     -0.637664    24A     -0.636245
      25A     -0.606079    26A     -0.601618    27A     -0.547592
      28A     -0.541032    29A     -0.526662    30A     -0.517283
      31A     -0.495809    32A     -0.491319    33A     -0.468281
      34A     -0.433405    35A     -0.409375

  @DF-RHF Final Energy:  -473.82741681010623

   => Energetics <=

    Nuclear Repulsion Energy =            457.1507137999109887
    One-Electron Energy =               -1554.8536998666131694
    Two-Electron Energy =                 623.8755692565958952
    Total Energy =                       -473.8274168101062287
  Basis Set: (AUG-CC-PVTZ AUX)
    Blend: AUG-CC-PVTZ-RI
    Molecular point group: c1

    Geometry (in Angstrom), charge = 0, multiplicity = 1:

       Center              X                  Y                   Z               Mass
    ------------   -----------------  -----------------  -----------------  -----------------
         O            1.087984171905    -1.264268173169     0.275360110105    15.994914619570
         O           -3.041075828095    -0.661704173169     0.363656110105    15.994914619570
         O           -1.715875828095     1.126685826831     0.860424110105    15.994914619570
         N            0.138391171905     0.331100826831    -1.053496889895    14.003074004430
         C            2.381738171905     0.729609826831    -0.174393889895    12.000000000000
         C            1.158023171905    -0.159423173169    -0.261128889895    12.000000000000
         C           -1.191077228095    -0.272957673169    -1.054983489895    12.000000000000
         C            3.493310171905     0.085796826831     0.637478110105    12.000000000000
         C           -1.953082828095     0.135425826831     0.193799110105    12.000000000000
         H            2.721030171905     0.955884826831    -1.191936889895     1.007825032230
         H            2.079310171905     1.687787826831     0.268132110105     1.007825032230
         H           -0.974454828095    -1.406735173169    -0.921776889895     1.007825032230
         H           -1.712662828095    -0.137515173169    -1.907670889895     1.007825032230
         H            0.118814171905     1.334436826831    -1.199036889895     1.007825032230
         H            3.792615171905    -0.863475173169     0.191918110105     1.007825032230
         H            4.364280171905     0.743479826831     0.681867110105     1.007825032230
         H            3.155313171905    -0.117619173169     1.653816110105     1.007825032230
         H           -3.542526828095    -0.284533173169     1.114464110105     1.007825032230

  Basis Set: AUG-CC-PVTZ
    Blend: AUG-CC-PVTZ
  Basis Set: (AUG-CC-PVTZ AUX)
    Blend: AUG-CC-PVTZ-JKFIT
	 Reference Energy          =    -473.8274168101062287 [Eh]
	 Singles Energy            =      -0.0000000000000000 [Eh]
	 Same-Spin Energy          =      -0.4669605783624618 [Eh]
	 Opposite-Spin Energy      =      -1.4587155997826038 [Eh]
	 Correlation Energy        =      -1.9256761781450655 [Eh]
	 Total Energy              =    -475.7530929882512964 [Eh]

	 ================> DF-SCS-MP2 Energies <==================
	-----------------------------------------------------------
	 SCS Same-Spin Scale       =       0.3333333333333333 [-]
	 SCS Opposite-Spin Scale   =       1.2000000000000000 [-]
	 SCS Same-Spin Energy      =      -0.1556535261208206 [Eh]
	 SCS Opposite-Spin Energy  =      -1.7504587197391246 [Eh]
	 SCS Correlation Energy    =      -1.9061122458599451 [Eh]
	 SCS Total Energy          =    -475.7335290559661871 [Eh]
	-----------------------------------------------------------

  Dipole Moment: [D]
     X:    -1.0231      Y:     1.9146      Z:    -1.7672     Total:     2.7992

*** Psi4 exiting successfully. Buy a developer a beer!
