                               Psi4 1.4a2.dev612

  ==> Input File <==

--------------------------------------------------------------------------
#psi4
#
memory 32 gb

molecule  {
0 1
  O        1.0830410    -1.2590340     0.2697030
  O       -3.0460190    -0.6564700     0.3579990
  O       -1.7208190     1.1319200     0.8547670
  N        0.1334480     0.3363350    -1.0591540
  C        2.4162326     0.6910332    -0.2608303
  C        1.1530800    -0.1541890    -0.2667860
  C       -1.1420340    -0.3248900    -0.9988550
  C        3.4883670     0.0910310     0.6318210
  C       -1.9580260     0.1406600     0.1881420
  H        2.7160870     0.9611190    -1.1975940
  H        2.0743670     1.6930220     0.2624750
  H       -0.9793980    -1.4015010    -0.9274340
  H       -1.7176060    -0.1322810    -1.9133280
  H        0.1138710     1.3396710    -1.2046940
  H        3.7876720    -0.8582410     0.1862610
  H        4.3593370     0.7487140     0.6762100
  H        3.1503700    -0.1123850     1.6481590
  H       -3.5474700    -0.2792990     1.1088070
units angstrom
no_reorient  #important for SAPT in psi4, default
symmetry c1  #important for SAPT in psi4, default
}

set PROPERTIES_ORIGIN ["COM"]
properties('MP2/aug-cc-pvtz', properties = ['dipole'])
--------------------------------------------------------------------------

    Molecular point group: c1
  Charge       = 0
  Multiplicity = 1
  Basis Set: AUG-CC-PVTZ
    Blend: AUG-CC-PVTZ
  Basis Set: (AUG-CC-PVTZ AUX)
    Blend: AUG-CC-PVTZ-JKFIT

    Orbital Energies [Eh]
    ---------------------

    Doubly Occupied:

       1A    -20.625329     2A    -20.562726     3A    -20.529085
       4A    -15.593105     5A    -11.398776     6A    -11.356847
       7A    -11.290862     8A    -11.245589     9A    -11.217122
      10A     -1.468358    11A     -1.385058    12A     -1.368414
      13A     -1.241992    14A     -1.063845    15A     -1.006331
      16A     -0.890003    17A     -0.825364    18A     -0.785967
      19A     -0.716699    20A     -0.715400    21A     -0.699450
      22A     -0.653799    23A     -0.645897    24A     -0.631713
      25A     -0.606240    26A     -0.598225    27A     -0.560014
      28A     -0.540609    29A     -0.530927    30A     -0.522952
      31A     -0.492697    32A     -0.480880    33A     -0.468551
      34A     -0.432601    35A     -0.411210

  @DF-RHF Final Energy:  -473.82894963267523

   => Energetics <=

    Nuclear Repulsion Energy =            457.8229016061559378
    One-Electron Energy =               -1556.1784307306033952
    Two-Electron Energy =                 624.5265794917721678
    Total Energy =                       -473.8289496326752896
  Basis Set: (AUG-CC-PVTZ AUX)
    Blend: AUG-CC-PVTZ-RI
    Molecular point group: c1

    Geometry (in Angstrom), charge = 0, multiplicity = 1:

       Center              X                  Y                   Z               Mass
    ------------   -----------------  -----------------  -----------------  -----------------
         O            1.079430051439    -1.255022454846     0.277099217806    15.994914619570
         O           -3.049629948561    -0.652458454846     0.365395217806    15.994914619570
         O           -1.724429948561     1.135931545154     0.862163217806    15.994914619570
         N            0.129837051439     0.340346545154    -1.051757782194    14.003074004430
         C            2.412621651439     0.695044745154    -0.253434082194    12.000000000000
         C            1.149469051439    -0.150177454846    -0.259389782194    12.000000000000
         C           -1.145644948561    -0.320878454846    -0.991458782194    12.000000000000
         C            3.484756051439     0.095042545154     0.639217217806    12.000000000000
         C           -1.961636948561     0.144671545154     0.195538217806    12.000000000000
         H            2.712476051439     0.965130545154    -1.190197782194     1.007825032230
         H            2.070756051439     1.697033545154     0.269871217806     1.007825032230
         H           -0.983008948561    -1.397489454846    -0.920037782194     1.007825032230
         H           -1.721216948561    -0.128269454846    -1.905931782194     1.007825032230
         H            0.110260051439     1.343682545154    -1.197297782194     1.007825032230
         H            3.784061051439    -0.854229454846     0.193657217806     1.007825032230
         H            4.355726051439     0.752725545154     0.683606217806     1.007825032230
         H            3.146759051439    -0.108373454846     1.655555217806     1.007825032230
         H           -3.551080948561    -0.275287454846     1.116203217806     1.007825032230

  Basis Set: AUG-CC-PVTZ
    Blend: AUG-CC-PVTZ
  Basis Set: (AUG-CC-PVTZ AUX)
    Blend: AUG-CC-PVTZ-JKFIT
	 Reference Energy          =    -473.8289496326752328 [Eh]
	 Singles Energy            =      -0.0000000000000000 [Eh]
	 Same-Spin Energy          =      -0.4669272290755308 [Eh]
	 Opposite-Spin Energy      =      -1.4583095724245887 [Eh]
	 Correlation Energy        =      -1.9252368015001196 [Eh]
	 Total Energy              =    -475.7541864341753808 [Eh]

	 ================> DF-SCS-MP2 Energies <==================
	-----------------------------------------------------------
	 SCS Same-Spin Scale       =       0.3333333333333333 [-]
	 SCS Opposite-Spin Scale   =       1.2000000000000000 [-]
	 SCS Same-Spin Energy      =      -0.1556424096918436 [Eh]
	 SCS Opposite-Spin Energy  =      -1.7499714869095064 [Eh]
	 SCS Correlation Energy    =      -1.9056138966013501 [Eh]
	 SCS Total Energy          =    -475.7345635292765564 [Eh]
	-----------------------------------------------------------

  Dipole Moment: [D]
     X:    -0.9272      Y:     1.8361      Z:    -1.7878     Total:     2.7253

*** Psi4 exiting successfully. Buy a developer a beer!
