                               Psi4 1.4a2.dev612

  ==> Input File <==

--------------------------------------------------------------------------
#psi4
#
memory 32 gb

molecule  {
0 1
  O        1.0830410    -1.2590340     0.2697030
  O       -3.0460190    -0.6564700     0.3579990
  O       -1.7208190     1.1319200     0.8547670
  N        0.1334480     0.3363350    -1.0591540
  C        2.3767950     0.7348440    -0.1800510
  C        1.1530800    -0.1541890    -0.2667860
  C       -1.1420340    -0.3248900    -0.9988550
  C        3.4883670     0.0910310     0.6318210
  C       -1.9580260     0.1406600     0.1881420
  H        2.7160870     0.9611190    -1.1975940
  H        2.0743670     1.6930220     0.2624750
  H       -0.9793980    -1.4015010    -0.9274340
  H       -1.7176060    -0.1322810    -1.9133280
  H        0.1910034     1.2540408    -1.4265454
  H        3.7876720    -0.8582410     0.1862610
  H        4.3593370     0.7487140     0.6762100
  H        3.1503700    -0.1123850     1.6481590
  H       -3.5474700    -0.2792990     1.1088070
units angstrom
no_reorient  #important for SAPT in psi4, default
symmetry c1  #important for SAPT in psi4, default
}

set PROPERTIES_ORIGIN ["COM"]
properties('MP2/aug-cc-pvtz', properties = ['dipole'])
--------------------------------------------------------------------------

    Molecular point group: c1
  Charge       = 0
  Multiplicity = 1
  Basis Set: AUG-CC-PVTZ
    Blend: AUG-CC-PVTZ
  Basis Set: (AUG-CC-PVTZ AUX)
    Blend: AUG-CC-PVTZ-JKFIT

    Orbital Energies [Eh]
    ---------------------

    Doubly Occupied:

       1A    -20.624078     2A    -20.560309     3A    -20.526921
       4A    -15.591185     5A    -11.396854     6A    -11.356224
       7A    -11.291717     8A    -11.243812     9A    -11.216104
      10A     -1.466665    11A     -1.383544    12A     -1.366171
      13A     -1.242400    14A     -1.063011    15A     -1.006503
      16A     -0.890017    17A     -0.823864    18A     -0.793776
      19A     -0.715255    20A     -0.710249    21A     -0.698215
      22A     -0.653130    23A     -0.644354    24A     -0.636068
      25A     -0.602704    26A     -0.601241    27A     -0.561194
      28A     -0.540266    29A     -0.524615    30A     -0.517111
      31A     -0.494629    32A     -0.489486    33A     -0.466772
      34A     -0.431921    35A     -0.407200

  @DF-RHF Final Energy:  -473.83915563327344

   => Energetics <=

    Nuclear Repulsion Energy =            457.8847774945535321
    One-Electron Energy =               -1556.3727383641996767
    Two-Electron Energy =                 624.6488052363725956
    Total Energy =                       -473.8391556332734353
  Basis Set: (AUG-CC-PVTZ AUX)
    Blend: AUG-CC-PVTZ-RI
    Molecular point group: c1

    Geometry (in Angstrom), charge = 0, multiplicity = 1:

       Center              X                  Y                   Z               Mass
    ------------   -----------------  -----------------  -----------------  -----------------
         O            1.082447909964    -1.258375386569     0.271408891218    15.994914619570
         O           -3.046612090036    -0.655811386569     0.359704891218    15.994914619570
         O           -1.721412090036     1.132578613431     0.856472891218    15.994914619570
         N            0.132854909964     0.336993613431    -1.057448108782    14.003074004430
         C            2.376201909964     0.735502613431    -0.178345108782    12.000000000000
         C            1.152486909964    -0.153530386569    -0.265080108782    12.000000000000
         C           -1.142627090036    -0.324231386569    -0.997149108782    12.000000000000
         C            3.487773909964     0.091689613431     0.633526891218    12.000000000000
         C           -1.958619090036     0.141318613431     0.189847891218    12.000000000000
         H            2.715493909964     0.961777613431    -1.195888108782     1.007825032230
         H            2.073773909964     1.693680613431     0.264180891218     1.007825032230
         H           -0.979991090036    -1.400842386569    -0.925728108782     1.007825032230
         H           -1.718199090036    -0.131622386569    -1.911622108782     1.007825032230
         H            0.190410309964     1.254699413431    -1.424839508782     1.007825032230
         H            3.787078909964    -0.857582386569     0.187966891218     1.007825032230
         H            4.358743909964     0.749372613431     0.677915891218     1.007825032230
         H            3.149776909964    -0.111726386569     1.649864891218     1.007825032230
         H           -3.548063090036    -0.278640386569     1.110512891218     1.007825032230

  Basis Set: AUG-CC-PVTZ
    Blend: AUG-CC-PVTZ
  Basis Set: (AUG-CC-PVTZ AUX)
    Blend: AUG-CC-PVTZ-JKFIT
	 Reference Energy          =    -473.8391556332734353 [Eh]
	 Singles Energy            =      -0.0000000000000000 [Eh]
	 Same-Spin Energy          =      -0.4666811949056665 [Eh]
	 Opposite-Spin Energy      =      -1.4574006314558270 [Eh]
	 Correlation Energy        =      -1.9240818263614936 [Eh]
	 Total Energy              =    -475.7632374596349223 [Eh]

	 ================> DF-SCS-MP2 Energies <==================
	-----------------------------------------------------------
	 SCS Same-Spin Scale       =       0.3333333333333333 [-]
	 SCS Opposite-Spin Scale   =       1.2000000000000000 [-]
	 SCS Same-Spin Energy      =      -0.1555603983018888 [Eh]
	 SCS Opposite-Spin Energy  =      -1.7488807577469923 [Eh]
	 SCS Correlation Energy    =      -1.9044411560488812 [Eh]
	 SCS Total Energy          =    -475.7435967893223392 [Eh]
	-----------------------------------------------------------

  Dipole Moment: [D]
     X:    -0.8595      Y:     1.8618      Z:    -2.0971     Total:     2.9330

*** Psi4 exiting successfully. Buy a developer a beer!
