                               Psi4 1.4a2.dev612

  ==> Input File <==

--------------------------------------------------------------------------
#psi4
#
memory 32 gb

molecule  {
0 1
  O        1.0830410    -1.2590340     0.2697030
  O       -3.0460190    -0.6564700     0.3579990
  O       -1.7208190     1.1319200     0.8547670
  N        0.1334480     0.3363350    -1.0591540
  C        2.3767950     0.7348440    -0.1800510
  C        1.1530800    -0.1541890    -0.2667860
  C       -1.2230136    -0.2391403    -1.0915334
  C        3.4883670     0.0910310     0.6318210
  C       -1.9580260     0.1406600     0.1881420
  H        2.7160870     0.9611190    -1.1975940
  H        2.0743670     1.6930220     0.2624750
  H       -0.9793980    -1.4015010    -0.9274340
  H       -1.7176060    -0.1322810    -1.9133280
  H        0.1138710     1.3396710    -1.2046940
  H        3.7876720    -0.8582410     0.1862610
  H        4.3593370     0.7487140     0.6762100
  H        3.1503700    -0.1123850     1.6481590
  H       -3.5474700    -0.2792990     1.1088070
units angstrom
no_reorient  #important for SAPT in psi4, default
symmetry c1  #important for SAPT in psi4, default
}

set PROPERTIES_ORIGIN ["COM"]
properties('MP2/aug-cc-pvtz', properties = ['dipole'])
--------------------------------------------------------------------------

    Molecular point group: c1
  Charge       = 0
  Multiplicity = 1
  Basis Set: AUG-CC-PVTZ
    Blend: AUG-CC-PVTZ
  Basis Set: (AUG-CC-PVTZ AUX)
    Blend: AUG-CC-PVTZ-JKFIT

    Orbital Energies [Eh]
    ---------------------

    Doubly Occupied:

       1A    -20.626290     2A    -20.563977     3A    -20.527897
       4A    -15.592532     5A    -11.401914     6A    -11.357558
       7A    -11.292540     8A    -11.244577     9A    -11.216454
      10A     -1.469206    11A     -1.382341    12A     -1.369318
      13A     -1.233339    14A     -1.063197    15A     -1.009789
      16A     -0.888483    17A     -0.832022    18A     -0.776962
      19A     -0.721691    20A     -0.710948    21A     -0.707263
      22A     -0.661046    23A     -0.637938    24A     -0.633970
      25A     -0.609044    26A     -0.600310    27A     -0.543322
      28A     -0.537145    29A     -0.526151    30A     -0.517260
      31A     -0.495930    32A     -0.491106    33A     -0.467330
      34A     -0.433144    35A     -0.408741

  @DF-RHF Final Energy:  -473.81134522917915

   => Energetics <=

    Nuclear Repulsion Energy =            456.6810011282664163
    One-Electron Energy =               -1553.8832294395581357
    Two-Electron Energy =                 623.3908830821125093
    Total Energy =                       -473.8113452291792100
  Basis Set: (AUG-CC-PVTZ AUX)
    Blend: AUG-CC-PVTZ-RI
    Molecular point group: c1

    Geometry (in Angstrom), charge = 0, multiplicity = 1:

       Center              X                  Y                   Z               Mass
    ------------   -----------------  -----------------  -----------------  -----------------
         O            1.090455732580    -1.266885317972     0.278188727299    15.994914619570
         O           -3.038604267420    -0.664321317972     0.366484727299    15.994914619570
         O           -1.713404267420     1.124068682028     0.863252727299    15.994914619570
         N            0.140862732580     0.328483682028    -1.050668272701    14.003074004430
         C            2.384209732580     0.726992682028    -0.171565272701    12.000000000000
         C            1.160494732580    -0.162040317972    -0.258300272701    12.000000000000
         C           -1.215598867420    -0.246991617972    -1.083047672701    12.000000000000
         C            3.495781732580     0.083179682028     0.640306727299    12.000000000000
         C           -1.950611267420     0.132808682028     0.196627727299    12.000000000000
         H            2.723501732580     0.953267682028    -1.189108272701     1.007825032230
         H            2.081781732580     1.685170682028     0.270960727299     1.007825032230
         H           -0.971983267420    -1.409352317972    -0.918948272701     1.007825032230
         H           -1.710191267420    -0.140132317972    -1.904842272701     1.007825032230
         H            0.121285732580     1.331819682028    -1.196208272701     1.007825032230
         H            3.795086732580    -0.866092317972     0.194746727299     1.007825032230
         H            4.366751732580     0.740862682028     0.684695727299     1.007825032230
         H            3.157784732580    -0.120236317972     1.656644727299     1.007825032230
         H           -3.540055267420    -0.287150317972     1.117292727299     1.007825032230

  Basis Set: AUG-CC-PVTZ
    Blend: AUG-CC-PVTZ
  Basis Set: (AUG-CC-PVTZ AUX)
    Blend: AUG-CC-PVTZ-JKFIT
	 Reference Energy          =    -473.8113452291791532 [Eh]
	 Singles Energy            =      -0.0000000000000000 [Eh]
	 Same-Spin Energy          =      -0.4672407261202154 [Eh]
	 Opposite-Spin Energy      =      -1.4596924308102164 [Eh]
	 Correlation Energy        =      -1.9269331569304318 [Eh]
	 Total Energy              =    -475.7382783861095845 [Eh]

	 ================> DF-SCS-MP2 Energies <==================
	-----------------------------------------------------------
	 SCS Same-Spin Scale       =       0.3333333333333333 [-]
	 SCS Opposite-Spin Scale   =       1.2000000000000000 [-]
	 SCS Same-Spin Energy      =      -0.1557469087067385 [Eh]
	 SCS Opposite-Spin Energy  =      -1.7516309169722597 [Eh]
	 SCS Correlation Energy    =      -1.9073778256789982 [Eh]
	 SCS Total Energy          =    -475.7187230548581738 [Eh]
	-----------------------------------------------------------

  Dipole Moment: [D]
     X:    -1.0498      Y:     1.9364      Z:    -1.7682     Total:     2.8246

*** Psi4 exiting successfully. Buy a developer a beer!
