                               Psi4 1.4a2.dev612

  ==> Input File <==

--------------------------------------------------------------------------
#psi4
#
memory 32 gb

molecule  {
0 1
  O        1.0830410    -1.2590340     0.2697030
  O       -3.0460190    -0.6564700     0.3579990
  O       -1.7208190     1.1319200     0.8547670
  N        0.1334480     0.3363350    -1.0591540
  C        2.4556703     0.6472224    -0.3416095
  C        1.1530800    -0.1541890    -0.2667860
  C       -1.1420340    -0.3248900    -0.9988550
  C        3.4883670     0.0910310     0.6318210
  C       -1.9580260     0.1406600     0.1881420
  H        2.7160870     0.9611190    -1.1975940
  H        2.0743670     1.6930220     0.2624750
  H       -0.9793980    -1.4015010    -0.9274340
  H       -1.7176060    -0.1322810    -1.9133280
  H        0.1138710     1.3396710    -1.2046940
  H        3.7876720    -0.8582410     0.1862610
  H        4.3593370     0.7487140     0.6762100
  H        3.1503700    -0.1123850     1.6481590
  H       -3.5474700    -0.2792990     1.1088070
units angstrom
no_reorient  #important for SAPT in psi4, default
symmetry c1  #important for SAPT in psi4, default
}

set PROPERTIES_ORIGIN ["COM"]
properties('MP2/aug-cc-pvtz', properties = ['dipole'])
--------------------------------------------------------------------------

    Molecular point group: c1
  Charge       = 0
  Multiplicity = 1
  Basis Set: AUG-CC-PVTZ
    Blend: AUG-CC-PVTZ
  Basis Set: (AUG-CC-PVTZ AUX)
    Blend: AUG-CC-PVTZ-JKFIT

    Orbital Energies [Eh]
    ---------------------

    Doubly Occupied:

       1A    -20.625149     2A    -20.562492     3A    -20.529857
       4A    -15.593328     5A    -11.398544     6A    -11.359213
       7A    -11.290813     8A    -11.249370     9A    -11.219456
      10A     -1.468165    11A     -1.385562    12A     -1.368220
      13A     -1.242146    14A     -1.064373    15A     -1.006555
      16A     -0.891531    17A     -0.827817    18A     -0.787330
      19A     -0.724036    20A     -0.715452    21A     -0.702179
      22A     -0.653994    23A     -0.647071    24A     -0.624297
      25A     -0.608177    26A     -0.596662    27A     -0.561296
      28A     -0.548792    29A     -0.538864    30A     -0.520405
      31A     -0.492250    32A     -0.470271    33A     -0.459677
      34A     -0.428797    35A     -0.412159

  @DF-RHF Final Energy:  -473.79739841094278

   => Energetics <=

    Nuclear Repulsion Energy =            457.5030288714962694
    One-Electron Energy =               -1555.4522562057836694
    Two-Electron Energy =                 624.1518289233446239
    Total Energy =                       -473.7973984109427192
  Basis Set: (AUG-CC-PVTZ AUX)
    Blend: AUG-CC-PVTZ-RI
    Molecular point group: c1

    Geometry (in Angstrom), charge = 0, multiplicity = 1:

       Center              X                  Y                   Z               Mass
    ------------   -----------------  -----------------  -----------------  -----------------
         O            1.075819043168    -1.251011035287     0.284495550739    15.994914619570
         O           -3.053240956832    -0.648447035287     0.372791550739    15.994914619570
         O           -1.728040956832     1.139942964713     0.869559550739    15.994914619570
         N            0.126226043168     0.344357964713    -1.044361449261    14.003074004430
         C            2.448448343168     0.655245364713    -0.326816949261    12.000000000000
         C            1.145858043168    -0.146166035287    -0.251993449261    12.000000000000
         C           -1.149255956832    -0.316867035287    -0.984062449261    12.000000000000
         C            3.481145043168     0.099053964713     0.646613550739    12.000000000000
         C           -1.965247956832     0.148682964713     0.202934550739    12.000000000000
         H            2.708865043168     0.969141964713    -1.182801449261     1.007825032230
         H            2.067145043168     1.701044964713     0.277267550739     1.007825032230
         H           -0.986619956832    -1.393478035287    -0.912641449261     1.007825032230
         H           -1.724827956832    -0.124258035287    -1.898535449261     1.007825032230
         H            0.106649043168     1.347693964713    -1.189901449261     1.007825032230
         H            3.780450043168    -0.850218035287     0.201053550739     1.007825032230
         H            4.352115043168     0.756736964713     0.691002550739     1.007825032230
         H            3.143148043168    -0.104362035287     1.662951550739     1.007825032230
         H           -3.554691956832    -0.271276035287     1.123599550739     1.007825032230

  Basis Set: AUG-CC-PVTZ
    Blend: AUG-CC-PVTZ
  Basis Set: (AUG-CC-PVTZ AUX)
    Blend: AUG-CC-PVTZ-JKFIT
	 Reference Energy          =    -473.7973984109427761 [Eh]
	 Singles Energy            =      -0.0000000000000000 [Eh]
	 Same-Spin Energy          =      -0.4673831041950074 [Eh]
	 Opposite-Spin Energy      =      -1.4599063496594864 [Eh]
	 Correlation Energy        =      -1.9272894538544938 [Eh]
	 Total Energy              =    -475.7246878647972608 [Eh]

	 ================> DF-SCS-MP2 Energies <==================
	-----------------------------------------------------------
	 SCS Same-Spin Scale       =       0.3333333333333333 [-]
	 SCS Opposite-Spin Scale   =       1.2000000000000000 [-]
	 SCS Same-Spin Energy      =      -0.1557943680650025 [Eh]
	 SCS Opposite-Spin Energy  =      -1.7518876195913837 [Eh]
	 SCS Correlation Energy    =      -1.9076819876563862 [Eh]
	 SCS Total Energy          =    -475.7050803985991365 [Eh]
	-----------------------------------------------------------

  Dipole Moment: [D]
     X:    -0.9005      Y:     1.7685      Z:    -1.8125     Total:     2.6877

*** Psi4 exiting successfully. Buy a developer a beer!
