                               Psi4 1.4a2.dev612

  ==> Input File <==

--------------------------------------------------------------------------
#psi4
#
memory 32 gb

molecule  {
0 1
  O        1.0830410    -1.2590340     0.2697030
  O       -3.0460190    -0.6564700     0.3579990
  O       -1.7208190     1.1319200     0.8547670
  N        0.1334480     0.3363350    -1.0591540
  C        2.3965138     0.7129386    -0.2204406
  C        1.1530800    -0.1541890    -0.2667860
  C       -1.1420340    -0.3248900    -0.9988550
  C        3.4883670     0.0910310     0.6318210
  C       -1.9580260     0.1406600     0.1881420
  H        2.7160870     0.9611190    -1.1975940
  H        2.0743670     1.6930220     0.2624750
  H       -0.9793980    -1.4015010    -0.9274340
  H       -1.7176060    -0.1322810    -1.9133280
  H        0.1138710     1.3396710    -1.2046940
  H        3.7876720    -0.8582410     0.1862610
  H        4.3593370     0.7487140     0.6762100
  H        3.1503700    -0.1123850     1.6481590
  H       -3.5474700    -0.2792990     1.1088070
units angstrom
no_reorient  #important for SAPT in psi4, default
symmetry c1  #important for SAPT in psi4, default
}

set PROPERTIES_ORIGIN ["COM"]
properties('MP2/aug-cc-pvtz', properties = ['dipole'])
--------------------------------------------------------------------------

    Molecular point group: c1
  Charge       = 0
  Multiplicity = 1
  Basis Set: AUG-CC-PVTZ
    Blend: AUG-CC-PVTZ
  Basis Set: (AUG-CC-PVTZ AUX)
    Blend: AUG-CC-PVTZ-JKFIT

    Orbital Energies [Eh]
    ---------------------

    Doubly Occupied:

       1A    -20.625422     2A    -20.562841     3A    -20.528872
       4A    -15.592980     5A    -11.398887     6A    -11.356267
       7A    -11.290894     8A    -11.244609     9A    -11.216587
      10A     -1.468455    11A     -1.384931    12A     -1.368514
      13A     -1.241933    14A     -1.063650    15A     -1.006230
      16A     -0.889721    17A     -0.824817    18A     -0.785696
      19A     -0.716057    20A     -0.714027    21A     -0.698358
      22A     -0.653499    23A     -0.645024    24A     -0.634962
      25A     -0.605269    26A     -0.598940    27A     -0.559760
      28A     -0.539926    29A     -0.526606    30A     -0.520857
      31A     -0.493348    32A     -0.488892    33A     -0.469053
      34A     -0.433514    35A     -0.410709

  @DF-RHF Final Energy:  -473.83693560225504

   => Energetics <=

    Nuclear Repulsion Energy =            457.9406421028382397
    One-Electron Energy =               -1556.4349385770115077
    Two-Electron Energy =                 624.6573608719182857
    Total Energy =                       -473.8369356022550392
  Basis Set: (AUG-CC-PVTZ AUX)
    Blend: AUG-CC-PVTZ-RI
    Molecular point group: c1

    Geometry (in Angstrom), charge = 0, multiplicity = 1:

       Center              X                  Y                   Z               Mass
    ------------   -----------------  -----------------  -----------------  -----------------
         O            1.081235550996    -1.257028164626     0.273401042183    15.994914619570
         O           -3.047824449004    -0.654464164626     0.361697042183    15.994914619570
         O           -1.722624449004     1.133925835374     0.858465042183    15.994914619570
         N            0.131642550996     0.338340835374    -1.055455957817    14.003074004430
         C            2.394708350996     0.714944435374    -0.216742557817    12.000000000000
         C            1.151274550996    -0.152183164626    -0.263087957817    12.000000000000
         C           -1.143839449004    -0.322884164626    -0.995156957817    12.000000000000
         C            3.486561550996     0.093036835374     0.635519042183    12.000000000000
         C           -1.959831449004     0.142665835374     0.191840042183    12.000000000000
         H            2.714281550996     0.963124835374    -1.193895957817     1.007825032230
         H            2.072561550996     1.695027835374     0.266173042183     1.007825032230
         H           -0.981203449004    -1.399495164626    -0.923735957817     1.007825032230
         H           -1.719411449004    -0.130275164626    -1.909629957817     1.007825032230
         H            0.112065550996     1.341676835374    -1.200995957817     1.007825032230
         H            3.785866550996    -0.856235164626     0.189959042183     1.007825032230
         H            4.357531550996     0.750719835374     0.679908042183     1.007825032230
         H            3.148564550996    -0.110379164626     1.651857042183     1.007825032230
         H           -3.549275449004    -0.277293164626     1.112505042183     1.007825032230

  Basis Set: AUG-CC-PVTZ
    Blend: AUG-CC-PVTZ
  Basis Set: (AUG-CC-PVTZ AUX)
    Blend: AUG-CC-PVTZ-JKFIT
	 Reference Energy          =    -473.8369356022550392 [Eh]
	 Singles Energy            =      -0.0000000000000000 [Eh]
	 Same-Spin Energy          =      -0.4667997492588676 [Eh]
	 Opposite-Spin Energy      =      -1.4578937305824762 [Eh]
	 Correlation Energy        =      -1.9246934798413438 [Eh]
	 Total Energy              =    -475.7616290820963627 [Eh]

	 ================> DF-SCS-MP2 Energies <==================
	-----------------------------------------------------------
	 SCS Same-Spin Scale       =       0.3333333333333333 [-]
	 SCS Opposite-Spin Scale   =       1.2000000000000000 [-]
	 SCS Same-Spin Energy      =      -0.1555999164196225 [Eh]
	 SCS Opposite-Spin Energy  =      -1.7494724766989713 [Eh]
	 SCS Correlation Energy    =      -1.9050723931185938 [Eh]
	 SCS Total Energy          =    -475.7420079953736263 [Eh]
	-----------------------------------------------------------

  Dipole Moment: [D]
     X:    -0.9392      Y:     1.8601      Z:    -1.7692     Total:     2.7335

*** Psi4 exiting successfully. Buy a developer a beer!
