                               Psi4 1.4a2.dev612

  ==> Input File <==

--------------------------------------------------------------------------
#psi4
#
memory 32 gb

molecule  {
0 1
  O        1.0830410    -1.2590340     0.2697030
  O       -3.0460190    -0.6564700     0.3579990
  O       -1.7208190     1.1319200     0.8547670
  N        0.1334480     0.3363350    -1.0591540
  C        2.3767950     0.7348440    -0.1800510
  C        1.1530800    -0.1541890    -0.2667860
  C       -1.2500068    -0.2105571    -1.1224262
  C        3.4883670     0.0910310     0.6318210
  C       -1.9580260     0.1406600     0.1881420
  H        2.7160870     0.9611190    -1.1975940
  H        2.0743670     1.6930220     0.2624750
  H       -0.9793980    -1.4015010    -0.9274340
  H       -1.7176060    -0.1322810    -1.9133280
  H        0.1138710     1.3396710    -1.2046940
  H        3.7876720    -0.8582410     0.1862610
  H        4.3593370     0.7487140     0.6762100
  H        3.1503700    -0.1123850     1.6481590
  H       -3.5474700    -0.2792990     1.1088070
units angstrom
no_reorient  #important for SAPT in psi4, default
symmetry c1  #important for SAPT in psi4, default
}

set PROPERTIES_ORIGIN ["COM"]
properties('MP2/aug-cc-pvtz', properties = ['dipole'])
--------------------------------------------------------------------------

    Molecular point group: c1
  Charge       = 0
  Multiplicity = 1
  Basis Set: AUG-CC-PVTZ
    Blend: AUG-CC-PVTZ
  Basis Set: (AUG-CC-PVTZ AUX)
    Blend: AUG-CC-PVTZ-JKFIT

    Orbital Energies [Eh]
    ---------------------

    Doubly Occupied:

       1A    -20.626581     2A    -20.564464     3A    -20.527752
       4A    -15.592847     5A    -11.403790     6A    -11.358203
       7A    -11.294298     8A    -11.244771     9A    -11.216504
      10A     -1.469479    11A     -1.381768    12A     -1.369673
      13A     -1.230314    14A     -1.063265    15A     -1.011784
      16A     -0.887967    17A     -0.836377    18A     -0.775359
      19A     -0.727643    20A     -0.712599    21A     -0.705234
      22A     -0.662628    23A     -0.638213    24A     -0.632779
      25A     -0.611235    26A     -0.598742    27A     -0.542804
      28A     -0.531459    29A     -0.522965    30A     -0.517267
      31A     -0.495992    32A     -0.490879    33A     -0.465967
      34A     -0.432898    35A     -0.407982

  @DF-RHF Final Energy:  -473.78777724526770

   => Energetics <=

    Nuclear Repulsion Energy =            456.1948432628163346
    One-Electron Energy =               -1552.8602786902595199
    Two-Electron Energy =                 622.8776581821755371
    Total Energy =                       -473.7877772452677618
  Basis Set: (AUG-CC-PVTZ AUX)
    Blend: AUG-CC-PVTZ-RI
    Molecular point group: c1

    Geometry (in Angstrom), charge = 0, multiplicity = 1:

       Center              X                  Y                   Z               Mass
    ------------   -----------------  -----------------  -----------------  -----------------
         O            1.092927293256    -1.269502462775     0.281017344493    15.994914619570
         O           -3.036132706744    -0.666938462775     0.369313344493    15.994914619570
         O           -1.710932706744     1.121451537225     0.866081344493    15.994914619570
         N            0.143334293256     0.325866537225    -1.047839655507    14.003074004430
         C            2.386681293256     0.724375537225    -0.168736655507    12.000000000000
         C            1.162966293256    -0.164657462775    -0.255471655507    12.000000000000
         C           -1.240120506744    -0.221025562775    -1.111111855507    12.000000000000
         C            3.498253293256     0.080562537225     0.643135344493    12.000000000000
         C           -1.948139706744     0.130191537225     0.199456344493    12.000000000000
         H            2.725973293256     0.950650537225    -1.186279655507     1.007825032230
         H            2.084253293256     1.682553537225     0.273789344493     1.007825032230
         H           -0.969511706744    -1.411969462775    -0.916119655507     1.007825032230
         H           -1.707719706744    -0.142749462775    -1.902013655507     1.007825032230
         H            0.123757293256     1.329202537225    -1.193379655507     1.007825032230
         H            3.797558293256    -0.868709462775     0.197575344493     1.007825032230
         H            4.369223293256     0.738245537225     0.687524344493     1.007825032230
         H            3.160256293256    -0.122853462775     1.659473344493     1.007825032230
         H           -3.537583706744    -0.289767462775     1.120121344493     1.007825032230

  Basis Set: AUG-CC-PVTZ
    Blend: AUG-CC-PVTZ
  Basis Set: (AUG-CC-PVTZ AUX)
    Blend: AUG-CC-PVTZ-JKFIT
	 Reference Energy          =    -473.7877772452677050 [Eh]
	 Singles Energy            =      -0.0000000000000000 [Eh]
	 Same-Spin Energy          =      -0.4676376947107656 [Eh]
	 Opposite-Spin Energy      =      -1.4610020290995109 [Eh]
	 Correlation Energy        =      -1.9286397238102766 [Eh]
	 Total Energy              =    -475.7164169690779545 [Eh]

	 ================> DF-SCS-MP2 Energies <==================
	-----------------------------------------------------------
	 SCS Same-Spin Scale       =       0.3333333333333333 [-]
	 SCS Opposite-Spin Scale   =       1.2000000000000000 [-]
	 SCS Same-Spin Energy      =      -0.1558792315702552 [Eh]
	 SCS Opposite-Spin Energy  =      -1.7532024349194131 [Eh]
	 SCS Correlation Energy    =      -1.9090816664896684 [Eh]
	 SCS Total Energy          =    -475.6968589117573742 [Eh]
	-----------------------------------------------------------

  Dipole Moment: [D]
     X:    -1.0704      Y:     1.9595      Z:    -1.7628     Total:     2.8448

*** Psi4 exiting successfully. Buy a developer a beer!
