                               Psi4 1.4a2.dev612

  ==> Input File <==

--------------------------------------------------------------------------
#psi4
#
memory 32 gb

molecule  {
0 1
  O        1.0830410    -1.2590340     0.2697030
  O       -3.0460190    -0.6564700     0.3579990
  O       -1.7208190     1.1319200     0.8547670
  N        0.1334480     0.3363350    -1.0591540
  C        2.3767950     0.7348440    -0.1800510
  C        1.1530800    -0.1541890    -0.2667860
  C       -1.1420340    -0.3248900    -0.9988550
  C        3.4883670     0.0910310     0.6318210
  C       -1.9580260     0.1406600     0.1881420
  H        2.7160870     0.9611190    -1.1975940
  H        2.0743670     1.6930220     0.2624750
  H       -0.9793980    -1.4015010    -0.9274340
  H       -1.7176060    -0.1322810    -1.9133280
  H        0.2064299     1.2369148    -1.4709157
  H        3.7876720    -0.8582410     0.1862610
  H        4.3593370     0.7487140     0.6762100
  H        3.1503700    -0.1123850     1.6481590
  H       -3.5474700    -0.2792990     1.1088070
units angstrom
no_reorient  #important for SAPT in psi4, default
symmetry c1  #important for SAPT in psi4, default
}

set PROPERTIES_ORIGIN ["COM"]
properties('MP2/aug-cc-pvtz', properties = ['dipole'])
--------------------------------------------------------------------------

    Molecular point group: c1
  Charge       = 0
  Multiplicity = 1
  Basis Set: AUG-CC-PVTZ
    Blend: AUG-CC-PVTZ
  Basis Set: (AUG-CC-PVTZ AUX)
    Blend: AUG-CC-PVTZ-JKFIT

    Orbital Energies [Eh]
    ---------------------

    Doubly Occupied:

       1A    -20.623813     2A    -20.559817     3A    -20.526750
       4A    -15.591394     5A    -11.396480     6A    -11.356242
       7A    -11.291774     8A    -11.243707     9A    -11.216017
      10A     -1.466316    11A     -1.383344    12A     -1.365721
      13A     -1.241741    14A     -1.062887    15A     -1.006329
      16A     -0.889943    17A     -0.823626    18A     -0.793501
      19A     -0.715063    20A     -0.709647    21A     -0.698138
      22A     -0.653165    23A     -0.644194    24A     -0.635857
      25A     -0.603104    26A     -0.600616    27A     -0.561313
      28A     -0.539944    29A     -0.524444    30A     -0.517034
      31A     -0.494472    32A     -0.489032    33A     -0.466286
      34A     -0.431610    35A     -0.406662

  @DF-RHF Final Energy:  -473.83872177640876

   => Energetics <=

    Nuclear Repulsion Energy =            457.8203944913739747
    One-Electron Energy =               -1556.2582659146207789
    Two-Electron Energy =                 624.5991496468381001
    Total Energy =                       -473.8387217764087609
  Basis Set: (AUG-CC-PVTZ AUX)
    Blend: AUG-CC-PVTZ-RI
    Molecular point group: c1

    Geometry (in Angstrom), charge = 0, multiplicity = 1:

       Center              X                  Y                   Z               Mass
    ------------   -----------------  -----------------  -----------------  -----------------
         O            1.082329281693    -1.258243689309     0.271750094472    15.994914619570
         O           -3.046730718307    -0.655679689309     0.360046094472    15.994914619570
         O           -1.721530718307     1.132710310691     0.856814094472    15.994914619570
         N            0.132736281693     0.337125310691    -1.057106905528    14.003074004430
         C            2.376083281693     0.735634310691    -0.178003905528    12.000000000000
         C            1.152368281693    -0.153398689309    -0.264738905528    12.000000000000
         C           -1.142745718307    -0.324099689309    -0.996807905528    12.000000000000
         C            3.487655281693     0.091821310691     0.633868094472    12.000000000000
         C           -1.958737718307     0.141450310691     0.190189094472    12.000000000000
         H            2.715375281693     0.961909310691    -1.195546905528     1.007825032230
         H            2.073655281693     1.693812310691     0.264522094472     1.007825032230
         H           -0.980109718307    -1.400710689309    -0.925386905528     1.007825032230
         H           -1.718317718307    -0.131490689309    -1.911280905528     1.007825032230
         H            0.205718181693     1.237705110691    -1.468868605528     1.007825032230
         H            3.786960281693    -0.857450689309     0.188308094472     1.007825032230
         H            4.358625281693     0.749504310691     0.678257094472     1.007825032230
         H            3.149658281693    -0.111594689309     1.650206094472     1.007825032230
         H           -3.548181718307    -0.278508689309     1.110854094472     1.007825032230

  Basis Set: AUG-CC-PVTZ
    Blend: AUG-CC-PVTZ
  Basis Set: (AUG-CC-PVTZ AUX)
    Blend: AUG-CC-PVTZ-JKFIT
	 Reference Energy          =    -473.8387217764087609 [Eh]
	 Singles Energy            =      -0.0000000000000000 [Eh]
	 Same-Spin Energy          =      -0.4667262087591809 [Eh]
	 Opposite-Spin Energy      =      -1.4574908922790690 [Eh]
	 Correlation Energy        =      -1.9242171010382498 [Eh]
	 Total Energy              =    -475.7629388774470272 [Eh]

	 ================> DF-SCS-MP2 Energies <==================
	-----------------------------------------------------------
	 SCS Same-Spin Scale       =       0.3333333333333333 [-]
	 SCS Opposite-Spin Scale   =       1.2000000000000000 [-]
	 SCS Same-Spin Energy      =      -0.1555754029197270 [Eh]
	 SCS Opposite-Spin Energy  =      -1.7489890707348827 [Eh]
	 SCS Correlation Energy    =      -1.9045644736546097 [Eh]
	 SCS Total Energy          =    -475.7432862500633632 [Eh]
	-----------------------------------------------------------

  Dipole Moment: [D]
     X:    -0.8385      Y:     1.8497      Z:    -2.1643     Total:     2.9679

*** Psi4 exiting successfully. Buy a developer a beer!
