                               Psi4 1.4a2.dev612

  ==> Input File <==

--------------------------------------------------------------------------
#psi4
#
memory 32 gb

molecule  {
0 1
  O        1.0830410    -1.2590340     0.2697030
  O       -3.0460190    -0.6564700     0.3579990
  O       -1.7208190     1.1319200     0.8547670
  N        0.1334480     0.3363350    -1.0591540
  C        2.4753891     0.6253170    -0.3819991
  C        1.1530800    -0.1541890    -0.2667860
  C       -1.1420340    -0.3248900    -0.9988550
  C        3.4883670     0.0910310     0.6318210
  C       -1.9580260     0.1406600     0.1881420
  H        2.7160870     0.9611190    -1.1975940
  H        2.0743670     1.6930220     0.2624750
  H       -0.9793980    -1.4015010    -0.9274340
  H       -1.7176060    -0.1322810    -1.9133280
  H        0.1138710     1.3396710    -1.2046940
  H        3.7876720    -0.8582410     0.1862610
  H        4.3593370     0.7487140     0.6762100
  H        3.1503700    -0.1123850     1.6481590
  H       -3.5474700    -0.2792990     1.1088070
units angstrom
no_reorient  #important for SAPT in psi4, default
symmetry c1  #important for SAPT in psi4, default
}

set PROPERTIES_ORIGIN ["COM"]
properties('MP2/aug-cc-pvtz', properties = ['dipole'])
--------------------------------------------------------------------------

    Molecular point group: c1
  Charge       = 0
  Multiplicity = 1
  Basis Set: AUG-CC-PVTZ
    Blend: AUG-CC-PVTZ
  Basis Set: (AUG-CC-PVTZ AUX)
    Blend: AUG-CC-PVTZ-JKFIT

    Orbital Energies [Eh]
    ---------------------

    Doubly Occupied:

       1A    -20.625060     2A    -20.562372     3A    -20.530403
       4A    -15.593425     5A    -11.398423     6A    -11.360961
       7A    -11.290796     8A    -11.252154     9A    -11.221217
      10A     -1.468068    11A     -1.385927    12A     -1.368124
      13A     -1.242239    14A     -1.064725    15A     -1.006675
      16A     -0.892953    17A     -0.829761    18A     -0.788376
      19A     -0.728720    20A     -0.715340    21A     -0.703127
      22A     -0.653953    23A     -0.647435    24A     -0.620765
      25A     -0.609148    26A     -0.595760    27A     -0.563172
      28A     -0.553662    29A     -0.540705    30A     -0.518216
      31A     -0.492064    32A     -0.469670    33A     -0.451891
      34A     -0.425063    35A     -0.412516

  @DF-RHF Final Energy:  -473.77381395739411

   => Energetics <=

    Nuclear Repulsion Energy =            457.3011415985328085
    One-Electron Energy =               -1554.9841800161079846
    Two-Electron Energy =                 623.9092244601810080
    Total Energy =                       -473.7738139573940543
  Basis Set: (AUG-CC-PVTZ AUX)
    Blend: AUG-CC-PVTZ-RI
    Molecular point group: c1

    Geometry (in Angstrom), charge = 0, multiplicity = 1:

       Center              X                  Y                   Z               Mass
    ------------   -----------------  -----------------  -----------------  -----------------
         O            1.074013543610    -1.249005325507     0.288193717206    15.994914619570
         O           -3.055046456390    -0.646441325507     0.376489717206    15.994914619570
         O           -1.729846456390     1.141948674493     0.873257717206    15.994914619570
         N            0.124420543610     0.346363674493    -1.040663282794    14.003074004430
         C            2.466361643610     0.635345674493    -0.363508382794    12.000000000000
         C            1.144052543610    -0.144160325507    -0.248295282794    12.000000000000
         C           -1.151061456390    -0.314861325507    -0.980364282794    12.000000000000
         C            3.479339543610     0.101059674493     0.650311717206    12.000000000000
         C           -1.967053456390     0.150688674493     0.206632717206    12.000000000000
         H            2.707059543610     0.971147674493    -1.179103282794     1.007825032230
         H            2.065339543610     1.703050674493     0.280965717206     1.007825032230
         H           -0.988425456390    -1.391472325507    -0.908943282794     1.007825032230
         H           -1.726633456390    -0.122252325507    -1.894837282794     1.007825032230
         H            0.104843543610     1.349699674493    -1.186203282794     1.007825032230
         H            3.778644543610    -0.848212325507     0.204751717206     1.007825032230
         H            4.350309543610     0.758742674493     0.694700717206     1.007825032230
         H            3.141342543610    -0.102356325507     1.666649717206     1.007825032230
         H           -3.556497456390    -0.269270325507     1.127297717206     1.007825032230

  Basis Set: AUG-CC-PVTZ
    Blend: AUG-CC-PVTZ
  Basis Set: (AUG-CC-PVTZ AUX)
    Blend: AUG-CC-PVTZ-JKFIT
	 Reference Energy          =    -473.7738139573941112 [Eh]
	 Singles Energy            =      -0.0000000000000000 [Eh]
	 Same-Spin Energy          =      -0.4677151731848910 [Eh]
	 Opposite-Spin Energy      =      -1.4610991476162094 [Eh]
	 Correlation Energy        =      -1.9288143208011004 [Eh]
	 Total Energy              =    -475.7026282781952204 [Eh]

	 ================> DF-SCS-MP2 Energies <==================
	-----------------------------------------------------------
	 SCS Same-Spin Scale       =       0.3333333333333333 [-]
	 SCS Opposite-Spin Scale   =       1.2000000000000000 [-]
	 SCS Same-Spin Energy      =      -0.1559050577282970 [Eh]
	 SCS Opposite-Spin Energy  =      -1.7533189771394513 [Eh]
	 SCS Correlation Energy    =      -1.9092240348677483 [Eh]
	 SCS Total Energy          =    -475.6830379922618590 [Eh]
	-----------------------------------------------------------

  Dipole Moment: [D]
     X:    -0.8866      Y:     1.7276      Z:    -1.8185     Total:     2.6604

*** Psi4 exiting successfully. Buy a developer a beer!
