                               Psi4 1.4a2.dev612

  ==> Input File <==

--------------------------------------------------------------------------
#psi4
#
memory 32 gb

molecule  {
0 1
  O        1.0830410    -1.2590340     0.2697030
  O       -3.0460190    -0.6564700     0.3579990
  O       -1.7208190     1.1319200     0.8547670
  N        0.1334480     0.3363350    -1.0591540
  C        2.3767950     0.7348440    -0.1800510
  C        1.1530800    -0.1541890    -0.2667860
  C       -1.1420340    -0.3248900    -0.9988550
  C        3.4883670     0.0910310     0.6318210
  C       -1.9580260     0.1406600     0.1881420
  H        2.7160870     0.9611190    -1.1975940
  H        2.0743670     1.6930220     0.2624750
  H       -0.9793980    -1.4015010    -0.9274340
  H       -1.7176060    -0.1322810    -1.9133280
  H        0.1292975     1.3225450    -1.2490643
  H        3.7876720    -0.8582410     0.1862610
  H        4.3593370     0.7487140     0.6762100
  H        3.1503700    -0.1123850     1.6481590
  H       -3.5474700    -0.2792990     1.1088070
units angstrom
no_reorient  #important for SAPT in psi4, default
symmetry c1  #important for SAPT in psi4, default
}

set PROPERTIES_ORIGIN ["COM"]
properties('MP2/aug-cc-pvtz', properties = ['dipole'])
--------------------------------------------------------------------------

    Molecular point group: c1
  Charge       = 0
  Multiplicity = 1
  Basis Set: AUG-CC-PVTZ
    Blend: AUG-CC-PVTZ
  Basis Set: (AUG-CC-PVTZ AUX)
    Blend: AUG-CC-PVTZ-JKFIT

    Orbital Energies [Eh]
    ---------------------

    Doubly Occupied:

       1A    -20.625214     2A    -20.562405     3A    -20.528299
       4A    -15.592166     5A    -11.398537     6A    -11.356132
       7A    -11.291139     8A    -11.244171     9A    -11.216423
      10A     -1.468159    11A     -1.384590    12A     -1.368105
      13A     -1.242484    14A     -1.063420    15A     -1.006355
      16A     -0.889825    17A     -0.824571    18A     -0.788460
      19A     -0.715971    20A     -0.712510    21A     -0.698345
      22A     -0.653077    23A     -0.644438    24A     -0.636845
      25A     -0.603751    26A     -0.600340    27A     -0.560076
      28A     -0.540670    29A     -0.525184    30A     -0.517383
      31A     -0.495315    32A     -0.491309    33A     -0.468789
      34A     -0.433565    35A     -0.409575

  @DF-RHF Final Energy:  -473.83998228739335

   => Energetics <=

    Nuclear Repulsion Energy =            458.0238455327858560
    One-Electron Energy =               -1556.6124614668353843
    Two-Electron Energy =                 624.7486336466562307
    Total Energy =                       -473.8399822873933545
  Basis Set: (AUG-CC-PVTZ AUX)
    Blend: AUG-CC-PVTZ-RI
    Molecular point group: c1

    Geometry (in Angstrom), charge = 0, multiplicity = 1:

       Center              X                  Y                   Z               Mass
    ------------   -----------------  -----------------  -----------------  -----------------
         O            1.082922422282    -1.258902177146     0.270044078971    15.994914619570
         O           -3.046137577718    -0.656338177146     0.358340078971    15.994914619570
         O           -1.720937577718     1.132051822854     0.855108078971    15.994914619570
         N            0.133329422282     0.336466822854    -1.058812921029    14.003074004430
         C            2.376676422282     0.734975822854    -0.179709921029    12.000000000000
         C            1.152961422282    -0.154057177146    -0.266444921029    12.000000000000
         C           -1.142152577718    -0.324758177146    -0.998513921029    12.000000000000
         C            3.488248422282     0.091162822854     0.632162078971    12.000000000000
         C           -1.958144577718     0.140791822854     0.188483078971    12.000000000000
         H            2.715968422282     0.961250822854    -1.197252921029     1.007825032230
         H            2.074248422282     1.693153822854     0.262816078971     1.007825032230
         H           -0.979516577718    -1.401369177146    -0.927092921029     1.007825032230
         H           -1.717724577718    -0.132149177146    -1.912986921029     1.007825032230
         H            0.129178922282     1.322676822854    -1.248723221029     1.007825032230
         H            3.787553422282    -0.858109177146     0.186602078971     1.007825032230
         H            4.359218422282     0.748845822854     0.676551078971     1.007825032230
         H            3.150251422282    -0.112253177146     1.648500078971     1.007825032230
         H           -3.547588577718    -0.279167177146     1.109148078971     1.007825032230

  Basis Set: AUG-CC-PVTZ
    Blend: AUG-CC-PVTZ
  Basis Set: (AUG-CC-PVTZ AUX)
    Blend: AUG-CC-PVTZ-JKFIT
	 Reference Energy          =    -473.8399822873933545 [Eh]
	 Singles Energy            =      -0.0000000000000000 [Eh]
	 Same-Spin Energy          =      -0.4666857136769340 [Eh]
	 Opposite-Spin Energy      =      -1.4575547135495128 [Eh]
	 Correlation Energy        =      -1.9242404272264468 [Eh]
	 Total Energy              =    -475.7642227146197911 [Eh]

	 ================> DF-SCS-MP2 Energies <==================
	-----------------------------------------------------------
	 SCS Same-Spin Scale       =       0.3333333333333333 [-]
	 SCS Opposite-Spin Scale   =       1.2000000000000000 [-]
	 SCS Same-Spin Energy      =      -0.1555619045589780 [Eh]
	 SCS Opposite-Spin Energy  =      -1.7490656562594153 [Eh]
	 SCS Correlation Energy    =      -1.9046275608183934 [Eh]
	 SCS Total Energy          =    -475.7446098482117236 [Eh]
	-----------------------------------------------------------

  Dipole Moment: [D]
     X:    -0.9336      Y:     1.8794      Z:    -1.8174     Total:     2.7761

*** Psi4 exiting successfully. Buy a developer a beer!
