                               Psi4 1.4a2.dev612

  ==> Input File <==

--------------------------------------------------------------------------
#psi4
#
memory 32 gb

molecule  {
0 1
  O        1.0830410    -1.2590340     0.2697030
  O       -3.0460190    -0.6564700     0.3579990
  O       -1.7208190     1.1319200     0.8547670
  N        0.1334480     0.3363350    -1.0591540
  C        2.3767950     0.7348440    -0.1800510
  C        1.1530800    -0.1541890    -0.2667860
  C       -1.2770000    -0.1819739    -1.1533191
  C        3.4883670     0.0910310     0.6318210
  C       -1.9580260     0.1406600     0.1881420
  H        2.7160870     0.9611190    -1.1975940
  H        2.0743670     1.6930220     0.2624750
  H       -0.9793980    -1.4015010    -0.9274340
  H       -1.7176060    -0.1322810    -1.9133280
  H        0.1138710     1.3396710    -1.2046940
  H        3.7876720    -0.8582410     0.1862610
  H        4.3593370     0.7487140     0.6762100
  H        3.1503700    -0.1123850     1.6481590
  H       -3.5474700    -0.2792990     1.1088070
units angstrom
no_reorient  #important for SAPT in psi4, default
symmetry c1  #important for SAPT in psi4, default
}

set PROPERTIES_ORIGIN ["COM"]
properties('MP2/aug-cc-pvtz', properties = ['dipole'])
--------------------------------------------------------------------------

    Molecular point group: c1
  Charge       = 0
  Multiplicity = 1
  Basis Set: AUG-CC-PVTZ
    Blend: AUG-CC-PVTZ
  Basis Set: (AUG-CC-PVTZ AUX)
    Blend: AUG-CC-PVTZ-JKFIT

    Orbital Energies [Eh]
    ---------------------

    Doubly Occupied:

       1A    -20.626905     2A    -20.565038     3A    -20.527659
       4A    -15.593319     5A    -11.406117     6A    -11.358893
       7A    -11.296671     8A    -11.244996     9A    -11.216577
      10A     -1.469792    11A     -1.381305    12A     -1.370097
      13A     -1.227232    14A     -1.063457    15A     -1.014328
      16A     -0.887416    17A     -0.841847    18A     -0.774905
      19A     -0.733659    20A     -0.713449    21A     -0.703134
      22A     -0.663365    23A     -0.638510    24A     -0.632502
      25A     -0.612509    26A     -0.596971    27A     -0.542686
      28A     -0.529454    29A     -0.517313    30A     -0.515926
      31A     -0.495900    32A     -0.490579    33A     -0.464043
      34A     -0.432639    35A     -0.407107

  @DF-RHF Final Energy:  -473.75590610151386

   => Energetics <=

    Nuclear Repulsion Energy =            455.6950592914053004
    One-Electron Energy =               -1551.7893288048157956
    Two-Electron Energy =                 622.3383634118964665
    Total Energy =                       -473.7559061015139150
  Basis Set: (AUG-CC-PVTZ AUX)
    Blend: AUG-CC-PVTZ-RI
    Molecular point group: c1

    Geometry (in Angstrom), charge = 0, multiplicity = 1:

       Center              X                  Y                   Z               Mass
    ------------   -----------------  -----------------  -----------------  -----------------
         O            1.095398853932    -1.272119607578     0.283845970843    15.994914619570
         O           -3.033661146068    -0.669555607578     0.372141970843    15.994914619570
         O           -1.708461146068     1.118834392422     0.868909970843    15.994914619570
         N            0.145805853932     0.323249392422    -1.045011029157    14.003074004430
         C            2.389152853932     0.721758392422    -0.165908029157    12.000000000000
         C            1.165437853932    -0.167274607578    -0.252643029157    12.000000000000
         C           -1.264642146068    -0.195059507578    -1.139176129157    12.000000000000
         C            3.500724853932     0.077945392422     0.645963970843    12.000000000000
         C           -1.945668146068     0.127574392422     0.202284970843    12.000000000000
         H            2.728444853932     0.948033392422    -1.183451029157     1.007825032230
         H            2.086724853932     1.679936392422     0.276617970843     1.007825032230
         H           -0.967040146068    -1.414586607578    -0.913291029157     1.007825032230
         H           -1.705248146068    -0.145366607578    -1.899185029157     1.007825032230
         H            0.126228853932     1.326585392422    -1.190551029157     1.007825032230
         H            3.800029853932    -0.871326607578     0.200403970843     1.007825032230
         H            4.371694853932     0.735628392422     0.690352970843     1.007825032230
         H            3.162727853932    -0.125470607578     1.662301970843     1.007825032230
         H           -3.535112146068    -0.292384607578     1.122949970843     1.007825032230

  Basis Set: AUG-CC-PVTZ
    Blend: AUG-CC-PVTZ
  Basis Set: (AUG-CC-PVTZ AUX)
    Blend: AUG-CC-PVTZ-JKFIT
	 Reference Energy          =    -473.7559061015138582 [Eh]
	 Singles Energy            =      -0.0000000000000000 [Eh]
	 Same-Spin Energy          =      -0.4681557003909405 [Eh]
	 Opposite-Spin Energy      =      -1.4626580577543833 [Eh]
	 Correlation Energy        =      -1.9308137581453237 [Eh]
	 Total Energy              =    -475.6867198596592061 [Eh]

	 ================> DF-SCS-MP2 Energies <==================
	-----------------------------------------------------------
	 SCS Same-Spin Scale       =       0.3333333333333333 [-]
	 SCS Opposite-Spin Scale   =       1.2000000000000000 [-]
	 SCS Same-Spin Energy      =      -0.1560519001303135 [Eh]
	 SCS Opposite-Spin Energy  =      -1.7551896693052600 [Eh]
	 SCS Correlation Energy    =      -1.9112415694355736 [Eh]
	 SCS Total Energy          =    -475.6671476709494186 [Eh]
	-----------------------------------------------------------

  Dipole Moment: [D]
     X:    -1.0852      Y:     1.9828      Z:    -1.7508     Total:     2.8591

*** Psi4 exiting successfully. Buy a developer a beer!
