                               Psi4 1.4a2.dev612

  ==> Input File <==

--------------------------------------------------------------------------
#psi4
#
memory 32 gb

molecule  {
0 1
  O        1.0830410    -1.2590340     0.2697030
  O       -3.0460190    -0.6564700     0.3579990
  O       -1.7208190     1.1319200     0.8547670
  N        0.1334480     0.3363350    -1.0591540
  C        2.3767950     0.7348440    -0.1800510
  C        1.1530800    -0.1541890    -0.2667860
  C       -1.1420340    -0.3248900    -0.9988550
  C        3.4883670     0.0910310     0.6318210
  C       -1.9580260     0.1406600     0.1881420
  H        2.7160870     0.9611190    -1.1975940
  H        2.0743670     1.6930220     0.2624750
  H       -0.9793980    -1.4015010    -0.9274340
  H       -1.7176060    -0.1322810    -1.9133280
  H        0.1601505     1.2882929    -1.3378049
  H        3.7876720    -0.8582410     0.1862610
  H        4.3593370     0.7487140     0.6762100
  H        3.1503700    -0.1123850     1.6481590
  H       -3.5474700    -0.2792990     1.1088070
units angstrom
no_reorient  #important for SAPT in psi4, default
symmetry c1  #important for SAPT in psi4, default
}

set PROPERTIES_ORIGIN ["COM"]
properties('MP2/aug-cc-pvtz', properties = ['dipole'])
--------------------------------------------------------------------------

    Molecular point group: c1
  Charge       = 0
  Multiplicity = 1
  Basis Set: AUG-CC-PVTZ
    Blend: AUG-CC-PVTZ
  Basis Set: (AUG-CC-PVTZ AUX)
    Blend: AUG-CC-PVTZ-JKFIT

    Orbital Energies [Eh]
    ---------------------

    Doubly Occupied:

       1A    -20.624631     2A    -20.561334     3A    -20.527483
       4A    -15.591314     5A    -11.397662     6A    -11.356180
       7A    -11.291490     8A    -11.244007     9A    -11.216272
      10A     -1.467395    11A     -1.384026    12A     -1.367113
      13A     -1.242954    14A     -1.063235    15A     -1.006588
      16A     -0.890007    17A     -0.824270    18A     -0.792353
      19A     -0.715623    20A     -0.711409    21A     -0.698319
      22A     -0.653072    23A     -0.644516    24A     -0.636473
      25A     -0.602641    26A     -0.601539    27A     -0.560773
      28A     -0.540661    29A     -0.524925    30A     -0.517256
      31A     -0.494958    32A     -0.490404    33A     -0.467770
      34A     -0.432671    35A     -0.408354

  @DF-RHF Final Energy:  -473.83980249300197

   => Energetics <=

    Nuclear Repulsion Energy =            457.9778218758501112
    One-Electron Energy =               -1556.5358922546213307
    Two-Electron Energy =                 624.7182678857691371
    Total Energy =                       -473.8398024930020256
  Basis Set: (AUG-CC-PVTZ AUX)
    Blend: AUG-CC-PVTZ-RI
    Molecular point group: c1

    Geometry (in Angstrom), charge = 0, multiplicity = 1:

       Center              X                  Y                   Z               Mass
    ------------   -----------------  -----------------  -----------------  -----------------
         O            1.082685165739    -1.258638781857     0.270726485479    15.994914619570
         O           -3.046374834261    -0.656074781857     0.359022485479    15.994914619570
         O           -1.721174834261     1.132315218143     0.855790485479    15.994914619570
         N            0.133092165739     0.336730218143    -1.058130514521    14.003074004430
         C            2.376439165739     0.735239218143    -0.179027514521    12.000000000000
         C            1.152724165739    -0.153793781857    -0.265762514521    12.000000000000
         C           -1.142389834261    -0.324494781857    -0.997831514521    12.000000000000
         C            3.488011165739     0.091426218143     0.632844485479    12.000000000000
         C           -1.958381834261     0.141055218143     0.189165485479    12.000000000000
         H            2.715731165739     0.961514218143    -1.196570514521     1.007825032230
         H            2.074011165739     1.693417218143     0.263498485479     1.007825032230
         H           -0.979753834261    -1.401105781857    -0.926410514521     1.007825032230
         H           -1.717961834261    -0.131885781857    -1.912304514521     1.007825032230
         H            0.159794665739     1.288688118143    -1.336781414521     1.007825032230
         H            3.787316165739    -0.857845781857     0.187284485479     1.007825032230
         H            4.358981165739     0.749109218143     0.677233485479     1.007825032230
         H            3.150014165739    -0.111989781857     1.649182485479     1.007825032230
         H           -3.547825834261    -0.278903781857     1.109830485479     1.007825032230

  Basis Set: AUG-CC-PVTZ
    Blend: AUG-CC-PVTZ
  Basis Set: (AUG-CC-PVTZ AUX)
    Blend: AUG-CC-PVTZ-JKFIT
	 Reference Energy          =    -473.8398024930019687 [Eh]
	 Singles Energy            =      -0.0000000000000000 [Eh]
	 Same-Spin Energy          =      -0.4666444862648821 [Eh]
	 Opposite-Spin Energy      =      -1.4573724223249001 [Eh]
	 Correlation Energy        =      -1.9240169085897820 [Eh]
	 Total Energy              =    -475.7638194015917747 [Eh]

	 ================> DF-SCS-MP2 Energies <==================
	-----------------------------------------------------------
	 SCS Same-Spin Scale       =       0.3333333333333333 [-]
	 SCS Opposite-Spin Scale   =       1.2000000000000000 [-]
	 SCS Same-Spin Energy      =      -0.1555481620882940 [Eh]
	 SCS Opposite-Spin Energy  =      -1.7488469067898800 [Eh]
	 SCS Correlation Energy    =      -1.9043950688781739 [Eh]
	 SCS Total Energy          =    -475.7441975618801280 [Eh]
	-----------------------------------------------------------

  Dipole Moment: [D]
     X:    -0.8984      Y:     1.8766      Z:    -1.9587     Total:     2.8575

*** Psi4 exiting successfully. Buy a developer a beer!
