                               Psi4 1.4a2.dev612

  ==> Input File <==

--------------------------------------------------------------------------
#psi4
#
memory 32 gb

molecule  {
0 1
  O        1.0830410    -1.2590340     0.2697030
  O       -3.0460190    -0.6564700     0.3579990
  O       -1.7208190     1.1319200     0.8547670
  N        0.1334480     0.3363350    -1.0591540
  C        2.3767950     0.7348440    -0.1800510
  C        1.1530800    -0.1541890    -0.2667860
  C       -1.3039932    -0.1533906    -1.1842119
  C        3.4883670     0.0910310     0.6318210
  C       -1.9580260     0.1406600     0.1881420
  H        2.7160870     0.9611190    -1.1975940
  H        2.0743670     1.6930220     0.2624750
  H       -0.9793980    -1.4015010    -0.9274340
  H       -1.7176060    -0.1322810    -1.9133280
  H        0.1138710     1.3396710    -1.2046940
  H        3.7876720    -0.8582410     0.1862610
  H        4.3593370     0.7487140     0.6762100
  H        3.1503700    -0.1123850     1.6481590
  H       -3.5474700    -0.2792990     1.1088070
units angstrom
no_reorient  #important for SAPT in psi4, default
symmetry c1  #important for SAPT in psi4, default
}

set PROPERTIES_ORIGIN ["COM"]
properties('MP2/aug-cc-pvtz', properties = ['dipole'])
--------------------------------------------------------------------------

    Molecular point group: c1
  Charge       = 0
  Multiplicity = 1
  Basis Set: AUG-CC-PVTZ
    Blend: AUG-CC-PVTZ
  Basis Set: (AUG-CC-PVTZ AUX)
    Blend: AUG-CC-PVTZ-JKFIT

    Orbital Energies [Eh]
    ---------------------

    Doubly Occupied:

       1A    -20.627272     2A    -20.565706     3A    -20.527606
       4A    -15.593908     5A    -11.408890     6A    -11.359608
       7A    -11.299697     8A    -11.245242     9A    -11.216669
      10A     -1.470153    11A     -1.380935    12A     -1.370594
      13A     -1.224113    14A     -1.063826    15A     -1.017521
      16A     -0.886857    17A     -0.848371    18A     -0.775743
      19A     -0.738154    20A     -0.714054    21A     -0.701107
      22A     -0.663304    23A     -0.638847    24A     -0.632894
      25A     -0.613015    26A     -0.595015    27A     -0.542619
      28A     -0.528695    29A     -0.517360    30A     -0.508879
      31A     -0.495431    32A     -0.490035    33A     -0.461360
      34A     -0.432330    35A     -0.406125

  @DF-RHF Final Energy:  -473.71481508736770

   => Energetics <=

    Nuclear Repulsion Energy =            455.1845391383383230
    One-Electron Energy =               -1550.6748450266984491
    Two-Electron Energy =                 621.7754908009924293
    Total Energy =                       -473.7148150873676968
  Basis Set: (AUG-CC-PVTZ AUX)
    Blend: AUG-CC-PVTZ-RI
    Molecular point group: c1

    Geometry (in Angstrom), charge = 0, multiplicity = 1:

       Center              X                  Y                   Z               Mass
    ------------   -----------------  -----------------  -----------------  -----------------
         O            1.097870414607    -1.274736761538     0.286674588037    15.994914619570
         O           -3.031189585393    -0.672172761538     0.374970588037    15.994914619570
         O           -1.705989585393     1.116217238462     0.871738588037    15.994914619570
         N            0.148277414607     0.320632238462    -1.042182411963    14.003074004430
         C            2.391624414607     0.719141238462    -0.163079411963    12.000000000000
         C            1.167909414607    -0.169891761538    -0.249814411963    12.000000000000
         C           -1.289163785393    -0.169093361538    -1.167240311963    12.000000000000
         C            3.503196414607     0.075328238462     0.648792588037    12.000000000000
         C           -1.943196585393     0.124957238462     0.205113588037    12.000000000000
         H            2.730916414607     0.945416238462    -1.180622411963     1.007825032230
         H            2.089196414607     1.677319238462     0.279446588037     1.007825032230
         H           -0.964568585393    -1.417203761538    -0.910462411963     1.007825032230
         H           -1.702776585393    -0.147983761538    -1.896356411963     1.007825032230
         H            0.128700414607     1.323968238462    -1.187722411963     1.007825032230
         H            3.802501414607    -0.873943761538     0.203232588037     1.007825032230
         H            4.374166414607     0.733011238462     0.693181588037     1.007825032230
         H            3.165199414607    -0.128087761538     1.665130588037     1.007825032230
         H           -3.532640585393    -0.295001761538     1.125778588037     1.007825032230

  Basis Set: AUG-CC-PVTZ
    Blend: AUG-CC-PVTZ
  Basis Set: (AUG-CC-PVTZ AUX)
    Blend: AUG-CC-PVTZ-JKFIT
	 Reference Energy          =    -473.7148150873676968 [Eh]
	 Singles Energy            =      -0.0000000000000000 [Eh]
	 Same-Spin Energy          =      -0.4688003904355668 [Eh]
	 Opposite-Spin Energy      =      -1.4646750299276405 [Eh]
	 Correlation Energy        =      -1.9334754203632074 [Eh]
	 Total Energy              =    -475.6482905077309056 [Eh]

	 ================> DF-SCS-MP2 Energies <==================
	-----------------------------------------------------------
	 SCS Same-Spin Scale       =       0.3333333333333333 [-]
	 SCS Opposite-Spin Scale   =       1.2000000000000000 [-]
	 SCS Same-Spin Energy      =      -0.1562667968118556 [Eh]
	 SCS Opposite-Spin Energy  =      -1.7576100359131686 [Eh]
	 SCS Correlation Energy    =      -1.9138768327250242 [Eh]
	 SCS Total Energy          =    -475.6286919200927059 [Eh]
	-----------------------------------------------------------

  Dipole Moment: [D]
     X:    -1.0946      Y:     2.0049      Z:    -1.7319     Total:     2.8666

*** Psi4 exiting successfully. Buy a developer a beer!
