                               Psi4 1.4a2.dev612

  ==> Input File <==

--------------------------------------------------------------------------
#psi4
#
memory 32 gb

molecule  {
0 1
  O        1.0830410    -1.2590340     0.2697030
  O       -3.0460190    -0.6564700     0.3579990
  O       -1.7208190     1.1319200     0.8547670
  N        0.1334480     0.3363350    -1.0591540
  C        2.4951079     0.6034116    -0.4223888
  C        1.1530800    -0.1541890    -0.2667860
  C       -1.1420340    -0.3248900    -0.9988550
  C        3.4883670     0.0910310     0.6318210
  C       -1.9580260     0.1406600     0.1881420
  H        2.7160870     0.9611190    -1.1975940
  H        2.0743670     1.6930220     0.2624750
  H       -0.9793980    -1.4015010    -0.9274340
  H       -1.7176060    -0.1322810    -1.9133280
  H        0.1138710     1.3396710    -1.2046940
  H        3.7876720    -0.8582410     0.1862610
  H        4.3593370     0.7487140     0.6762100
  H        3.1503700    -0.1123850     1.6481590
  H       -3.5474700    -0.2792990     1.1088070
units angstrom
no_reorient  #important for SAPT in psi4, default
symmetry c1  #important for SAPT in psi4, default
}

set PROPERTIES_ORIGIN ["COM"]
properties('MP2/aug-cc-pvtz', properties = ['dipole'])
--------------------------------------------------------------------------

    Molecular point group: c1
  Charge       = 0
  Multiplicity = 1
  Basis Set: AUG-CC-PVTZ
    Blend: AUG-CC-PVTZ
  Basis Set: (AUG-CC-PVTZ AUX)
    Blend: AUG-CC-PVTZ-JKFIT

    Orbital Energies [Eh]
    ---------------------

    Doubly Occupied:

       1A    -20.624971     2A    -20.562250     3A    -20.531043
       4A    -15.593510     5A    -11.398298     6A    -11.363045
       7A    -11.290782     8A    -11.255505     9A    -11.223330
      10A     -1.467971    11A     -1.386356    12A     -1.368028
      13A     -1.242339    14A     -1.065150    15A     -1.006799
      16A     -0.894961    17A     -0.832132    18A     -0.789570
      19A     -0.733165    20A     -0.715219    21A     -0.703797
      22A     -0.653872    23A     -0.647712    24A     -0.617658
      25A     -0.610066    26A     -0.594738    27A     -0.566677
      28A     -0.556431    29A     -0.542331    30A     -0.515757
      31A     -0.491876    32A     -0.469395    33A     -0.445762
      34A     -0.419814    35A     -0.412390

  @DF-RHF Final Energy:  -473.74506756426899

   => Energetics <=

    Nuclear Repulsion Energy =            457.0714846569813972
    One-Electron Energy =               -1554.4477061747236348
    Two-Electron Energy =                 623.6311539534731310
    Total Energy =                       -473.7450675642689930
  Basis Set: (AUG-CC-PVTZ AUX)
    Blend: AUG-CC-PVTZ-RI
    Molecular point group: c1

    Geometry (in Angstrom), charge = 0, multiplicity = 1:

       Center              X                  Y                   Z               Mass
    ------------   -----------------  -----------------  -----------------  -----------------
         O            1.072208044053    -1.246999615728     0.291891892829    15.994914619570
         O           -3.056851955947    -0.644435615728     0.380187892829    15.994914619570
         O           -1.731651955947     1.143954384272     0.876955892829    15.994914619570
         N            0.122615044053     0.348369384272    -1.036965107171    14.003074004430
         C            2.484274944053     0.615445984272    -0.400199907171    12.000000000000
         C            1.142247044053    -0.142154615728    -0.244597107171    12.000000000000
         C           -1.152866955947    -0.312855615728    -0.976666107171    12.000000000000
         C            3.477534044053     0.103065384272     0.654009892829    12.000000000000
         C           -1.968858955947     0.152694384272     0.210330892829    12.000000000000
         H            2.705254044053     0.973153384272    -1.175405107171     1.007825032230
         H            2.063534044053     1.705056384272     0.284663892829     1.007825032230
         H           -0.990230955947    -1.389466615728    -0.905245107171     1.007825032230
         H           -1.728438955947    -0.120246615728    -1.891139107171     1.007825032230
         H            0.103038044053     1.351705384272    -1.182505107171     1.007825032230
         H            3.776839044053    -0.846206615728     0.208449892829     1.007825032230
         H            4.348504044053     0.760748384272     0.698398892829     1.007825032230
         H            3.139537044053    -0.100350615728     1.670347892829     1.007825032230
         H           -3.558302955947    -0.267264615728     1.130995892829     1.007825032230

  Basis Set: AUG-CC-PVTZ
    Blend: AUG-CC-PVTZ
  Basis Set: (AUG-CC-PVTZ AUX)
    Blend: AUG-CC-PVTZ-JKFIT
	 Reference Energy          =    -473.7450675642689930 [Eh]
	 Singles Energy            =      -0.0000000000000000 [Eh]
	 Same-Spin Energy          =      -0.4681204817516011 [Eh]
	 Opposite-Spin Energy      =      -1.4625584575537605 [Eh]
	 Correlation Energy        =      -1.9306789393053616 [Eh]
	 Total Energy              =    -475.6757465035743735 [Eh]

	 ================> DF-SCS-MP2 Energies <==================
	-----------------------------------------------------------
	 SCS Same-Spin Scale       =       0.3333333333333333 [-]
	 SCS Opposite-Spin Scale   =       1.2000000000000000 [-]
	 SCS Same-Spin Energy      =      -0.1560401605838670 [Eh]
	 SCS Opposite-Spin Energy  =      -1.7550701490645124 [Eh]
	 SCS Correlation Energy    =      -1.9111103096483795 [Eh]
	 SCS Total Energy          =    -475.6561778739173860 [Eh]
	-----------------------------------------------------------

  Dipole Moment: [D]
     X:    -0.8732      Y:     1.6845      Z:    -1.8202     Total:     2.6293

*** Psi4 exiting successfully. Buy a developer a beer!
