                               Psi4 1.4a2.dev612

  ==> Input File <==

--------------------------------------------------------------------------
#psi4
#
memory 32 gb

molecule  {
0 1
  O        1.0830410    -1.2590340     0.2697030
  O       -3.0460190    -0.6564700     0.3579990
  O       -1.7208190     1.1319200     0.8547670
  N        0.1334480     0.3363350    -1.0591540
  C        2.3767950     0.7348440    -0.1800510
  C        1.1530800    -0.1541890    -0.2667860
  C       -1.1420340    -0.3248900    -0.9988550
  C        3.4883670     0.0910310     0.6318210
  C       -1.9580260     0.1406600     0.1881420
  H        2.7160870     0.9611190    -1.1975940
  H        2.0743670     1.6930220     0.2624750
  H       -0.9793980    -1.4015010    -0.9274340
  H       -1.7176060    -0.1322810    -1.9133280
  H        0.1447240     1.3054189    -1.2934346
  H        3.7876720    -0.8582410     0.1862610
  H        4.3593370     0.7487140     0.6762100
  H        3.1503700    -0.1123850     1.6481590
  H       -3.5474700    -0.2792990     1.1088070
units angstrom
no_reorient  #important for SAPT in psi4, default
symmetry c1  #important for SAPT in psi4, default
}

set PROPERTIES_ORIGIN ["COM"]
properties('MP2/aug-cc-pvtz', properties = ['dipole'])
--------------------------------------------------------------------------

    Molecular point group: c1
  Charge       = 0
  Multiplicity = 1
  Basis Set: AUG-CC-PVTZ
    Blend: AUG-CC-PVTZ
  Basis Set: (AUG-CC-PVTZ AUX)
    Blend: AUG-CC-PVTZ-JKFIT

    Orbital Energies [Eh]
    ---------------------

    Doubly Occupied:

       1A    -20.624919     2A    -20.561864     3A    -20.527863
       4A    -15.591652     5A    -11.398092     6A    -11.356156
       7A    -11.291327     8A    -11.244094     9A    -11.216350
      10A     -1.467773    11A     -1.384300    12A     -1.367604
      13A     -1.242844    14A     -1.063333    15A     -1.006507
      16A     -0.889934    17A     -0.824433    18A     -0.790697
      19A     -0.715799    20A     -0.711967    21A     -0.698343
      22A     -0.653064    23A     -0.644508    24A     -0.636664
      25A     -0.603194    26A     -0.600985    27A     -0.560462
      28A     -0.540718    29A     -0.525062    30A     -0.517323
      31A     -0.495132    32A     -0.490860    33A     -0.468277
      34A     -0.433103    35A     -0.408959

  @DF-RHF Final Energy:  -473.83997906930597

   => Energetics <=

    Nuclear Repulsion Energy =            458.0065567103337116
    One-Electron Energy =               -1556.5847460327570388
    Two-Electron Energy =                 624.7382102531174723
    Total Energy =                       -473.8399790693059686
  Basis Set: (AUG-CC-PVTZ AUX)
    Blend: AUG-CC-PVTZ-RI
    Molecular point group: c1

    Geometry (in Angstrom), charge = 0, multiplicity = 1:

       Center              X                  Y                   Z               Mass
    ------------   -----------------  -----------------  -----------------  -----------------
         O            1.082803794010    -1.258770479117     0.270385282225    15.994914619570
         O           -3.046256205990    -0.656206479117     0.358681282225    15.994914619570
         O           -1.721056205990     1.132183520883     0.855449282225    15.994914619570
         N            0.133210794010     0.336598520883    -1.058471717775    14.003074004430
         C            2.376557794010     0.735107520883    -0.179368717775    12.000000000000
         C            1.152842794010    -0.153925479117    -0.266103717775    12.000000000000
         C           -1.142271205990    -0.324626479117    -0.998172717775    12.000000000000
         C            3.488129794010     0.091294520883     0.632503282225    12.000000000000
         C           -1.958263205990     0.140923520883     0.188824282225    12.000000000000
         H            2.715849794010     0.961382520883    -1.196911717775     1.007825032230
         H            2.074129794010     1.693285520883     0.263157282225     1.007825032230
         H           -0.979635205990    -1.401237479117    -0.926751717775     1.007825032230
         H           -1.717843205990    -0.132017479117    -1.912645717775     1.007825032230
         H            0.144486794010     1.305682420883    -1.292752317775     1.007825032230
         H            3.787434794010    -0.857977479117     0.186943282225     1.007825032230
         H            4.359099794010     0.748977520883     0.676892282225     1.007825032230
         H            3.150132794010    -0.112121479117     1.648841282225     1.007825032230
         H           -3.547707205990    -0.279035479117     1.109489282225     1.007825032230

  Basis Set: AUG-CC-PVTZ
    Blend: AUG-CC-PVTZ
  Basis Set: (AUG-CC-PVTZ AUX)
    Blend: AUG-CC-PVTZ-JKFIT
	 Reference Energy          =    -473.8399790693059686 [Eh]
	 Singles Energy            =      -0.0000000000000000 [Eh]
	 Same-Spin Energy          =      -0.4666548440596541 [Eh]
	 Opposite-Spin Energy      =      -1.4574367876587371 [Eh]
	 Correlation Energy        =      -1.9240916317183911 [Eh]
	 Total Energy              =    -475.7640707010243659 [Eh]

	 ================> DF-SCS-MP2 Energies <==================
	-----------------------------------------------------------
	 SCS Same-Spin Scale       =       0.3333333333333333 [-]
	 SCS Opposite-Spin Scale   =       1.2000000000000000 [-]
	 SCS Same-Spin Energy      =      -0.1555516146865514 [Eh]
	 SCS Opposite-Spin Energy  =      -1.7489241451904844 [Eh]
	 SCS Correlation Energy    =      -1.9044757598770359 [Eh]
	 SCS Total Energy          =    -475.7444548291829847 [Eh]
	-----------------------------------------------------------

  Dipole Moment: [D]
     X:    -0.9164      Y:     1.8795      Z:    -1.8882     Total:     2.8174

*** Psi4 exiting successfully. Buy a developer a beer!
