                               Psi4 1.3.2 release

  ==> Input File <==

--------------------------------------------------------------------------
#psi4
#
memory 32 gb

molecule  {
0 1
  O        1.6269320     1.1045440    -0.3563700
  O        1.6269410    -1.1045380    -0.3563700
  N        1.2303420     0.0000010     0.0570950
  C       -1.2290370    -0.0000020     0.4263420
  C        0.0139121    -0.0000026     0.9428531
  C       -1.4714760    -1.2642140    -0.3967350
  C       -1.4714800     1.2642120    -0.3967320
  H       -1.9318800    -0.0000060     1.2712410
  H        0.3118450     0.8984460     1.6853920
  H        0.3118480    -0.8984510     1.6853890
  H       -0.8055150    -1.3049070    -1.2625520
  H       -2.5029200    -1.2793330    -0.7603930
  H       -1.3046420    -2.1677380     0.1971180
  H       -1.3046550     2.1677340     0.1971270
  H       -0.8055150     1.3049140    -1.2625460
  H       -2.5029220     1.2793270    -0.7603950
units angstrom
no_reorient  #important for SAPT in psi4, default
symmetry c1  #important for SAPT in psi4, default
}

set PROPERTIES_ORIGIN ["COM"]
properties('MP2/aug-cc-pvtz', properties = ['dipole'])
--------------------------------------------------------------------------

    Molecular point group: c1
  Charge       = 0
  Multiplicity = 1
  Basis Set: AUG-CC-PVTZ
    Blend: AUG-CC-PVTZ
  Basis Set: (AUG-CC-PVTZ AUX)
    Blend: AUG-CC-PVTZ-JKFIT

    Orbital Energies [Eh]
    ---------------------

    Doubly Occupied:

       1A    -20.607848     2A    -20.607798     3A    -15.845824
       4A    -11.317030     5A    -11.252456     6A    -11.230016
       7A    -11.229998     8A     -1.584637     9A     -1.385817
      10A     -1.173425    11A     -1.034248    12A     -0.952508
      13A     -0.899916    14A     -0.806780    15A     -0.737661
      16A     -0.725769    17A     -0.696817    18A     -0.646948
      19A     -0.626588    20A     -0.607254    21A     -0.558518
      22A     -0.530495    23A     -0.527974    24A     -0.514653
      25A     -0.503558    26A     -0.470012    27A     -0.463354
      28A     -0.446731

  @DF-RHF Final Energy:  -360.84941382228993

   => Energetics <=

    Nuclear Repulsion Energy =            330.9421585352045554
    One-Electron Energy =               -1147.6138780139897335
    Two-Electron Energy =                 455.8223056564953026
    Total Energy =                       -360.8494138222899323
  Basis Set: (AUG-CC-PVTZ AUX)
    Blend: AUG-CC-PVTZ-RI
    Molecular point group: c1

    Geometry (in Angstrom), charge = 0, multiplicity = 1:

       Center              X                  Y                   Z               Mass
    ------------   -----------------  -----------------  -----------------  -----------------
         O            1.541933460324     1.104543838323    -0.330232264971    15.994914619570
         O            1.541942460324    -1.104538161677    -0.330232264971    15.994914619570
         N            1.145343460324     0.000000838323     0.083232735029    14.003074004430
         C           -1.314035539676    -0.000002161677     0.452479735029    12.000000000000
         C           -0.071086439676    -0.000002761677     0.968990835029    12.000000000000
         C           -1.556474539676    -1.264214161677    -0.370597264971    12.000000000000
         C           -1.556478539676     1.264211838323    -0.370594264971    12.000000000000
         H           -2.016878539676    -0.000006161677     1.297378735029     1.007825032230
         H            0.226846460324     0.898445838323     1.711529735029     1.007825032230
         H            0.226849460324    -0.898451161677     1.711526735029     1.007825032230
         H           -0.890513539676    -1.304907161677    -1.236414264971     1.007825032230
         H           -2.587918539676    -1.279333161677    -0.734255264971     1.007825032230
         H           -1.389640539676    -2.167738161677     0.223255735029     1.007825032230
         H           -1.389653539676     2.167733838323     0.223264735029     1.007825032230
         H           -0.890513539676     1.304913838323    -1.236408264971     1.007825032230
         H           -2.587920539676     1.279326838323    -0.734257264971     1.007825032230

  Basis Set: AUG-CC-PVTZ
    Blend: AUG-CC-PVTZ
  Basis Set: (AUG-CC-PVTZ AUX)
    Blend: AUG-CC-PVTZ-JKFIT
	 Reference Energy          =    -360.8494138222899323 [Eh]
	 Singles Energy            =      -0.0000000000000000 [Eh]
	 Same-Spin Energy          =      -0.3721695331556175 [Eh]
	 Opposite-Spin Energy      =      -1.1867423556254584 [Eh]
	 Correlation Energy        =      -1.5589118887810760 [Eh]
	 Total Energy              =    -362.4083257110710292 [Eh]

	 ================> DF-SCS-MP2 Energies <==================
	-----------------------------------------------------------
	 SCS Same-Spin Scale       =       0.3333333333333333 [-]
	 SCS Opposite-Spin Scale   =       1.2000000000000000 [-]
	 SCS Same-Spin Energy      =      -0.1240565110518725 [Eh]
	 SCS Opposite-Spin Energy  =      -1.4240908267505501 [Eh]
	 SCS Correlation Energy    =      -1.5481473378024226 [Eh]
	 SCS Total Energy          =    -362.3975611600923799 [Eh]
	-----------------------------------------------------------

  Dipole Moment: [D]
     X:    -3.1326      Y:    -0.0000      Z:     1.9091     Total:     3.6685

*** Psi4 exiting successfully. Buy a developer a beer!
