                               Psi4 1.3.2 release

  ==> Input File <==

--------------------------------------------------------------------------
#psi4
#
memory 32 gb

molecule  {
0 1
  O        1.6269320     1.1045440    -0.3563700
  O        1.6269410    -1.1045380    -0.3563700
  N        1.2303420     0.0000010     0.0570950
  C       -1.2290370    -0.0000020     0.4263420
  C       -0.0210656    -0.0000027     0.9071241
  C       -1.4714760    -1.2642140    -0.3967350
  C       -1.4714800     1.2642120    -0.3967320
  H       -1.9318800    -0.0000060     1.2712410
  H        0.3118450     0.8984460     1.6853920
  H        0.3118480    -0.8984510     1.6853890
  H       -0.8055150    -1.3049070    -1.2625520
  H       -2.5029200    -1.2793330    -0.7603930
  H       -1.3046420    -2.1677380     0.1971180
  H       -1.3046550     2.1677340     0.1971270
  H       -0.8055150     1.3049140    -1.2625460
  H       -2.5029220     1.2793270    -0.7603950
units angstrom
no_reorient  #important for SAPT in psi4, default
symmetry c1  #important for SAPT in psi4, default
}

set PROPERTIES_ORIGIN ["COM"]
properties('MP2/aug-cc-pvtz', properties = ['dipole'])
--------------------------------------------------------------------------

    Molecular point group: c1
  Charge       = 0
  Multiplicity = 1
  Basis Set: AUG-CC-PVTZ
    Blend: AUG-CC-PVTZ
  Basis Set: (AUG-CC-PVTZ AUX)
    Blend: AUG-CC-PVTZ-JKFIT

    Orbital Energies [Eh]
    ---------------------

    Doubly Occupied:

       1A    -20.607992     2A    -20.607942     3A    -15.845895
       4A    -11.320219     5A    -11.249465     6A    -11.231185
       7A    -11.231165     8A     -1.584264     9A     -1.385722
      10A     -1.183969    11A     -1.031119    12A     -0.954480
      13A     -0.906687    14A     -0.806563    15A     -0.738371
      16A     -0.725059    17A     -0.694981    18A     -0.651763
      19A     -0.627593    20A     -0.605443    21A     -0.559657
      22A     -0.533610    23A     -0.525810    24A     -0.517492
      25A     -0.504014    26A     -0.466509    27A     -0.456220
      28A     -0.443306

  @DF-RHF Final Energy:  -360.81986356427933

   => Energetics <=

    Nuclear Repulsion Energy =            331.5861847580442259
    One-Electron Energy =               -1148.8191061095858458
    Two-Electron Energy =                 456.4130577872622325
    Total Energy =                       -360.8198635642793306
  Basis Set: (AUG-CC-PVTZ AUX)
    Blend: AUG-CC-PVTZ-RI
    Molecular point group: c1

    Geometry (in Angstrom), charge = 0, multiplicity = 1:

       Center              X                  Y                   Z               Mass
    ------------   -----------------  -----------------  -----------------  -----------------
         O            1.546006028191     1.104543849966    -0.326072220791    15.994914619570
         O            1.546015028191    -1.104538150034    -0.326072220791    15.994914619570
         N            1.149416028191     0.000000849966     0.087392779209    14.003074004430
         C           -1.309962971809    -0.000002150034     0.456639779209    12.000000000000
         C           -0.101991571809    -0.000002850034     0.937421879209    12.000000000000
         C           -1.552401971809    -1.264214150034    -0.366437220791    12.000000000000
         C           -1.552405971809     1.264211849966    -0.366434220791    12.000000000000
         H           -2.012805971809    -0.000006150034     1.301538779209     1.007825032230
         H            0.230919028191     0.898445849966     1.715689779209     1.007825032230
         H            0.230922028191    -0.898451150034     1.715686779209     1.007825032230
         H           -0.886440971809    -1.304907150034    -1.232254220791     1.007825032230
         H           -2.583845971809    -1.279333150034    -0.730095220791     1.007825032230
         H           -1.385567971809    -2.167738150034     0.227415779209     1.007825032230
         H           -1.385580971809     2.167733849966     0.227424779209     1.007825032230
         H           -0.886440971809     1.304913849966    -1.232248220791     1.007825032230
         H           -2.583847971809     1.279326849966    -0.730097220791     1.007825032230

  Basis Set: AUG-CC-PVTZ
    Blend: AUG-CC-PVTZ
  Basis Set: (AUG-CC-PVTZ AUX)
    Blend: AUG-CC-PVTZ-JKFIT
	 Reference Energy          =    -360.8198635642793306 [Eh]
	 Singles Energy            =      -0.0000000000000000 [Eh]
	 Same-Spin Energy          =      -0.3735850970808362 [Eh]
	 Opposite-Spin Energy      =      -1.1891361984790341 [Eh]
	 Correlation Energy        =      -1.5627212955598702 [Eh]
	 Total Energy              =    -362.3825848598391985 [Eh]

	 ================> DF-SCS-MP2 Energies <==================
	-----------------------------------------------------------
	 SCS Same-Spin Scale       =       0.3333333333333333 [-]
	 SCS Opposite-Spin Scale   =       1.2000000000000000 [-]
	 SCS Same-Spin Energy      =      -0.1245283656936121 [Eh]
	 SCS Opposite-Spin Energy  =      -1.4269634381748408 [Eh]
	 SCS Correlation Energy    =      -1.5514918038684529 [Eh]
	 SCS Total Energy          =    -362.3713553681477606 [Eh]
	-----------------------------------------------------------

  Dipole Moment: [D]
     X:    -3.2057      Y:    -0.0000      Z:     1.8102     Total:     3.6815

*** Psi4 exiting successfully. Buy a developer a beer!
