                               Psi4 1.3.2 release

  ==> Input File <==

--------------------------------------------------------------------------
#psi4
#
memory 32 gb

molecule  {
0 1
  O        1.6269320     1.1045440    -0.3563700
  O        1.6269410    -1.1045380    -0.3563700
  N        1.2303420     0.0000010     0.0570950
  C       -1.2290370    -0.0000020     0.4263420
  C        0.0488899    -0.0000024     0.9785821
  C       -1.4714760    -1.2642140    -0.3967350
  C       -1.4714800     1.2642120    -0.3967320
  H       -1.9318800    -0.0000060     1.2712410
  H        0.3118450     0.8984460     1.6853920
  H        0.3118480    -0.8984510     1.6853890
  H       -0.8055150    -1.3049070    -1.2625520
  H       -2.5029200    -1.2793330    -0.7603930
  H       -1.3046420    -2.1677380     0.1971180
  H       -1.3046550     2.1677340     0.1971270
  H       -0.8055150     1.3049140    -1.2625460
  H       -2.5029220     1.2793270    -0.7603950
units angstrom
no_reorient  #important for SAPT in psi4, default
symmetry c1  #important for SAPT in psi4, default
}

set PROPERTIES_ORIGIN ["COM"]
properties('MP2/aug-cc-pvtz', properties = ['dipole'])
--------------------------------------------------------------------------

    Molecular point group: c1
  Charge       = 0
  Multiplicity = 1
  Basis Set: AUG-CC-PVTZ
    Blend: AUG-CC-PVTZ
  Basis Set: (AUG-CC-PVTZ AUX)
    Blend: AUG-CC-PVTZ-JKFIT

    Orbital Energies [Eh]
    ---------------------

    Doubly Occupied:

       1A    -20.607586     2A    -20.607535     3A    -15.845758
       4A    -11.313938     5A    -11.255509     6A    -11.229186
       7A    -11.229169     8A     -1.584819     9A     -1.385782
      10A     -1.164316    11A     -1.036812    12A     -0.950917
      13A     -0.893818    14A     -0.806660    15A     -0.737408
      16A     -0.726447    17A     -0.699057    18A     -0.641870
      19A     -0.627054    20A     -0.608443    21A     -0.557692
      22A     -0.531430    23A     -0.527177    24A     -0.511633
      25A     -0.502941    26A     -0.472630    27A     -0.470781
      28A     -0.447825

  @DF-RHF Final Energy:  -360.87141066280020

   => Energetics <=

    Nuclear Repulsion Energy =            330.3139981182394536
    One-Electron Energy =               -1146.4224277045479994
    Two-Electron Energy =                 455.2370189235084013
    Total Energy =                       -360.8714106628002014
  Basis Set: (AUG-CC-PVTZ AUX)
    Blend: AUG-CC-PVTZ-RI
    Molecular point group: c1

    Geometry (in Angstrom), charge = 0, multiplicity = 1:

       Center              X                  Y                   Z               Mass
    ------------   -----------------  -----------------  -----------------  -----------------
         O            1.537860880815     1.104543815036    -0.334392309151    15.994914619570
         O            1.537869880815    -1.104538184964    -0.334392309151    15.994914619570
         N            1.141270880815     0.000000815036     0.079072690849    14.003074004430
         C           -1.318108119185    -0.000002184964     0.448319690849    12.000000000000
         C           -0.040181219185    -0.000002584964     1.000559790849    12.000000000000
         C           -1.560547119185    -1.264214184964    -0.374757309151    12.000000000000
         C           -1.560551119185     1.264211815036    -0.374754309151    12.000000000000
         H           -2.020951119185    -0.000006184964     1.293218690849     1.007825032230
         H            0.222773880815     0.898445815036     1.707369690849     1.007825032230
         H            0.222776880815    -0.898451184964     1.707366690849     1.007825032230
         H           -0.894586119185    -1.304907184964    -1.240574309151     1.007825032230
         H           -2.591991119185    -1.279333184964    -0.738415309151     1.007825032230
         H           -1.393713119185    -2.167738184964     0.219095690849     1.007825032230
         H           -1.393726119185     2.167733815036     0.219104690849     1.007825032230
         H           -0.894586119185     1.304913815036    -1.240568309151     1.007825032230
         H           -2.591993119185     1.279326815036    -0.738417309151     1.007825032230

  Basis Set: AUG-CC-PVTZ
    Blend: AUG-CC-PVTZ
  Basis Set: (AUG-CC-PVTZ AUX)
    Blend: AUG-CC-PVTZ-JKFIT
	 Reference Energy          =    -360.8714106628002014 [Eh]
	 Singles Energy            =      -0.0000000000000000 [Eh]
	 Same-Spin Energy          =      -0.3710086134581860 [Eh]
	 Opposite-Spin Energy      =      -1.1847731077564418 [Eh]
	 Correlation Energy        =      -1.5557817212146279 [Eh]
	 Total Energy              =    -362.4271923840148020 [Eh]

	 ================> DF-SCS-MP2 Energies <==================
	-----------------------------------------------------------
	 SCS Same-Spin Scale       =       0.3333333333333333 [-]
	 SCS Opposite-Spin Scale   =       1.2000000000000000 [-]
	 SCS Same-Spin Energy      =      -0.1236695378193953 [Eh]
	 SCS Opposite-Spin Energy  =      -1.4217277293077302 [Eh]
	 SCS Correlation Energy    =      -1.5453972671271254 [Eh]
	 SCS Total Energy          =    -362.4168079299273018 [Eh]
	-----------------------------------------------------------

  Dipole Moment: [D]
     X:    -3.0759      Y:    -0.0000      Z:     1.9921     Total:     3.6647

*** Psi4 exiting successfully. Buy a developer a beer!
