                               Psi4 1.3.2 release

  ==> Input File <==

--------------------------------------------------------------------------
#psi4
#
memory 32 gb

molecule  {
0 1
  O        1.6269320     1.1045440    -0.3563700
  O        1.6269410    -1.1045380    -0.3563700
  N        1.2303420     0.0000010     0.0570950
  C       -1.2290370    -0.0000020     0.4263420
  C        0.1188453    -0.0000021     1.0500400
  C       -1.4714760    -1.2642140    -0.3967350
  C       -1.4714800     1.2642120    -0.3967320
  H       -1.9318800    -0.0000060     1.2712410
  H        0.3118450     0.8984460     1.6853920
  H        0.3118480    -0.8984510     1.6853890
  H       -0.8055150    -1.3049070    -1.2625520
  H       -2.5029200    -1.2793330    -0.7603930
  H       -1.3046420    -2.1677380     0.1971180
  H       -1.3046550     2.1677340     0.1971270
  H       -0.8055150     1.3049140    -1.2625460
  H       -2.5029220     1.2793270    -0.7603950
units angstrom
no_reorient  #important for SAPT in psi4, default
symmetry c1  #important for SAPT in psi4, default
}

set PROPERTIES_ORIGIN ["COM"]
properties('MP2/aug-cc-pvtz', properties = ['dipole'])
--------------------------------------------------------------------------

    Molecular point group: c1
  Charge       = 0
  Multiplicity = 1
  Basis Set: AUG-CC-PVTZ
    Blend: AUG-CC-PVTZ
  Basis Set: (AUG-CC-PVTZ AUX)
    Blend: AUG-CC-PVTZ-JKFIT

    Orbital Energies [Eh]
    ---------------------

    Doubly Occupied:

       1A    -20.606684     2A    -20.606634     3A    -15.845682
       4A    -11.308331     5A    -11.261612     6A    -11.228333
       7A    -11.228317     8A     -1.584599     9A     -1.385320
      10A     -1.149737    11A     -1.040509    12A     -0.948673
      13A     -0.884409    14A     -0.805318    15A     -0.737839
      16A     -0.727816    17A     -0.703588    18A     -0.632761
      19A     -0.632416    20A     -0.608866    21A     -0.557051
      22A     -0.540404    23A     -0.520219    24A     -0.504446
      25A     -0.501601    26A     -0.481338    27A     -0.475170
      28A     -0.448319

  @DF-RHF Final Energy:  -360.89575827364985

   => Energetics <=

    Nuclear Repulsion Energy =            329.0889786079707164
    One-Electron Energy =               -1144.0574950344512217
    Two-Electron Energy =                 454.0727581528306587
    Total Energy =                       -360.8957582736498466
  Basis Set: (AUG-CC-PVTZ AUX)
    Blend: AUG-CC-PVTZ-RI
    Molecular point group: c1

    Geometry (in Angstrom), charge = 0, multiplicity = 1:

       Center              X                  Y                   Z               Mass
    ------------   -----------------  -----------------  -----------------  -----------------
         O            1.529715745082     1.104543780106    -0.342712385867    15.994914619570
         O            1.529724745082    -1.104538219894    -0.342712385867    15.994914619570
         N            1.133125745082     0.000000780106     0.070752614133    14.003074004430
         C           -1.326253254918    -0.000002219894     0.439999614133    12.000000000000
         C            0.021629045082    -0.000002319894     1.063697614133    12.000000000000
         C           -1.568692254918    -1.264214219894    -0.383077385867    12.000000000000
         C           -1.568696254918     1.264211780106    -0.383074385867    12.000000000000
         H           -2.029096254918    -0.000006219894     1.284898614133     1.007825032230
         H            0.214628745082     0.898445780106     1.699049614133     1.007825032230
         H            0.214631745082    -0.898451219894     1.699046614133     1.007825032230
         H           -0.902731254918    -1.304907219894    -1.248894385867     1.007825032230
         H           -2.600136254918    -1.279333219894    -0.746735385867     1.007825032230
         H           -1.401858254918    -2.167738219894     0.210775614133     1.007825032230
         H           -1.401871254918     2.167733780106     0.210784614133     1.007825032230
         H           -0.902731254918     1.304913780106    -1.248888385867     1.007825032230
         H           -2.600138254918     1.279326780106    -0.746737385867     1.007825032230

  Basis Set: AUG-CC-PVTZ
    Blend: AUG-CC-PVTZ
  Basis Set: (AUG-CC-PVTZ AUX)
    Blend: AUG-CC-PVTZ-JKFIT
	 Reference Energy          =    -360.8957582736498466 [Eh]
	 Singles Energy            =      -0.0000000000000000 [Eh]
	 Same-Spin Energy          =      -0.3693903562668968 [Eh]
	 Opposite-Spin Energy      =      -1.1820364738449189 [Eh]
	 Correlation Energy        =      -1.5514268301118157 [Eh]
	 Total Energy              =    -362.4471851037616830 [Eh]

	 ================> DF-SCS-MP2 Energies <==================
	-----------------------------------------------------------
	 SCS Same-Spin Scale       =       0.3333333333333333 [-]
	 SCS Opposite-Spin Scale   =       1.2000000000000000 [-]
	 SCS Same-Spin Energy      =      -0.1231301187556322 [Eh]
	 SCS Opposite-Spin Energy  =      -1.4184437686139026 [Eh]
	 SCS Correlation Energy    =      -1.5415738873695348 [Eh]
	 SCS Total Energy          =    -362.4373321610193557 [Eh]
	-----------------------------------------------------------

  Dipole Moment: [D]
     X:    -3.0059      Y:    -0.0000      Z:     2.1203     Total:     3.6785

*** Psi4 exiting successfully. Buy a developer a beer!
