                               Psi4 1.3.2 release

  ==> Input File <==

--------------------------------------------------------------------------
#psi4
#
memory 32 gb

molecule  {
0 1
  O        1.6269320     1.1045440    -0.3563700
  O        1.6269410    -1.1045380    -0.3563700
  N        1.2303420     0.0000010     0.0570950
  C       -1.2290370    -0.0000020     0.4263420
  C        0.0838676    -0.0000023     1.0143111
  C       -1.4714760    -1.2642140    -0.3967350
  C       -1.4714800     1.2642120    -0.3967320
  H       -1.9318800    -0.0000060     1.2712410
  H        0.3118450     0.8984460     1.6853920
  H        0.3118480    -0.8984510     1.6853890
  H       -0.8055150    -1.3049070    -1.2625520
  H       -2.5029200    -1.2793330    -0.7603930
  H       -1.3046420    -2.1677380     0.1971180
  H       -1.3046550     2.1677340     0.1971270
  H       -0.8055150     1.3049140    -1.2625460
  H       -2.5029220     1.2793270    -0.7603950
units angstrom
no_reorient  #important for SAPT in psi4, default
symmetry c1  #important for SAPT in psi4, default
}

set PROPERTIES_ORIGIN ["COM"]
properties('MP2/aug-cc-pvtz', properties = ['dipole'])
--------------------------------------------------------------------------

    Molecular point group: c1
  Charge       = 0
  Multiplicity = 1
  Basis Set: AUG-CC-PVTZ
    Blend: AUG-CC-PVTZ
  Basis Set: (AUG-CC-PVTZ AUX)
    Blend: AUG-CC-PVTZ-JKFIT

    Orbital Energies [Eh]
    ---------------------

    Doubly Occupied:

       1A    -20.607199     2A    -20.607149     3A    -15.845709
       4A    -11.311012     5A    -11.258572     6A    -11.228639
       7A    -11.228623     8A     -1.584807     9A     -1.385617
      10A     -1.156485    11A     -1.038874    12A     -0.949653
      13A     -0.888606    14A     -0.806171    15A     -0.737502
      16A     -0.727117    17A     -0.701400    18A     -0.636891
      19A     -0.629091    20A     -0.608994    21A     -0.557186
      22A     -0.535786    23A     -0.523702    24A     -0.508278
      25A     -0.502263    26A     -0.476839    27A     -0.474377
      28A     -0.448216

  @DF-RHF Final Energy:  -360.88663267372084

   => Energetics <=

    Nuclear Repulsion Energy =            329.6975780363396780
    One-Electron Energy =               -1145.2389033319095688
    Two-Electron Energy =                 454.6546926218490512
    Total Energy =                       -360.8866326737208396
  Basis Set: (AUG-CC-PVTZ AUX)
    Blend: AUG-CC-PVTZ-RI
    Molecular point group: c1

    Geometry (in Angstrom), charge = 0, multiplicity = 1:

       Center              X                  Y                   Z               Mass
    ------------   -----------------  -----------------  -----------------  -----------------
         O            1.533788312948     1.104543803393    -0.338552353330    15.994914619570
         O            1.533797312948    -1.104538196607    -0.338552353330    15.994914619570
         N            1.137198312948     0.000000803393     0.074912646670    14.003074004430
         C           -1.322180687052    -0.000002196607     0.444159646670    12.000000000000
         C           -0.009276087052    -0.000002496607     1.032128746670    12.000000000000
         C           -1.564619687052    -1.264214196607    -0.378917353330    12.000000000000
         C           -1.564623687052     1.264211803393    -0.378914353330    12.000000000000
         H           -2.025023687052    -0.000006196607     1.289058646670     1.007825032230
         H            0.218701312948     0.898445803393     1.703209646670     1.007825032230
         H            0.218704312948    -0.898451196607     1.703206646670     1.007825032230
         H           -0.898658687052    -1.304907196607    -1.244734353330     1.007825032230
         H           -2.596063687052    -1.279333196607    -0.742575353330     1.007825032230
         H           -1.397785687052    -2.167738196607     0.214935646670     1.007825032230
         H           -1.397798687052     2.167733803393     0.214944646670     1.007825032230
         H           -0.898658687052     1.304913803393    -1.244728353330     1.007825032230
         H           -2.596065687052     1.279326803393    -0.742577353330     1.007825032230

  Basis Set: AUG-CC-PVTZ
    Blend: AUG-CC-PVTZ
  Basis Set: (AUG-CC-PVTZ AUX)
    Blend: AUG-CC-PVTZ-JKFIT
	 Reference Energy          =    -360.8866326737208396 [Eh]
	 Singles Energy            =      -0.0000000000000000 [Eh]
	 Same-Spin Energy          =      -0.3700871449571251 [Eh]
	 Opposite-Spin Energy      =      -1.1832107353000429 [Eh]
	 Correlation Energy        =      -1.5532978802571682 [Eh]
	 Total Energy              =    -362.4399305539780016 [Eh]

	 ================> DF-SCS-MP2 Energies <==================
	-----------------------------------------------------------
	 SCS Same-Spin Scale       =       0.3333333333333333 [-]
	 SCS Opposite-Spin Scale   =       1.2000000000000000 [-]
	 SCS Same-Spin Energy      =      -0.1233623816523750 [Eh]
	 SCS Opposite-Spin Energy  =      -1.4198528823600516 [Eh]
	 SCS Correlation Energy    =      -1.5432152640124266 [Eh]
	 SCS Total Energy          =    -362.4298479377332569 [Eh]
	-----------------------------------------------------------

  Dipole Moment: [D]
     X:    -3.0341      Y:    -0.0000      Z:     2.0618     Total:     3.6684

*** Psi4 exiting successfully. Buy a developer a beer!
