                               Psi4 1.3.2 release

  ==> Input File <==

--------------------------------------------------------------------------
#psi4
#
memory 32 gb

molecule  {
-1 1
  C        1.3468810    -0.0622760     0.0000680
  C       -0.2128060     0.0024820    -0.0005800
  O       -0.6939649    -1.1661859    -0.0000146
  O       -0.6853290     1.1759020     0.0001500
  H        1.7383940     0.4614830     0.8803630
  H        1.7085910    -1.0953120     0.0003270
  H        1.7390990     0.4612900    -0.8800270
units angstrom
no_reorient  #important for SAPT in psi4, default
symmetry c1  #important for SAPT in psi4, default
}

set PROPERTIES_ORIGIN ["COM"]
properties('MP2/aug-cc-pvtz', properties = ['dipole'])
--------------------------------------------------------------------------

    Molecular point group: c1
  Charge       = -1
  Multiplicity = 1
  Basis Set: AUG-CC-PVTZ
    Blend: AUG-CC-PVTZ
  Basis Set: (AUG-CC-PVTZ AUX)
    Blend: AUG-CC-PVTZ-JKFIT

    Orbital Energies [Eh]
    ---------------------

    Doubly Occupied:

       1A    -20.294608     2A    -20.293084     3A    -11.137974
       4A    -11.038094     5A     -1.157148     6A     -1.069356
       7A     -0.780990     8A     -0.511628     9A     -0.415455
      10A     -0.409103    11A     -0.404922    12A     -0.360131
      13A     -0.314518    14A     -0.212230    15A     -0.195748
      16A     -0.184294

  @DF-RHF Final Energy:  -227.32256474881817

   => Energetics <=

    Nuclear Repulsion Energy =            111.3597049524053091
    One-Electron Energy =                -539.8059731618931210
    Two-Electron Energy =                 201.1237034606696454
    Total Energy =                       -227.3225647488181664
  Basis Set: (AUG-CC-PVTZ AUX)
    Blend: AUG-CC-PVTZ-RI
    Molecular point group: c1

    Geometry (in Angstrom), charge = -1, multiplicity = 1:

       Center              X                  Y                   Z               Mass
    ------------   -----------------  -----------------  -----------------  -----------------
         C            1.401548721587    -0.049804084699     0.000124090751    12.000000000000
         C           -0.158138278413     0.014953915301    -0.000523909249    12.000000000000
         O           -0.639297178413    -1.153713984699     0.000041490751    15.994914619570
         O           -0.630661278413     1.188373915301     0.000206090751    15.994914619570
         H            1.793061721587     0.473954915301     0.880419090751     1.007825032230
         H            1.763258721587    -1.082840084699     0.000383090751     1.007825032230
         H            1.793766721587     0.473761915301    -0.879970909249     1.007825032230

  Basis Set: AUG-CC-PVTZ
    Blend: AUG-CC-PVTZ
  Basis Set: (AUG-CC-PVTZ AUX)
    Blend: AUG-CC-PVTZ-JKFIT
	 Reference Energy          =    -227.3225647488181664 [Eh]
	 Singles Energy            =      -0.0000000000000000 [Eh]
	 Same-Spin Energy          =      -0.2233342783184053 [Eh]
	 Opposite-Spin Energy      =      -0.6763103565014532 [Eh]
	 Correlation Energy        =      -0.8996446348198586 [Eh]
	 Total Energy              =    -228.2222093836380168 [Eh]

	 ================> DF-SCS-MP2 Energies <==================
	-----------------------------------------------------------
	 SCS Same-Spin Scale       =       0.3333333333333333 [-]
	 SCS Opposite-Spin Scale   =       1.2000000000000000 [-]
	 SCS Same-Spin Energy      =      -0.0744447594394684 [Eh]
	 SCS Opposite-Spin Energy  =      -0.8115724278017439 [Eh]
	 SCS Correlation Energy    =      -0.8860171872412124 [Eh]
	 SCS Total Energy          =    -228.2085819360593746 [Eh]
	-----------------------------------------------------------

  Dipole Moment: [D]
     X:     2.9298      Y:    -0.1061      Z:    -0.0005     Total:     2.9317

*** Psi4 exiting successfully. Buy a developer a beer!
