                               Psi4 1.3.2 release

  ==> Input File <==

--------------------------------------------------------------------------
#psi4
#
memory 32 gb

molecule  {
-1 1
  C        1.3468810    -0.0622760     0.0000680
  C       -0.2128060     0.0024820    -0.0005800
  O       -0.7743149    -1.1297751     0.0000973
  O       -0.6853290     1.1759020     0.0001500
  H        1.7383940     0.4614830     0.8803630
  H        1.7085910    -1.0953120     0.0003270
  H        1.7390990     0.4612900    -0.8800270
units angstrom
no_reorient  #important for SAPT in psi4, default
symmetry c1  #important for SAPT in psi4, default
}

set PROPERTIES_ORIGIN ["COM"]
properties('MP2/aug-cc-pvtz', properties = ['dipole'])
--------------------------------------------------------------------------

    Molecular point group: c1
  Charge       = -1
  Multiplicity = 1
  Basis Set: AUG-CC-PVTZ
    Blend: AUG-CC-PVTZ
  Basis Set: (AUG-CC-PVTZ AUX)
    Blend: AUG-CC-PVTZ-JKFIT

    Orbital Energies [Eh]
    ---------------------

    Doubly Occupied:

       1A    -20.291027     2A    -20.289535     3A    -11.136100
       4A    -11.043842     5A     -1.156224     6A     -1.062556
       7A     -0.785920     8A     -0.511137     9A     -0.414270
      10A     -0.410628    11A     -0.406737    12A     -0.359347
      13A     -0.314846    14A     -0.206899    15A     -0.191170
      16A     -0.189599

  @DF-RHF Final Energy:  -227.32632186245257

   => Energetics <=

    Nuclear Repulsion Energy =            111.2294408119569482
    One-Electron Energy =                -539.5718500998131049
    Two-Electron Energy =                 201.0160874254036116
    Total Energy =                       -227.3263218624525734
  Basis Set: (AUG-CC-PVTZ AUX)
    Blend: AUG-CC-PVTZ-RI
    Molecular point group: c1

    Geometry (in Angstrom), charge = -1, multiplicity = 1:

       Center              X                  Y                   Z               Mass
    ------------   -----------------  -----------------  -----------------  -----------------
         C            1.423326715620    -0.059672836225     0.000093761473    12.000000000000
         C           -0.136360284380     0.005085163775    -0.000554238527    12.000000000000
         O           -0.697869184380    -1.127171936225     0.000123061473    15.994914619570
         O           -0.608883284380     1.178505163775     0.000175761473    15.994914619570
         H            1.814839715620     0.464086163775     0.880388761473     1.007825032230
         H            1.785036715620    -1.092708836225     0.000352761473     1.007825032230
         H            1.815544715620     0.463893163775    -0.880001238527     1.007825032230

  Basis Set: AUG-CC-PVTZ
    Blend: AUG-CC-PVTZ
  Basis Set: (AUG-CC-PVTZ AUX)
    Blend: AUG-CC-PVTZ-JKFIT
	 Reference Energy          =    -227.3263218624525734 [Eh]
	 Singles Energy            =      -0.0000000000000000 [Eh]
	 Same-Spin Energy          =      -0.2230695627936685 [Eh]
	 Opposite-Spin Energy      =      -0.6758291868070627 [Eh]
	 Correlation Energy        =      -0.8988987496007312 [Eh]
	 Total Energy              =    -228.2252206120533060 [Eh]

	 ================> DF-SCS-MP2 Energies <==================
	-----------------------------------------------------------
	 SCS Same-Spin Scale       =       0.3333333333333333 [-]
	 SCS Opposite-Spin Scale   =       1.2000000000000000 [-]
	 SCS Same-Spin Energy      =      -0.0743565209312228 [Eh]
	 SCS Opposite-Spin Energy  =      -0.8109950241684752 [Eh]
	 SCS Correlation Energy    =      -0.8853515450996980 [Eh]
	 SCS Total Energy          =    -228.2116734075522686 [Eh]
	-----------------------------------------------------------

  Dipole Moment: [D]
     X:     3.1384      Y:    -0.1487      Z:    -0.0006     Total:     3.1419

*** Psi4 exiting successfully. Buy a developer a beer!
