                               Psi4 1.4a3.dev225

  ==> Input File <==

--------------------------------------------------------------------------
#psi4
#
memory 32 gb

molecule  {
-1 1
  C       -1.3468330    -0.0622740     0.0000000
  C        0.2133580     0.0025320     0.0000000
  O        0.6924721     1.1944790     0.0000000
  O        0.8132140    -1.1094990     0.0000000
  H       -1.7384280     0.4612170     0.8803030
  H       -1.7384290     0.4612310    -0.8802940
  H       -1.7081110    -1.0953830    -0.0000080
units angstrom
no_reorient  #important for SAPT in psi4, default
symmetry c1  #important for SAPT in psi4, default
}

set PROPERTIES_ORIGIN ["COM"]
properties('MP2/aug-cc-pvtz', properties = ['dipole'])
--------------------------------------------------------------------------

    Molecular point group: c1
  Charge       = -1
  Multiplicity = 1
  Basis Set: AUG-CC-PVTZ
    Blend: AUG-CC-PVTZ
  Basis Set: (AUG-CC-PVTZ AUX)
    Blend: AUG-CC-PVTZ-JKFIT

    Orbital Energies [Eh]
    ---------------------

    Doubly Occupied:

       1A    -20.293887     2A    -20.286783     3A    -11.138951
       4A    -11.048333     5A     -1.151358     6A     -1.054850
       7A     -0.789493     8A     -0.512434     9A     -0.414065
      10A     -0.409282    11A     -0.407604    12A     -0.357719
      13A     -0.313034    14A     -0.204486    15A     -0.192659
      16A     -0.188400

  @DF-RHF Final Energy:  -227.32485750530782

   => Energetics <=

    Nuclear Repulsion Energy =            110.6759643374232951
    One-Electron Energy =                -538.4749632243924680
    Two-Electron Energy =                 200.4741413816613544
    Total Energy =                       -227.3248575053078184
  Basis Set: (AUG-CC-PVTZ AUX)
    Blend: AUG-CC-PVTZ-RI
    Molecular point group: c1

    Geometry (in Angstrom), charge = -1, multiplicity = 1:

       Center              X                  Y                   Z               Mass
    ------------   -----------------  -----------------  -----------------  -----------------
         C           -1.435899018770    -0.070205357644    -0.000000017078    12.000000000000
         C            0.124291981230    -0.005399357644    -0.000000017078    12.000000000000
         O            0.603406081230     1.186547642356    -0.000000017078    15.994914619570
         O            0.724147981230    -1.117430357644    -0.000000017078    15.994914619570
         H           -1.827494018770     0.453285642356     0.880302982922     1.007825032230
         H           -1.827495018770     0.453299642356    -0.880294017078     1.007825032230
         H           -1.797177018770    -1.103314357644    -0.000008017078     1.007825032230

  Basis Set: AUG-CC-PVTZ
    Blend: AUG-CC-PVTZ
  Basis Set: (AUG-CC-PVTZ AUX)
    Blend: AUG-CC-PVTZ-JKFIT
	 Reference Energy          =    -227.3248575053078184 [Eh]
	 Singles Energy            =      -0.0000000000000000 [Eh]
	 Same-Spin Energy          =      -0.2233234816688546 [Eh]
	 Opposite-Spin Energy      =      -0.6766403159716365 [Eh]
	 Correlation Energy        =      -0.8999637976404912 [Eh]
	 Total Energy              =    -228.2248213029482997 [Eh]

	 ================> DF-SCS-MP2 Energies <==================
	-----------------------------------------------------------
	 SCS Same-Spin Scale       =       0.3333333333333333 [-]
	 SCS Opposite-Spin Scale   =       1.2000000000000000 [-]
	 SCS Same-Spin Energy      =      -0.0744411605562849 [Eh]
	 SCS Opposite-Spin Energy  =      -0.8119683791659639 [Eh]
	 SCS Correlation Energy    =      -0.8864095397222488 [Eh]
	 SCS Total Energy          =    -228.2112670450300698 [Eh]
	-----------------------------------------------------------

  Dipole Moment: [D]
     X:    -3.2782      Y:    -0.3134      Z:    -0.0000     Total:     3.2932

*** Psi4 exiting successfully. Buy a developer a beer!
