                               Psi4 1.3.2 release

  ==> Input File <==

--------------------------------------------------------------------------
#psi4
#
memory 32 gb

molecule  {
-1 1
  C        1.3468810    -0.0622760     0.0000680
  C       -0.1128921    -0.0016664    -0.0005385
  O       -0.8134880    -1.1094890     0.0001520
  O       -0.6853290     1.1759020     0.0001500
  H        1.7383940     0.4614830     0.8803630
  H        1.7085910    -1.0953120     0.0003270
  H        1.7390990     0.4612900    -0.8800270
units angstrom
no_reorient  #important for SAPT in psi4, default
symmetry c1  #important for SAPT in psi4, default
}

set PROPERTIES_ORIGIN ["COM"]
properties('MP2/aug-cc-pvtz', properties = ['dipole'])
--------------------------------------------------------------------------

    Molecular point group: c1
  Charge       = -1
  Multiplicity = 1
  Basis Set: AUG-CC-PVTZ
    Blend: AUG-CC-PVTZ
  Basis Set: (AUG-CC-PVTZ AUX)
    Blend: AUG-CC-PVTZ-JKFIT

    Orbital Energies [Eh]
    ---------------------

    Doubly Occupied:

       1A    -20.286768     2A    -20.283211     3A    -11.137741
       4A    -11.056506     5A     -1.130496     6A     -1.026556
       7A     -0.820879     8A     -0.524206     9A     -0.424098
      10A     -0.421683    11A     -0.405877    12A     -0.340356
      13A     -0.295139    14A     -0.207376    15A     -0.188554
      16A     -0.175339

  @DF-RHF Final Energy:  -227.31124152396762

   => Energetics <=

    Nuclear Repulsion Energy =            110.8022053753215062
    One-Electron Energy =                -538.7773252502790911
    Two-Electron Energy =                 200.6638783509899895
    Total Energy =                       -227.3112415239676238
  Basis Set: (AUG-CC-PVTZ AUX)
    Blend: AUG-CC-PVTZ-RI
    Molecular point group: c1

    Geometry (in Angstrom), charge = -1, multiplicity = 1:

       Center              X                  Y                   Z               Mass
    ------------   -----------------  -----------------  -----------------  -----------------
         C            1.413627268748    -0.064327610950     0.000070496857    12.000000000000
         C           -0.046145831252    -0.003718010950    -0.000536003143    12.000000000000
         O           -0.746741731252    -1.111540610950     0.000154496857    15.994914619570
         O           -0.618582731252     1.173850389050     0.000152496857    15.994914619570
         H            1.805140268748     0.459431389050     0.880365496857     1.007825032230
         H            1.775337268748    -1.097363610950     0.000329496857     1.007825032230
         H            1.805845268748     0.459238389050    -0.880024503143     1.007825032230

  Basis Set: AUG-CC-PVTZ
    Blend: AUG-CC-PVTZ
  Basis Set: (AUG-CC-PVTZ AUX)
    Blend: AUG-CC-PVTZ-JKFIT
	 Reference Energy          =    -227.3112415239676238 [Eh]
	 Singles Energy            =      -0.0000000000000000 [Eh]
	 Same-Spin Energy          =      -0.2249688220072917 [Eh]
	 Opposite-Spin Energy      =      -0.6799004841274119 [Eh]
	 Correlation Energy        =      -0.9048693061347036 [Eh]
	 Total Energy              =    -228.2161108301023376 [Eh]

	 ================> DF-SCS-MP2 Energies <==================
	-----------------------------------------------------------
	 SCS Same-Spin Scale       =       0.3333333333333333 [-]
	 SCS Opposite-Spin Scale   =       1.2000000000000000 [-]
	 SCS Same-Spin Energy      =      -0.0749896073357639 [Eh]
	 SCS Opposite-Spin Energy  =      -0.8158805809528943 [Eh]
	 SCS Correlation Energy    =      -0.8908701882886582 [Eh]
	 SCS Total Energy          =    -228.2021117122562828 [Eh]
	-----------------------------------------------------------

  Dipole Moment: [D]
     X:     3.9561      Y:    -0.2021      Z:    -0.0005     Total:     3.9613

*** Psi4 exiting successfully. Buy a developer a beer!
