                               Psi4 1.3.2 release

  ==> Input File <==

--------------------------------------------------------------------------
#psi4
#
memory 32 gb

molecule  {
-1 1
  C        1.3468810    -0.0622760     0.0000680
  C       -0.3127199     0.0066304    -0.0006215
  O       -0.8134880    -1.1094890     0.0001520
  O       -0.6853290     1.1759020     0.0001500
  H        1.7383940     0.4614830     0.8803630
  H        1.7085910    -1.0953120     0.0003270
  H        1.7390990     0.4612900    -0.8800270
units angstrom
no_reorient  #important for SAPT in psi4, default
symmetry c1  #important for SAPT in psi4, default
}

set PROPERTIES_ORIGIN ["COM"]
properties('MP2/aug-cc-pvtz', properties = ['dipole'])
--------------------------------------------------------------------------

    Molecular point group: c1
  Charge       = -1
  Multiplicity = 1
  Basis Set: AUG-CC-PVTZ
    Blend: AUG-CC-PVTZ
  Basis Set: (AUG-CC-PVTZ AUX)
    Blend: AUG-CC-PVTZ-JKFIT

    Orbital Energies [Eh]
    ---------------------

    Doubly Occupied:

       1A    -20.297192     2A    -20.294456     3A    -11.137758
       4A    -11.031589     5A     -1.182226     6A     -1.094396
       7A     -0.759498     8A     -0.505379     9A     -0.417700
      10A     -0.416152    11A     -0.399942    12A     -0.364413
      13A     -0.329704    14A     -0.220750    15A     -0.205163
      16A     -0.168551

  @DF-RHF Final Energy:  -227.32141622316794

   => Energetics <=

    Nuclear Repulsion Energy =            111.5666944806946219
    One-Electron Energy =                -540.1264807152188041
    Two-Electron Energy =                 201.2383700113562099
    Total Energy =                       -227.3214162231679438
  Basis Set: (AUG-CC-PVTZ AUX)
    Blend: AUG-CC-PVTZ-RI
    Molecular point group: c1

    Geometry (in Angstrom), charge = -1, multiplicity = 1:

       Center              X                  Y                   Z               Mass
    ------------   -----------------  -----------------  -----------------  -----------------
         C            1.454261048317    -0.066014715259     0.000087374407    12.000000000000
         C           -0.205339851683     0.002891684741    -0.000602125593    12.000000000000
         O           -0.706107951683    -1.113227715259     0.000171374407    15.994914619570
         O           -0.577948951683     1.172163284741     0.000169374407    15.994914619570
         H            1.845774048317     0.457744284741     0.880382374407     1.007825032230
         H            1.815971048317    -1.099050715259     0.000346374407     1.007825032230
         H            1.846479048317     0.457551284741    -0.880007625593     1.007825032230

  Basis Set: AUG-CC-PVTZ
    Blend: AUG-CC-PVTZ
  Basis Set: (AUG-CC-PVTZ AUX)
    Blend: AUG-CC-PVTZ-JKFIT
	 Reference Energy          =    -227.3214162231679438 [Eh]
	 Singles Energy            =      -0.0000000000000000 [Eh]
	 Same-Spin Energy          =      -0.2222477774340827 [Eh]
	 Opposite-Spin Energy      =      -0.6736214821159152 [Eh]
	 Correlation Energy        =      -0.8958692595499980 [Eh]
	 Total Energy              =    -228.2172854827179549 [Eh]

	 ================> DF-SCS-MP2 Energies <==================
	-----------------------------------------------------------
	 SCS Same-Spin Scale       =       0.3333333333333333 [-]
	 SCS Opposite-Spin Scale   =       1.2000000000000000 [-]
	 SCS Same-Spin Energy      =      -0.0740825924780276 [Eh]
	 SCS Opposite-Spin Energy  =      -0.8083457785390983 [Eh]
	 SCS Correlation Energy    =      -0.8824283710171259 [Eh]
	 SCS Total Energy          =    -228.2038445941850568 [Eh]
	-----------------------------------------------------------

  Dipole Moment: [D]
     X:     2.3085      Y:    -0.1442      Z:    -0.0009     Total:     2.3130

*** Psi4 exiting successfully. Buy a developer a beer!
