                               Psi4 1.3.2 release

  ==> Input File <==

--------------------------------------------------------------------------
#psi4
#
memory 32 gb

molecule  {
-1 1
  C        1.3315679    -0.2249529    -0.0000695
  C       -0.2128060     0.0024820    -0.0005800
  O       -0.8134880    -1.1094890     0.0001520
  O       -0.6853290     1.1759020     0.0001500
  H        1.7383940     0.4614830     0.8803630
  H        1.7085910    -1.0953120     0.0003270
  H        1.7390990     0.4612900    -0.8800270
units angstrom
no_reorient  #important for SAPT in psi4, default
symmetry c1  #important for SAPT in psi4, default
}

set PROPERTIES_ORIGIN ["COM"]
properties('MP2/aug-cc-pvtz', properties = ['dipole'])
--------------------------------------------------------------------------

    Molecular point group: c1
  Charge       = -1
  Multiplicity = 1
  Basis Set: AUG-CC-PVTZ
    Blend: AUG-CC-PVTZ
  Basis Set: (AUG-CC-PVTZ AUX)
    Blend: AUG-CC-PVTZ-JKFIT

    Orbital Energies [Eh]
    ---------------------

    Doubly Occupied:

       1A    -20.291834     2A    -20.287347     3A    -11.138335
       4A    -11.052835     5A     -1.157519     6A     -1.060709
       7A     -0.792776     8A     -0.524090     9A     -0.439586
      10A     -0.410425    11A     -0.382267    12A     -0.368833
      13A     -0.294259    14A     -0.208370    15A     -0.190617
      16A     -0.189408

  @DF-RHF Final Energy:  -227.29383872418089

   => Energetics <=

    Nuclear Repulsion Energy =            111.2234281911959357
    One-Electron Energy =                -539.4561150471986366
    Two-Electron Energy =                 200.9388481318218282
    Total Energy =                       -227.2938387241808869
  Basis Set: (AUG-CC-PVTZ AUX)
    Blend: AUG-CC-PVTZ-RI
    Molecular point group: c1

    Geometry (in Angstrom), charge = -1, multiplicity = 1:

       Center              X                  Y                   Z               Mass
    ------------   -----------------  -----------------  -----------------  -----------------
         C            1.421744885187    -0.194768695291    -0.000030604571    12.000000000000
         C           -0.122629014813     0.032666204709    -0.000541104571    12.000000000000
         O           -0.723311014813    -1.079304795291     0.000190895429    15.994914619570
         O           -0.595152014813     1.206086204709     0.000188895429    15.994914619570
         H            1.828570985187     0.491667204709     0.880401895429     1.007825032230
         H            1.798767985187    -1.065127795291     0.000365895429     1.007825032230
         H            1.829275985187     0.491474204709    -0.879988104571     1.007825032230

  Basis Set: AUG-CC-PVTZ
    Blend: AUG-CC-PVTZ
  Basis Set: (AUG-CC-PVTZ AUX)
    Blend: AUG-CC-PVTZ-JKFIT
	 Reference Energy          =    -227.2938387241808869 [Eh]
	 Singles Energy            =      -0.0000000000000000 [Eh]
	 Same-Spin Energy          =      -0.2234887562896288 [Eh]
	 Opposite-Spin Energy      =      -0.6769818908606119 [Eh]
	 Correlation Energy        =      -0.9004706471502407 [Eh]
	 Total Energy              =    -228.1943093713311157 [Eh]

	 ================> DF-SCS-MP2 Energies <==================
	-----------------------------------------------------------
	 SCS Same-Spin Scale       =       0.3333333333333333 [-]
	 SCS Opposite-Spin Scale   =       1.2000000000000000 [-]
	 SCS Same-Spin Energy      =      -0.0744962520965429 [Eh]
	 SCS Opposite-Spin Energy  =      -0.8123782690327342 [Eh]
	 SCS Correlation Energy    =      -0.8868745211292772 [Eh]
	 SCS Total Energy          =    -228.1807132453101588 [Eh]
	-----------------------------------------------------------

  Dipole Moment: [D]
     X:     3.1672      Y:    -0.4199      Z:    -0.0009     Total:     3.1949

*** Psi4 exiting successfully. Buy a developer a beer!
