                               Psi4 1.3.2 release

  ==> Input File <==

--------------------------------------------------------------------------
#psi4
#
memory 32 gb

molecule  {
-1 1
  C        1.3468810    -0.0622760     0.0000680
  C       -0.2128060     0.0024820    -0.0005800
  O       -0.8328031    -1.0988363     0.0001790
  O       -0.6853290     1.1759020     0.0001500
  H        1.7383940     0.4614830     0.8803630
  H        1.7085910    -1.0953120     0.0003270
  H        1.7390990     0.4612900    -0.8800270
units angstrom
no_reorient  #important for SAPT in psi4, default
symmetry c1  #important for SAPT in psi4, default
}

set PROPERTIES_ORIGIN ["COM"]
properties('MP2/aug-cc-pvtz', properties = ['dipole'])
--------------------------------------------------------------------------

    Molecular point group: c1
  Charge       = -1
  Multiplicity = 1
  Basis Set: AUG-CC-PVTZ
    Blend: AUG-CC-PVTZ
  Basis Set: (AUG-CC-PVTZ AUX)
    Blend: AUG-CC-PVTZ-JKFIT

    Orbital Energies [Eh]
    ---------------------

    Doubly Occupied:

       1A    -20.289306     2A    -20.285625     3A    -11.134723
       4A    -11.048051     5A     -1.155770     6A     -1.057220
       7A     -0.789440     8A     -0.510881     9A     -0.413984
      10A     -0.411313    11A     -0.408219    12A     -0.358506
      13A     -0.314895    14A     -0.202416    15A     -0.192881
      16A     -0.187570

  @DF-RHF Final Energy:  -227.32712060012432

   => Energetics <=

    Nuclear Repulsion Energy =            111.1693924403311371
    One-Electron Energy =                -539.4714266724056415
    Two-Electron Energy =                 200.9749136319501872
    Total Energy =                       -227.3271206001243172
  Basis Set: (AUG-CC-PVTZ AUX)
    Blend: AUG-CC-PVTZ-RI
    Molecular point group: c1

    Geometry (in Angstrom), charge = -1, multiplicity = 1:

       Center              X                  Y                   Z               Mass
    ------------   -----------------  -----------------  -----------------  -----------------
         C            1.439179306417    -0.068058461636     0.000071617576    12.000000000000
         C           -0.120507693583    -0.003300461636    -0.000576382424    12.000000000000
         O           -0.740504793583    -1.104618761636     0.000182617576    15.994914619570
         O           -0.593030693583     1.170119538364     0.000153617576    15.994914619570
         H            1.830692306417     0.455700538364     0.880366617576     1.007825032230
         H            1.800889306417    -1.101094461636     0.000330617576     1.007825032230
         H            1.831397306417     0.455507538364    -0.880023382424     1.007825032230

  Basis Set: AUG-CC-PVTZ
    Blend: AUG-CC-PVTZ
  Basis Set: (AUG-CC-PVTZ AUX)
    Blend: AUG-CC-PVTZ-JKFIT
	 Reference Energy          =    -227.3271206001243172 [Eh]
	 Singles Energy            =      -0.0000000000000000 [Eh]
	 Same-Spin Energy          =      -0.2229524141053146 [Eh]
	 Opposite-Spin Energy      =      -0.6756249422228239 [Eh]
	 Correlation Energy        =      -0.8985773563281385 [Eh]
	 Total Energy              =    -228.2256979564524499 [Eh]

	 ================> DF-SCS-MP2 Energies <==================
	-----------------------------------------------------------
	 SCS Same-Spin Scale       =       0.3333333333333333 [-]
	 SCS Opposite-Spin Scale   =       1.2000000000000000 [-]
	 SCS Same-Spin Energy      =      -0.0743174713684382 [Eh]
	 SCS Opposite-Spin Energy  =      -0.8107499306673887 [Eh]
	 SCS Correlation Energy    =      -0.8850674020358269 [Eh]
	 SCS Total Energy          =    -228.2121880021601328 [Eh]
	-----------------------------------------------------------

  Dipole Moment: [D]
     X:     3.2888      Y:    -0.1884      Z:    -0.0007     Total:     3.2942

*** Psi4 exiting successfully. Buy a developer a beer!
