                               Psi4 1.3.2 release

  ==> Input File <==

--------------------------------------------------------------------------
#psi4
#
memory 32 gb

molecule  {
-1 1
  C        1.3468810    -0.0622760     0.0000680
  C       -0.2128060     0.0024820    -0.0005800
  O       -0.7344577    -1.1486818     0.0000417
  O       -0.6853290     1.1759020     0.0001500
  H        1.7383940     0.4614830     0.8803630
  H        1.7085910    -1.0953120     0.0003270
  H        1.7390990     0.4612900    -0.8800270
units angstrom
no_reorient  #important for SAPT in psi4, default
symmetry c1  #important for SAPT in psi4, default
}

set PROPERTIES_ORIGIN ["COM"]
properties('MP2/aug-cc-pvtz', properties = ['dipole'])
--------------------------------------------------------------------------

    Molecular point group: c1
  Charge       = -1
  Multiplicity = 1
  Basis Set: AUG-CC-PVTZ
    Blend: AUG-CC-PVTZ
  Basis Set: (AUG-CC-PVTZ AUX)
    Blend: AUG-CC-PVTZ-JKFIT

    Orbital Energies [Eh]
    ---------------------

    Doubly Occupied:

       1A    -20.292105     2A    -20.292074     3A    -11.137031
       4A    -11.040985     5A     -1.156640     6A     -1.065998
       7A     -0.783489     8A     -0.511360     9A     -0.414785
      10A     -0.409915    11A     -0.405803    12A     -0.359776
      13A     -0.314722    14A     -0.209671    15A     -0.193489
      16A     -0.187075

  @DF-RHF Final Energy:  -227.32483420482498

   => Energetics <=

    Nuclear Repulsion Energy =            111.2873379937592233
    One-Electron Energy =                -539.6745040809958027
    Two-Electron Energy =                 201.0623318824115699
    Total Energy =                       -227.3248342048249810
  Basis Set: (AUG-CC-PVTZ AUX)
    Blend: AUG-CC-PVTZ-RI
    Molecular point group: c1

    Geometry (in Angstrom), charge = -1, multiplicity = 1:

       Center              X                  Y                   Z               Mass
    ------------   -----------------  -----------------  -----------------  -----------------
         C            1.412523854838    -0.054548380721     0.000108831248    12.000000000000
         C           -0.147163145162     0.010209619279    -0.000539168752    12.000000000000
         O           -0.668814845162    -1.140954180721     0.000082531248    15.994914619570
         O           -0.619686145162     1.183629619279     0.000190831248    15.994914619570
         H            1.804036854838     0.469210619279     0.880403831248     1.007825032230
         H            1.774233854838    -1.087584380721     0.000367831248     1.007825032230
         H            1.804741854838     0.469017619279    -0.879986168752     1.007825032230

  Basis Set: AUG-CC-PVTZ
    Blend: AUG-CC-PVTZ
  Basis Set: (AUG-CC-PVTZ AUX)
    Blend: AUG-CC-PVTZ-JKFIT
	 Reference Energy          =    -227.3248342048249810 [Eh]
	 Singles Energy            =      -0.0000000000000000 [Eh]
	 Same-Spin Energy          =      -0.2231860798150692 [Eh]
	 Opposite-Spin Energy      =      -0.6760399185317975 [Eh]
	 Correlation Energy        =      -0.8992259983468667 [Eh]
	 Total Energy              =    -228.2240602031718595 [Eh]

	 ================> DF-SCS-MP2 Energies <==================
	-----------------------------------------------------------
	 SCS Same-Spin Scale       =       0.3333333333333333 [-]
	 SCS Opposite-Spin Scale   =       1.2000000000000000 [-]
	 SCS Same-Spin Energy      =      -0.0743953599383564 [Eh]
	 SCS Opposite-Spin Energy  =      -0.8112479022381569 [Eh]
	 SCS Correlation Energy    =      -0.8856432621765133 [Eh]
	 SCS Total Energy          =    -228.2104774670014820 [Eh]
	-----------------------------------------------------------

  Dipole Moment: [D]
     X:     3.0352      Y:    -0.1259      Z:    -0.0006     Total:     3.0378

*** Psi4 exiting successfully. Buy a developer a beer!
