                               Psi4 1.4a3.dev225

  ==> Input File <==

--------------------------------------------------------------------------
#psi4
#
memory 32 gb

molecule  {
-1 1
  C       -1.3468330    -0.0622740     0.0000000
  C        0.2333408     0.0033620     0.0000000
  O        0.6850130     1.1759220     0.0000000
  O        0.8132140    -1.1094990     0.0000000
  H       -1.7384280     0.4612170     0.8803030
  H       -1.7384290     0.4612310    -0.8802940
  H       -1.7081110    -1.0953830    -0.0000080
units angstrom
no_reorient  #important for SAPT in psi4, default
symmetry c1  #important for SAPT in psi4, default
}

set PROPERTIES_ORIGIN ["COM"]
properties('MP2/aug-cc-pvtz', properties = ['dipole'])
--------------------------------------------------------------------------

    Molecular point group: c1
  Charge       = -1
  Multiplicity = 1
  Basis Set: AUG-CC-PVTZ
    Blend: AUG-CC-PVTZ
  Basis Set: (AUG-CC-PVTZ AUX)
    Blend: AUG-CC-PVTZ-JKFIT

    Orbital Energies [Eh]
    ---------------------

    Doubly Occupied:

       1A    -20.290980     2A    -20.288103     3A    -11.135152
       4A    -11.043921     5A     -1.161284     6A     -1.066138
       7A     -0.782093     8A     -0.509061     9A     -0.413239
      10A     -0.412214    11A     -0.405472    12A     -0.361338
      13A     -0.318588    14A     -0.207284    15A     -0.191917
      16A     -0.187645

  @DF-RHF Final Energy:  -227.32746615373611

   => Energetics <=

    Nuclear Repulsion Energy =            111.2759718582981066
    One-Electron Energy =                -539.6580215063668220
    Two-Electron Energy =                 201.0545834943325758
    Total Energy =                       -227.3274661537361112
  Basis Set: (AUG-CC-PVTZ AUX)
    Blend: AUG-CC-PVTZ-RI
    Molecular point group: c1

    Geometry (in Angstrom), charge = -1, multiplicity = 1:

       Center              X                  Y                   Z               Mass
    ------------   -----------------  -----------------  -----------------  -----------------
         C           -1.437940692825    -0.065344460024    -0.000000017078    12.000000000000
         C            0.142233107175     0.000291539976    -0.000000017078    12.000000000000
         O            0.593905307175     1.172851539976    -0.000000017078    15.994914619570
         O            0.722106307175    -1.112569460024    -0.000000017078    15.994914619570
         H           -1.829535692825     0.458146539976     0.880302982922     1.007825032230
         H           -1.829536692825     0.458160539976    -0.880294017078     1.007825032230
         H           -1.799218692825    -1.098453460024    -0.000008017078     1.007825032230

  Basis Set: AUG-CC-PVTZ
    Blend: AUG-CC-PVTZ
  Basis Set: (AUG-CC-PVTZ AUX)
    Blend: AUG-CC-PVTZ-JKFIT
	 Reference Energy          =    -227.3274661537361112 [Eh]
	 Singles Energy            =      -0.0000000000000000 [Eh]
	 Same-Spin Energy          =      -0.2227295741827919 [Eh]
	 Opposite-Spin Energy      =      -0.6750716515399926 [Eh]
	 Correlation Energy        =      -0.8978012257227845 [Eh]
	 Total Energy              =    -228.2252673794588986 [Eh]

	 ================> DF-SCS-MP2 Energies <==================
	-----------------------------------------------------------
	 SCS Same-Spin Scale       =       0.3333333333333333 [-]
	 SCS Opposite-Spin Scale   =       1.2000000000000000 [-]
	 SCS Same-Spin Energy      =      -0.0742431913942640 [Eh]
	 SCS Opposite-Spin Energy  =      -0.8100859818479911 [Eh]
	 SCS Correlation Energy    =      -0.8843291732422550 [Eh]
	 SCS Total Energy          =    -228.2117953269783754 [Eh]
	-----------------------------------------------------------

  Dipole Moment: [D]
     X:    -3.0658      Y:    -0.1685      Z:    -0.0000     Total:     3.0704

*** Psi4 exiting successfully. Buy a developer a beer!
