                               Psi4 1.3.2 release

  ==> Input File <==

--------------------------------------------------------------------------
#psi4
#
memory 32 gb

molecule  {
-1 1
  C        1.3468810    -0.0622760     0.0000680
  C       -0.2128060     0.0024820    -0.0005800
  O       -0.8610162    -1.1974723     0.0002099
  O       -0.6853290     1.1759020     0.0001500
  H        1.7383940     0.4614830     0.8803630
  H        1.7085910    -1.0953120     0.0003270
  H        1.7390990     0.4612900    -0.8800270
units angstrom
no_reorient  #important for SAPT in psi4, default
symmetry c1  #important for SAPT in psi4, default
}

set PROPERTIES_ORIGIN ["COM"]
properties('MP2/aug-cc-pvtz', properties = ['dipole'])
--------------------------------------------------------------------------

    Molecular point group: c1
  Charge       = -1
  Multiplicity = 1
  Basis Set: AUG-CC-PVTZ
    Blend: AUG-CC-PVTZ
  Basis Set: (AUG-CC-PVTZ AUX)
    Blend: AUG-CC-PVTZ-JKFIT

    Orbital Energies [Eh]
    ---------------------

    Doubly Occupied:

       1A    -20.306178     2A    -20.289084     3A    -11.153038
       4A    -11.055587     5A     -1.142692     6A     -1.030549
       7A     -0.795431     8A     -0.519327     9A     -0.414794
      10A     -0.410026    11A     -0.404045    12A     -0.352011
      13A     -0.306562    14A     -0.205378    15A     -0.194781
      16A     -0.185412

  @DF-RHF Final Energy:  -227.30926281059249

   => Energetics <=

    Nuclear Repulsion Energy =            108.6954927673202747
    One-Electron Energy =                -534.4797246817561245
    Two-Electron Energy =                 198.4749691038433639
    Total Energy =                       -227.3092628105924859
  Basis Set: (AUG-CC-PVTZ AUX)
    Blend: AUG-CC-PVTZ-RI
    Molecular point group: c1

    Geometry (in Angstrom), charge = -1, multiplicity = 1:

       Center              X                  Y                   Z               Mass
    ------------   -----------------  -----------------  -----------------  -----------------
         C            1.446826160474    -0.041324246087     0.000063242467    12.000000000000
         C           -0.112860839526     0.023433753913    -0.000584757533    12.000000000000
         O           -0.761071039526    -1.176520546087     0.000205142467    15.994914619570
         O           -0.585383839526     1.196853753913     0.000145242467    15.994914619570
         H            1.838339160474     0.482434753913     0.880358242467     1.007825032230
         H            1.808536160474    -1.074360246087     0.000322242467     1.007825032230
         H            1.839044160474     0.482241753913    -0.880031757533     1.007825032230

  Basis Set: AUG-CC-PVTZ
    Blend: AUG-CC-PVTZ
  Basis Set: (AUG-CC-PVTZ AUX)
    Blend: AUG-CC-PVTZ-JKFIT
	 Reference Energy          =    -227.3092628105924859 [Eh]
	 Singles Energy            =      -0.0000000000000000 [Eh]
	 Same-Spin Energy          =      -0.2247546186583071 [Eh]
	 Opposite-Spin Energy      =      -0.6807678682768614 [Eh]
	 Correlation Energy        =      -0.9055224869351686 [Eh]
	 Total Energy              =    -228.2147852975276408 [Eh]

	 ================> DF-SCS-MP2 Energies <==================
	-----------------------------------------------------------
	 SCS Same-Spin Scale       =       0.3333333333333333 [-]
	 SCS Opposite-Spin Scale   =       1.2000000000000000 [-]
	 SCS Same-Spin Energy      =      -0.0749182062194357 [Eh]
	 SCS Opposite-Spin Energy  =      -0.8169214419322337 [Eh]
	 SCS Correlation Energy    =      -0.8918396481516694 [Eh]
	 SCS Total Energy          =    -228.2011024587441455 [Eh]
	-----------------------------------------------------------

  Dipole Moment: [D]
     X:     3.5248      Y:     0.4806      Z:    -0.0007     Total:     3.5574

*** Psi4 exiting successfully. Buy a developer a beer!
