                               Psi4 1.3.2 release

  ==> Input File <==

--------------------------------------------------------------------------
#psi4
#
memory 32 gb

molecule  {
-1 1
  C        1.3468810    -0.0622760     0.0000680
  C       -0.0129782    -0.0058148    -0.0004970
  O       -0.8134880    -1.1094890     0.0001520
  O       -0.6853290     1.1759020     0.0001500
  H        1.7383940     0.4614830     0.8803630
  H        1.7085910    -1.0953120     0.0003270
  H        1.7390990     0.4612900    -0.8800270
units angstrom
no_reorient  #important for SAPT in psi4, default
symmetry c1  #important for SAPT in psi4, default
}

set PROPERTIES_ORIGIN ["COM"]
properties('MP2/aug-cc-pvtz', properties = ['dipole'])
--------------------------------------------------------------------------

    Molecular point group: c1
  Charge       = -1
  Multiplicity = 1
  Basis Set: AUG-CC-PVTZ
    Blend: AUG-CC-PVTZ
  Basis Set: (AUG-CC-PVTZ AUX)
    Blend: AUG-CC-PVTZ-JKFIT

    Orbital Energies [Eh]
    ---------------------

    Doubly Occupied:

       1A    -20.285839     2A    -20.281281     3A    -11.142557
       4A    -11.062264     5A     -1.106295     6A     -0.996914
       7A     -0.858182     8A     -0.541652     9A     -0.439475
      10A     -0.438966    11A     -0.399820    12A     -0.315905
      13A     -0.274007    14A     -0.215298    15A     -0.174519
      16A     -0.164138

  @DF-RHF Final Energy:  -227.26852644919157

   => Energetics <=

    Nuclear Repulsion Energy =            110.4882858329901012
    One-Electron Energy =                -538.1194025176345122
    Two-Electron Energy =                 200.3625902354528705
    Total Energy =                       -227.2685264491915689
  Basis Set: (AUG-CC-PVTZ AUX)
    Blend: AUG-CC-PVTZ-RI
    Molecular point group: c1

    Geometry (in Angstrom), charge = -1, multiplicity = 1:

       Center              X                  Y                   Z               Mass
    ------------   -----------------  -----------------  -----------------  -----------------
         C            1.393310378964    -0.063484058796     0.000062058082    12.000000000000
         C            0.033451178964    -0.007022858796    -0.000502941918    12.000000000000
         O           -0.767058621036    -1.110697058796     0.000146058082    15.994914619570
         O           -0.638899621036     1.174693941204     0.000144058082    15.994914619570
         H            1.784823378964     0.460274941204     0.880357058082     1.007825032230
         H            1.755020378964    -1.096520058796     0.000321058082     1.007825032230
         H            1.785528378964     0.460081941204    -0.880032941918     1.007825032230

  Basis Set: AUG-CC-PVTZ
    Blend: AUG-CC-PVTZ
  Basis Set: (AUG-CC-PVTZ AUX)
    Blend: AUG-CC-PVTZ-JKFIT
	 Reference Energy          =    -227.2685264491915689 [Eh]
	 Singles Energy            =      -0.0000000000000000 [Eh]
	 Same-Spin Energy          =      -0.2281493461010328 [Eh]
	 Opposite-Spin Energy      =      -0.6862271815803360 [Eh]
	 Correlation Energy        =      -0.9143765276813689 [Eh]
	 Total Energy              =    -228.1829029768729242 [Eh]

	 ================> DF-SCS-MP2 Energies <==================
	-----------------------------------------------------------
	 SCS Same-Spin Scale       =       0.3333333333333333 [-]
	 SCS Opposite-Spin Scale   =       1.2000000000000000 [-]
	 SCS Same-Spin Energy      =      -0.0760497820336776 [Eh]
	 SCS Opposite-Spin Energy  =      -0.8234726178964032 [Eh]
	 SCS Correlation Energy    =      -0.8995223999300809 [Eh]
	 SCS Total Energy          =    -228.1680488491216465 [Eh]
	-----------------------------------------------------------

  Dipole Moment: [D]
     X:     4.5318      Y:    -0.2328      Z:    -0.0003     Total:     4.5378

*** Psi4 exiting successfully. Buy a developer a beer!
