                               Psi4 1.3.2 release

  ==> Input File <==

--------------------------------------------------------------------------
#psi4
#
memory 32 gb

molecule  {
-1 1
  C        1.3468810    -0.0622760     0.0000680
  C       -0.2128060     0.0024820    -0.0005800
  O       -0.7659598    -1.0215057     0.0000941
  O       -0.6853290     1.1759020     0.0001500
  H        1.7383940     0.4614830     0.8803630
  H        1.7085910    -1.0953120     0.0003270
  H        1.7390990     0.4612900    -0.8800270
units angstrom
no_reorient  #important for SAPT in psi4, default
symmetry c1  #important for SAPT in psi4, default
}

set PROPERTIES_ORIGIN ["COM"]
properties('MP2/aug-cc-pvtz', properties = ['dipole'])
--------------------------------------------------------------------------

    Molecular point group: c1
  Charge       = -1
  Multiplicity = 1
  Basis Set: AUG-CC-PVTZ
    Blend: AUG-CC-PVTZ
  Basis Set: (AUG-CC-PVTZ AUX)
    Blend: AUG-CC-PVTZ-JKFIT

    Orbital Energies [Eh]
    ---------------------

    Doubly Occupied:

       1A    -20.290169     2A    -20.266765     3A    -11.114369
       4A    -11.036716     5A     -1.201477     6A     -1.065756
       7A     -0.781420     8A     -0.505494     9A     -0.428232
      10A     -0.415316    11A     -0.411120    12A     -0.360706
      13A     -0.329189    14A     -0.200580    15A     -0.188239
      16A     -0.182373

  @DF-RHF Final Energy:  -227.32307503397826

   => Energetics <=

    Nuclear Repulsion Energy =            113.9906838629330821
    One-Electron Energy =                -545.0716764837105757
    Two-Electron Energy =                 203.7579175867992092
    Total Energy =                       -227.3230750339782560
  Basis Set: (AUG-CC-PVTZ AUX)
    Blend: AUG-CC-PVTZ-RI
    Molecular point group: c1

    Geometry (in Angstrom), charge = -1, multiplicity = 1:

       Center              X                  Y                   Z               Mass
    ------------   -----------------  -----------------  -----------------  -----------------
         C            1.421062156591    -0.089018080122     0.000094628798    12.000000000000
         C           -0.138624843409    -0.024260080122    -0.000553371202    12.000000000000
         O           -0.691778643409    -1.048247780122     0.000120728798    15.994914619570
         O           -0.611147843409     1.149159919878     0.000176628798    15.994914619570
         H            1.812575156591     0.434740919878     0.880389628798     1.007825032230
         H            1.782772156591    -1.122054080122     0.000353628798     1.007825032230
         H            1.813280156591     0.434547919878    -0.880000371202     1.007825032230

  Basis Set: AUG-CC-PVTZ
    Blend: AUG-CC-PVTZ
  Basis Set: (AUG-CC-PVTZ AUX)
    Blend: AUG-CC-PVTZ-JKFIT
	 Reference Energy          =    -227.3230750339782560 [Eh]
	 Singles Energy            =      -0.0000000000000000 [Eh]
	 Same-Spin Energy          =      -0.2211834702286831 [Eh]
	 Opposite-Spin Energy      =      -0.6706294926391003 [Eh]
	 Correlation Energy        =      -0.8918129628677833 [Eh]
	 Total Energy              =    -228.2148879968460449 [Eh]

	 ================> DF-SCS-MP2 Energies <==================
	-----------------------------------------------------------
	 SCS Same-Spin Scale       =       0.3333333333333333 [-]
	 SCS Opposite-Spin Scale   =       1.2000000000000000 [-]
	 SCS Same-Spin Energy      =      -0.0737278234095610 [Eh]
	 SCS Opposite-Spin Energy  =      -0.8047553911669204 [Eh]
	 SCS Correlation Energy    =      -0.8784832145764814 [Eh]
	 SCS Total Energy          =    -228.2015582485547327 [Eh]
	-----------------------------------------------------------

  Dipole Moment: [D]
     X:     2.9381      Y:    -0.8626      Z:    -0.0007     Total:     3.0621

*** Psi4 exiting successfully. Buy a developer a beer!
