                               Psi4 1.4a3.dev225

  ==> Input File <==

--------------------------------------------------------------------------
#psi4
#
memory 32 gb

molecule  {
-1 1
  C       -1.3468330    -0.0622740     0.0000000
  C        0.2133580     0.0025320     0.0000000
  O        0.6663651     1.1295296     0.0000000
  O        0.8132140    -1.1094990     0.0000000
  H       -1.7384280     0.4612170     0.8803030
  H       -1.7384290     0.4612310    -0.8802940
  H       -1.7081110    -1.0953830    -0.0000080
units angstrom
no_reorient  #important for SAPT in psi4, default
symmetry c1  #important for SAPT in psi4, default
}

set PROPERTIES_ORIGIN ["COM"]
properties('MP2/aug-cc-pvtz', properties = ['dipole'])
--------------------------------------------------------------------------

    Molecular point group: c1
  Charge       = -1
  Multiplicity = 1
  Basis Set: AUG-CC-PVTZ
    Blend: AUG-CC-PVTZ
  Basis Set: (AUG-CC-PVTZ AUX)
    Blend: AUG-CC-PVTZ-JKFIT

    Orbital Energies [Eh]
    ---------------------

    Doubly Occupied:

       1A    -20.287340     2A    -20.279812     3A    -11.125044
       4A    -11.041739     5A     -1.174319     6A     -1.065917
       7A     -0.784685     8A     -0.507468     9A     -0.418141
      10A     -0.413862    11A     -0.409030    12A     -0.360864
      13A     -0.321118    14A     -0.202752    15A     -0.189410
      16A     -0.188015

  @DF-RHF Final Energy:  -227.32871613110541

   => Energetics <=

    Nuclear Repulsion Energy =            112.5565119251536856
    One-Electron Energy =                -542.2314222374609471
    Two-Electron Energy =                 202.3461941812018381
    Total Energy =                       -227.3287161311054092
  Basis Set: (AUG-CC-PVTZ AUX)
    Blend: AUG-CC-PVTZ-RI
    Molecular point group: c1

    Geometry (in Angstrom), charge = -1, multiplicity = 1:

       Center              X                  Y                   Z               Mass
    ------------   -----------------  -----------------  -----------------  -----------------
         C           -1.428823000224    -0.052601528824    -0.000000017078    12.000000000000
         C            0.131367999776     0.012204471176    -0.000000017078    12.000000000000
         O            0.584375099776     1.139202071176    -0.000000017078    15.994914619570
         O            0.731223999776    -1.099826528824    -0.000000017078    15.994914619570
         H           -1.820418000224     0.470889471176     0.880302982922     1.007825032230
         H           -1.820419000224     0.470903471176    -0.880294017078     1.007825032230
         H           -1.790101000224    -1.085710528824    -0.000008017078     1.007825032230

  Basis Set: AUG-CC-PVTZ
    Blend: AUG-CC-PVTZ
  Basis Set: (AUG-CC-PVTZ AUX)
    Blend: AUG-CC-PVTZ-JKFIT
	 Reference Energy          =    -227.3287161311054092 [Eh]
	 Singles Energy            =      -0.0000000000000000 [Eh]
	 Same-Spin Energy          =      -0.2220939712714496 [Eh]
	 Opposite-Spin Energy      =      -0.6731760860645285 [Eh]
	 Correlation Energy        =      -0.8952700573359781 [Eh]
	 Total Energy              =    -228.2239861884413870 [Eh]

	 ================> DF-SCS-MP2 Energies <==================
	-----------------------------------------------------------
	 SCS Same-Spin Scale       =       0.3333333333333333 [-]
	 SCS Opposite-Spin Scale   =       1.2000000000000000 [-]
	 SCS Same-Spin Energy      =      -0.0740313237571499 [Eh]
	 SCS Opposite-Spin Energy  =      -0.8078113032774342 [Eh]
	 SCS Correlation Energy    =      -0.8818426270345840 [Eh]
	 SCS Total Energy          =    -228.2105587581399959 [Eh]
	-----------------------------------------------------------

  Dipole Moment: [D]
     X:    -3.1179      Y:     0.1797      Z:    -0.0000     Total:     3.1230

*** Psi4 exiting successfully. Buy a developer a beer!
