                               Psi4 1.3.2 release

  ==> Input File <==

--------------------------------------------------------------------------
#psi4
#
memory 32 gb

molecule  {
-1 1
  C        1.3468810    -0.0622760     0.0000680
  C       -0.2128060     0.0024820    -0.0005800
  O       -0.8895919    -1.0648788     0.0002587
  O       -0.6853290     1.1759020     0.0001500
  H        1.7383940     0.4614830     0.8803630
  H        1.7085910    -1.0953120     0.0003270
  H        1.7390990     0.4612900    -0.8800270
units angstrom
no_reorient  #important for SAPT in psi4, default
symmetry c1  #important for SAPT in psi4, default
}

set PROPERTIES_ORIGIN ["COM"]
properties('MP2/aug-cc-pvtz', properties = ['dipole'])
--------------------------------------------------------------------------

    Molecular point group: c1
  Charge       = -1
  Multiplicity = 1
  Basis Set: AUG-CC-PVTZ
    Blend: AUG-CC-PVTZ
  Basis Set: (AUG-CC-PVTZ AUX)
    Blend: AUG-CC-PVTZ-JKFIT

    Orbital Energies [Eh]
    ---------------------

    Doubly Occupied:

       1A    -20.287430     2A    -20.281620     3A    -11.133371
       4A    -11.052159     5A     -1.155526     6A     -1.051655
       7A     -0.792805     8A     -0.510710     9A     -0.414464
      10A     -0.411359    11A     -0.409772    12A     -0.357361
      13A     -0.314801    14A     -0.198521    15A     -0.194638
      16A     -0.183814

  @DF-RHF Final Energy:  -227.32622632150080

   => Energetics <=

    Nuclear Repulsion Energy =            111.1412123804737035
    One-Electron Energy =                -539.4348657568846193
    Two-Electron Energy =                 200.9674270549101323
    Total Energy =                       -227.3262263215007977
  Basis Set: (AUG-CC-PVTZ AUX)
    Blend: AUG-CC-PVTZ-RI
    Molecular point group: c1

    Geometry (in Angstrom), charge = -1, multiplicity = 1:

       Center              X                  Y                   Z               Mass
    ------------   -----------------  -----------------  -----------------  -----------------
         C            1.454571293319    -0.077262272867     0.000050015757    12.000000000000
         C           -0.105115706681    -0.012504272867    -0.000597984243    12.000000000000
         O           -0.781901606681    -1.079865072867     0.000240715757    15.994914619570
         O           -0.577638706681     1.160915727133     0.000132015757    15.994914619570
         H            1.846084293319     0.446496727133     0.880345015757     1.007825032230
         H            1.816281293319    -1.110298272867     0.000309015757     1.007825032230
         H            1.846789293319     0.446303727133    -0.880044984243     1.007825032230

  Basis Set: AUG-CC-PVTZ
    Blend: AUG-CC-PVTZ
  Basis Set: (AUG-CC-PVTZ AUX)
    Blend: AUG-CC-PVTZ-JKFIT
	 Reference Energy          =    -227.3262263215007977 [Eh]
	 Singles Energy            =      -0.0000000000000000 [Eh]
	 Same-Spin Energy          =      -0.2229028214375250 [Eh]
	 Opposite-Spin Energy      =      -0.6755549531550669 [Eh]
	 Correlation Energy        =      -0.8984577745925919 [Eh]
	 Total Energy              =    -228.2246840960933980 [Eh]

	 ================> DF-SCS-MP2 Energies <==================
	-----------------------------------------------------------
	 SCS Same-Spin Scale       =       0.3333333333333333 [-]
	 SCS Opposite-Spin Scale   =       1.2000000000000000 [-]
	 SCS Same-Spin Energy      =      -0.0743009404791750 [Eh]
	 SCS Opposite-Spin Energy  =      -0.8106659437860803 [Eh]
	 SCS Correlation Energy    =      -0.8849668842652553 [Eh]
	 SCS Total Energy          =    -228.2111932057660511 [Eh]
	-----------------------------------------------------------

  Dipole Moment: [D]
     X:     3.4337      Y:    -0.2341      Z:    -0.0008     Total:     3.4416

*** Psi4 exiting successfully. Buy a developer a beer!
