                               Psi4 1.3.2 release

  ==> Input File <==

--------------------------------------------------------------------------
#psi4
#
memory 32 gb

molecule  {
-1 1
  C        1.3468810    -0.0622760     0.0000680
  C       -0.4126338     0.0107788    -0.0006630
  O       -0.8134880    -1.1094890     0.0001520
  O       -0.6853290     1.1759020     0.0001500
  H        1.7383940     0.4614830     0.8803630
  H        1.7085910    -1.0953120     0.0003270
  H        1.7390990     0.4612900    -0.8800270
units angstrom
no_reorient  #important for SAPT in psi4, default
symmetry c1  #important for SAPT in psi4, default
}

set PROPERTIES_ORIGIN ["COM"]
properties('MP2/aug-cc-pvtz', properties = ['dipole'])
--------------------------------------------------------------------------

    Molecular point group: c1
  Charge       = -1
  Multiplicity = 1
  Basis Set: AUG-CC-PVTZ
    Blend: AUG-CC-PVTZ
  Basis Set: (AUG-CC-PVTZ AUX)
    Blend: AUG-CC-PVTZ-JKFIT

    Orbital Energies [Eh]
    ---------------------

    Doubly Occupied:

       1A    -20.310619     2A    -20.307751     3A    -11.147616
       4A    -11.010845     5A     -1.209915     6A     -1.132382
       7A     -0.732895     8A     -0.509123     9A     -0.433212
      10A     -0.427415    11A     -0.406244    12A     -0.355830
      13A     -0.331448    14A     -0.238772    15A     -0.225208
      16A     -0.139013

  @DF-RHF Final Energy:  -227.30041750540178

   => Energetics <=

    Nuclear Repulsion Energy =            111.8716127035878003
    One-Electron Energy =                -540.5074818815119215
    Two-Electron Energy =                 201.3354516725223391
    Total Energy =                       -227.3004175054017821
  Basis Set: (AUG-CC-PVTZ AUX)
    Blend: AUG-CC-PVTZ-RI
    Molecular point group: c1

    Geometry (in Angstrom), charge = -1, multiplicity = 1:

       Center              X                  Y                   Z               Mass
    ------------   -----------------  -----------------  -----------------  -----------------
         C            1.474577938101    -0.066858267413     0.000095813182    12.000000000000
         C           -0.284936861899     0.006196532587    -0.000635186818    12.000000000000
         O           -0.685791061899    -1.114071267413     0.000179813182    15.994914619570
         O           -0.557632061899     1.171319732587     0.000177813182    15.994914619570
         H            1.866090938101     0.456900732587     0.880390813182     1.007825032230
         H            1.836287938101    -1.099894267413     0.000354813182     1.007825032230
         H            1.866795938101     0.456707732587    -0.879999186818     1.007825032230

  Basis Set: AUG-CC-PVTZ
    Blend: AUG-CC-PVTZ
  Basis Set: (AUG-CC-PVTZ AUX)
    Blend: AUG-CC-PVTZ-JKFIT
	 Reference Energy          =    -227.3004175054017821 [Eh]
	 Singles Energy            =      -0.0000000000000000 [Eh]
	 Same-Spin Energy          =      -0.2226384294274637 [Eh]
	 Opposite-Spin Energy      =      -0.6734784811200570 [Eh]
	 Correlation Energy        =      -0.8961169105475207 [Eh]
	 Total Energy              =    -228.1965344159493156 [Eh]

	 ================> DF-SCS-MP2 Energies <==================
	-----------------------------------------------------------
	 SCS Same-Spin Scale       =       0.3333333333333333 [-]
	 SCS Opposite-Spin Scale   =       1.2000000000000000 [-]
	 SCS Same-Spin Energy      =      -0.0742128098091546 [Eh]
	 SCS Opposite-Spin Energy  =      -0.8081741773440684 [Eh]
	 SCS Correlation Energy    =      -0.8823869871532229 [Eh]
	 SCS Total Energy          =    -228.1828044925549932 [Eh]
	-----------------------------------------------------------

  Dipole Moment: [D]
     X:     1.1062      Y:    -0.1069      Z:    -0.0011     Total:     1.1113

*** Psi4 exiting successfully. Buy a developer a beer!
