                               Psi4 1.4a3.dev225

  ==> Input File <==

--------------------------------------------------------------------------
#psi4
#
memory 32 gb

molecule  {
-1 1
  C       -1.3468330    -0.0622740     0.0000000
  C        0.2133580     0.0025320     0.0000000
  O        0.6775539     1.1573650     0.0000000
  O        0.8132140    -1.1094990     0.0000000
  H       -1.7384280     0.4612170     0.8803030
  H       -1.7384290     0.4612310    -0.8802940
  H       -1.7081110    -1.0953830    -0.0000080
units angstrom
no_reorient  #important for SAPT in psi4, default
symmetry c1  #important for SAPT in psi4, default
}

set PROPERTIES_ORIGIN ["COM"]
properties('MP2/aug-cc-pvtz', properties = ['dipole'])
--------------------------------------------------------------------------

    Molecular point group: c1
  Charge       = -1
  Multiplicity = 1
  Basis Set: AUG-CC-PVTZ
    Blend: AUG-CC-PVTZ
  Basis Set: (AUG-CC-PVTZ AUX)
    Blend: AUG-CC-PVTZ-JKFIT

    Orbital Energies [Eh]
    ---------------------

    Doubly Occupied:

       1A    -20.287128     2A    -20.285899     3A    -11.131173
       4A    -11.044619     5A     -1.162299     6A     -1.062705
       7A     -0.786719     8A     -0.509402     9A     -0.414351
      10A     -0.413156    11A     -0.408028    12A     -0.359868
      13A     -0.317290    14A     -0.203591    15A     -0.190428
      16A     -0.189232

  @DF-RHF Final Energy:  -227.32847993802906

   => Energetics <=

    Nuclear Repulsion Energy =            111.7311965958595295
    One-Electron Energy =                -540.5875753212493464
    Two-Electron Energy =                 201.5278987873607832
    Total Energy =                       -227.3284799380290622
  Basis Set: (AUG-CC-PVTZ AUX)
    Blend: AUG-CC-PVTZ-RI
    Molecular point group: c1

    Geometry (in Angstrom), charge = -1, multiplicity = 1:

       Center              X                  Y                   Z               Mass
    ------------   -----------------  -----------------  -----------------  -----------------
         C           -1.431855602833    -0.060146011402    -0.000000017078    12.000000000000
         C            0.128335397167     0.004659988598    -0.000000017078    12.000000000000
         O            0.592531297167     1.159492988598    -0.000000017078    15.994914619570
         O            0.728191397167    -1.107371011402    -0.000000017078    15.994914619570
         H           -1.823450602833     0.463344988598     0.880302982922     1.007825032230
         H           -1.823451602833     0.463358988598    -0.880294017078     1.007825032230
         H           -1.793133602833    -1.093255011402    -0.000008017078     1.007825032230

  Basis Set: AUG-CC-PVTZ
    Blend: AUG-CC-PVTZ
  Basis Set: (AUG-CC-PVTZ AUX)
    Blend: AUG-CC-PVTZ-JKFIT
	 Reference Energy          =    -227.3284799380290622 [Eh]
	 Singles Energy            =      -0.0000000000000000 [Eh]
	 Same-Spin Energy          =      -0.2226217233405224 [Eh]
	 Opposite-Spin Energy      =      -0.6746582452975440 [Eh]
	 Correlation Energy        =      -0.8972799686380664 [Eh]
	 Total Energy              =    -228.2257599066671219 [Eh]

	 ================> DF-SCS-MP2 Energies <==================
	-----------------------------------------------------------
	 SCS Same-Spin Scale       =       0.3333333333333333 [-]
	 SCS Opposite-Spin Scale   =       1.2000000000000000 [-]
	 SCS Same-Spin Energy      =      -0.0742072411135074 [Eh]
	 SCS Opposite-Spin Energy  =      -0.8095898943570529 [Eh]
	 SCS Correlation Energy    =      -0.8837971354705603 [Eh]
	 SCS Total Energy          =    -228.2122770734996209 [Eh]
	-----------------------------------------------------------

  Dipole Moment: [D]
     X:    -3.1873      Y:    -0.0338      Z:    -0.0000     Total:     3.1874

*** Psi4 exiting successfully. Buy a developer a beer!
