                               Psi4 1.4a3.dev225

  ==> Input File <==

--------------------------------------------------------------------------
#psi4
#
memory 32 gb

molecule  {
-1 1
  C       -1.3468330    -0.0622740     0.0000000
  C        0.2133580     0.0025320     0.0000000
  O        0.7036609     1.2223144     0.0000000
  O        0.8132140    -1.1094990     0.0000000
  H       -1.7384280     0.4612170     0.8803030
  H       -1.7384290     0.4612310    -0.8802940
  H       -1.7081110    -1.0953830    -0.0000080
units angstrom
no_reorient  #important for SAPT in psi4, default
symmetry c1  #important for SAPT in psi4, default
}

set PROPERTIES_ORIGIN ["COM"]
properties('MP2/aug-cc-pvtz', properties = ['dipole'])
--------------------------------------------------------------------------

    Molecular point group: c1
  Charge       = -1
  Multiplicity = 1
  Basis Set: AUG-CC-PVTZ
    Blend: AUG-CC-PVTZ
  Basis Set: (AUG-CC-PVTZ AUX)
    Blend: AUG-CC-PVTZ-JKFIT

    Orbital Energies [Eh]
    ---------------------

    Doubly Occupied:

       1A    -20.299753     2A    -20.286495     3A    -11.144445
       4A    -11.051019     5A     -1.146728     6A     -1.046502
       7A     -0.791600     8A     -0.514957     9A     -0.414450
      10A     -0.407775    11A     -0.407122    12A     -0.355539
      13A     -0.310549    14A     -0.205118    15A     -0.193477
      16A     -0.187384

  @DF-RHF Final Energy:  -227.32018001249139

   => Energetics <=

    Nuclear Repulsion Energy =            109.9162098417947533
    One-Electron Energy =                -536.9469540599188804
    Two-Electron Energy =                 199.7105642056327497
    Total Energy =                       -227.3201800124913916
  Basis Set: (AUG-CC-PVTZ AUX)
    Blend: AUG-CC-PVTZ-RI
    Molecular point group: c1

    Geometry (in Angstrom), charge = -1, multiplicity = 1:

       Center              X                  Y                   Z               Mass
    ------------   -----------------  -----------------  -----------------  -----------------
         C           -1.438931621379    -0.077749840221    -0.000000017078    12.000000000000
         C            0.121259378621    -0.012943840221    -0.000000017078    12.000000000000
         O            0.611562278621     1.206838559779    -0.000000017078    15.994914619570
         O            0.721115378621    -1.124974840221    -0.000000017078    15.994914619570
         H           -1.830526621379     0.445741159779     0.880302982922     1.007825032230
         H           -1.830527621379     0.445755159779    -0.880294017078     1.007825032230
         H           -1.800209621379    -1.110858840221    -0.000008017078     1.007825032230

  Basis Set: AUG-CC-PVTZ
    Blend: AUG-CC-PVTZ
  Basis Set: (AUG-CC-PVTZ AUX)
    Blend: AUG-CC-PVTZ-JKFIT
	 Reference Energy          =    -227.3201800124913916 [Eh]
	 Singles Energy            =      -0.0000000000000000 [Eh]
	 Same-Spin Energy          =      -0.2238387606120635 [Eh]
	 Opposite-Spin Energy      =      -0.6781194336893118 [Eh]
	 Correlation Energy        =      -0.9019581943013752 [Eh]
	 Total Energy              =    -228.2221382067927777 [Eh]

	 ================> DF-SCS-MP2 Energies <==================
	-----------------------------------------------------------
	 SCS Same-Spin Scale       =       0.3333333333333333 [-]
	 SCS Opposite-Spin Scale   =       1.2000000000000000 [-]
	 SCS Same-Spin Energy      =      -0.0746129202040211 [Eh]
	 SCS Opposite-Spin Energy  =      -0.8137433204271741 [Eh]
	 SCS Correlation Energy    =      -0.8883562406311952 [Eh]
	 SCS Total Energy          =    -228.2085362531225883 [Eh]
	-----------------------------------------------------------

  Dipole Moment: [D]
     X:    -3.3458      Y:    -0.5198      Z:    -0.0000     Total:     3.3859

*** Psi4 exiting successfully. Buy a developer a beer!
