                               Psi4 1.3.2 release

  ==> Input File <==

--------------------------------------------------------------------------
#psi4
#
memory 32 gb

molecule  {
-1 1
  C        1.3468810    -0.0622760     0.0000680
  C       -0.2128060     0.0024820    -0.0005800
  O       -0.7184316    -0.9335224     0.0000362
  O       -0.6853290     1.1759020     0.0001500
  H        1.7383940     0.4614830     0.8803630
  H        1.7085910    -1.0953120     0.0003270
  H        1.7390990     0.4612900    -0.8800270
units angstrom
no_reorient  #important for SAPT in psi4, default
symmetry c1  #important for SAPT in psi4, default
}

set PROPERTIES_ORIGIN ["COM"]
properties('MP2/aug-cc-pvtz', properties = ['dipole'])
--------------------------------------------------------------------------

    Molecular point group: c1
  Charge       = -1
  Multiplicity = 1
  Basis Set: AUG-CC-PVTZ
    Blend: AUG-CC-PVTZ
  Basis Set: (AUG-CC-PVTZ AUX)
    Blend: AUG-CC-PVTZ-JKFIT

    Orbital Energies [Eh]
    ---------------------

    Doubly Occupied:

       1A    -20.289831     2A    -20.246430     3A    -11.092398
       4A    -11.025844     5A     -1.270564     6A     -1.059226
       7A     -0.775529     8A     -0.505741     9A     -0.454671
      10A     -0.429485    11A     -0.417009    12A     -0.358972
      13A     -0.342475    14A     -0.192456    15A     -0.183663
      16A     -0.169487

  @DF-RHF Final Energy:  -227.27695051944846

   => Energetics <=

    Nuclear Repulsion Energy =            117.1854688557411492
    One-Electron Energy =                -551.2972783506422729
    Two-Electron Energy =                 206.8348589754526756
    Total Energy =                       -227.2769505194484623
  Basis Set: (AUG-CC-PVTZ AUX)
    Blend: AUG-CC-PVTZ-RI
    Molecular point group: c1

    Geometry (in Angstrom), charge = -1, multiplicity = 1:

       Center              X                  Y                   Z               Mass
    ------------   -----------------  -----------------  -----------------  -----------------
         C            1.408180154650    -0.112864997140     0.000110321963    12.000000000000
         C           -0.151506845350    -0.048106997140    -0.000537678037    12.000000000000
         O           -0.657132445350    -0.984111397140     0.000078521963    15.994914619570
         O           -0.624029845350     1.125313002860     0.000192321963    15.994914619570
         H            1.799693154650     0.410894002860     0.880405321963     1.007825032230
         H            1.769890154650    -1.145900997140     0.000369321963     1.007825032230
         H            1.800398154650     0.410701002860    -0.879984678037     1.007825032230

  Basis Set: AUG-CC-PVTZ
    Blend: AUG-CC-PVTZ
  Basis Set: (AUG-CC-PVTZ AUX)
    Blend: AUG-CC-PVTZ-JKFIT
	 Reference Energy          =    -227.2769505194484623 [Eh]
	 Singles Energy            =      -0.0000000000000000 [Eh]
	 Same-Spin Energy          =      -0.2196042363829502 [Eh]
	 Opposite-Spin Energy      =      -0.6659171172353908 [Eh]
	 Correlation Energy        =      -0.8855213536183411 [Eh]
	 Total Energy              =    -228.1624718730668064 [Eh]

	 ================> DF-SCS-MP2 Energies <==================
	-----------------------------------------------------------
	 SCS Same-Spin Scale       =       0.3333333333333333 [-]
	 SCS Opposite-Spin Scale   =       1.2000000000000000 [-]
	 SCS Same-Spin Energy      =      -0.0732014121276501 [Eh]
	 SCS Opposite-Spin Energy  =      -0.7991005406824689 [Eh]
	 SCS Correlation Energy    =      -0.8723019528101190 [Eh]
	 SCS Total Energy          =    -228.1492524722585813 [Eh]
	-----------------------------------------------------------

  Dipole Moment: [D]
     X:     2.6070      Y:    -1.5885      Z:    -0.0008     Total:     3.0528

*** Psi4 exiting successfully. Buy a developer a beer!
