                               Psi4 1.3.2 release

  ==> Input File <==

--------------------------------------------------------------------------
#psi4
#
memory 32 gb

molecule  {
-1 1
  C        1.3475989     0.0466800     0.0001558
  C       -0.2128060     0.0024820    -0.0005800
  O       -0.8134880    -1.1094890     0.0001520
  O       -0.6853290     1.1759020     0.0001500
  H        1.7383940     0.4614830     0.8803630
  H        1.7085910    -1.0953120     0.0003270
  H        1.7390990     0.4612900    -0.8800270
units angstrom
no_reorient  #important for SAPT in psi4, default
symmetry c1  #important for SAPT in psi4, default
}

set PROPERTIES_ORIGIN ["COM"]
properties('MP2/aug-cc-pvtz', properties = ['dipole'])
--------------------------------------------------------------------------

    Molecular point group: c1
  Charge       = -1
  Multiplicity = 1
  Basis Set: AUG-CC-PVTZ
    Blend: AUG-CC-PVTZ
  Basis Set: (AUG-CC-PVTZ AUX)
    Blend: AUG-CC-PVTZ-JKFIT

    Orbital Energies [Eh]
    ---------------------

    Doubly Occupied:

       1A    -20.292772     2A    -20.285580     3A    -11.135931
       4A    -11.048107     5A     -1.156795     6A     -1.059976
       7A     -0.790051     8A     -0.513508     9A     -0.431931
      10A     -0.414661    11A     -0.402363    12A     -0.335666
      13A     -0.323412    14A     -0.204808    15A     -0.189659
      16A     -0.189118

  @DF-RHF Final Energy:  -227.31518181170696

   => Energetics <=

    Nuclear Repulsion Energy =            111.2330331779103574
    One-Electron Energy =                -539.5477574784747503
    Two-Electron Energy =                 200.9995424888574576
    Total Energy =                       -227.3151818117069638
  Basis Set: (AUG-CC-PVTZ AUX)
    Blend: AUG-CC-PVTZ-RI
    Molecular point group: c1

    Geometry (in Angstrom), charge = -1, multiplicity = 1:

       Center              X                  Y                   Z               Mass
    ------------   -----------------  -----------------  -----------------  -----------------
         C            1.434516077891     0.021629290537     0.000148882031    12.000000000000
         C           -0.125888822109    -0.022568709463    -0.000586917969    12.000000000000
         O           -0.726570822109    -1.134539709463     0.000145082031    15.994914619570
         O           -0.598411822109     1.150851290537     0.000143082031    15.994914619570
         H            1.825311177891     0.436432290537     0.880356082031     1.007825032230
         H            1.795508177891    -1.120362709463     0.000320082031     1.007825032230
         H            1.826016177891     0.436239290537    -0.880033917969     1.007825032230

  Basis Set: AUG-CC-PVTZ
    Blend: AUG-CC-PVTZ
  Basis Set: (AUG-CC-PVTZ AUX)
    Blend: AUG-CC-PVTZ-JKFIT
	 Reference Energy          =    -227.3151818117069638 [Eh]
	 Singles Energy            =      -0.0000000000000000 [Eh]
	 Same-Spin Energy          =      -0.2231692419932071 [Eh]
	 Opposite-Spin Energy      =      -0.6764177725561651 [Eh]
	 Correlation Energy        =      -0.8995870145493723 [Eh]
	 Total Energy              =    -228.2147688262563463 [Eh]

	 ================> DF-SCS-MP2 Energies <==================
	-----------------------------------------------------------
	 SCS Same-Spin Scale       =       0.3333333333333333 [-]
	 SCS Opposite-Spin Scale   =       1.2000000000000000 [-]
	 SCS Same-Spin Energy      =      -0.0743897473310690 [Eh]
	 SCS Opposite-Spin Energy  =      -0.8117013270673981 [Eh]
	 SCS Correlation Energy    =      -0.8860910743984671 [Eh]
	 SCS Total Energy          =    -228.2012728861054427 [Eh]
	-----------------------------------------------------------

  Dipole Moment: [D]
     X:     3.1768      Y:     0.0306      Z:    -0.0006     Total:     3.1769

*** Psi4 exiting successfully. Buy a developer a beer!
