                               Psi4 1.3.2 release

  ==> Input File <==

--------------------------------------------------------------------------
#psi4
#
memory 32 gb

molecule  {
-1 1
  C        1.3385644    -0.1709165    -0.0000230
  C       -0.2128060     0.0024820    -0.0005800
  O       -0.8134880    -1.1094890     0.0001520
  O       -0.6853290     1.1759020     0.0001500
  H        1.7383940     0.4614830     0.8803630
  H        1.7085910    -1.0953120     0.0003270
  H        1.7390990     0.4612900    -0.8800270
units angstrom
no_reorient  #important for SAPT in psi4, default
symmetry c1  #important for SAPT in psi4, default
}

set PROPERTIES_ORIGIN ["COM"]
properties('MP2/aug-cc-pvtz', properties = ['dipole'])
--------------------------------------------------------------------------

    Molecular point group: c1
  Charge       = -1
  Multiplicity = 1
  Basis Set: AUG-CC-PVTZ
    Blend: AUG-CC-PVTZ
  Basis Set: (AUG-CC-PVTZ AUX)
    Blend: AUG-CC-PVTZ-JKFIT

    Orbital Energies [Eh]
    ---------------------

    Doubly Occupied:

       1A    -20.289838     2A    -20.287940     3A    -11.136695
       4A    -11.049716     5A     -1.156582     6A     -1.059729
       7A     -0.790089     8A     -0.516327     9A     -0.431881
      10A     -0.410516    11A     -0.388806    12A     -0.368126
      13A     -0.302336    14A     -0.206285    15A     -0.190774
      16A     -0.189704

  @DF-RHF Final Energy:  -227.31291278448271

   => Energetics <=

    Nuclear Repulsion Energy =            111.1928187079866319
    One-Electron Energy =                -539.4607778737805575
    Two-Electron Energy =                 200.9550463813112060
    Total Energy =                       -227.3129127844827053
  Basis Set: (AUG-CC-PVTZ AUX)
    Blend: AUG-CC-PVTZ-RI
    Molecular point group: c1

    Geometry (in Angstrom), charge = -1, multiplicity = 1:

       Center              X                  Y                   Z               Mass
    ------------   -----------------  -----------------  -----------------  -----------------
         C            1.427318689052    -0.151720271771     0.000006439934    12.000000000000
         C           -0.124051710948     0.021678228229    -0.000550560066    12.000000000000
         O           -0.724733710948    -1.090292771771     0.000181439934    15.994914619570
         O           -0.596574710948     1.195098228229     0.000179439934    15.994914619570
         H            1.827148289052     0.480679228229     0.880392439934     1.007825032230
         H            1.797345289052    -1.076115771771     0.000356439934     1.007825032230
         H            1.827853289052     0.480486228229    -0.879997560066     1.007825032230

  Basis Set: AUG-CC-PVTZ
    Blend: AUG-CC-PVTZ
  Basis Set: (AUG-CC-PVTZ AUX)
    Blend: AUG-CC-PVTZ-JKFIT
	 Reference Energy          =    -227.3129127844827053 [Eh]
	 Singles Energy            =      -0.0000000000000000 [Eh]
	 Same-Spin Energy          =      -0.2232073710813758 [Eh]
	 Opposite-Spin Energy      =      -0.6761851272951319 [Eh]
	 Correlation Energy        =      -0.8993924983765078 [Eh]
	 Total Energy              =    -228.2123052828592051 [Eh]

	 ================> DF-SCS-MP2 Energies <==================
	-----------------------------------------------------------
	 SCS Same-Spin Scale       =       0.3333333333333333 [-]
	 SCS Opposite-Spin Scale   =       1.2000000000000000 [-]
	 SCS Same-Spin Energy      =      -0.0744024570271253 [Eh]
	 SCS Opposite-Spin Energy  =      -0.8114221527541583 [Eh]
	 SCS Correlation Energy    =      -0.8858246097812836 [Eh]
	 SCS Total Energy          =    -228.1987373942639863 [Eh]
	-----------------------------------------------------------

  Dipole Moment: [D]
     X:     3.2139      Y:    -0.3448      Z:    -0.0008     Total:     3.2323

*** Psi4 exiting successfully. Buy a developer a beer!
