                               Psi4 1.3.2 release

  ==> Input File <==

--------------------------------------------------------------------------
#psi4
#
memory 32 gb

molecule  {
-1 1
  C        1.3451059     0.1011104     0.0001984
  C       -0.2128060     0.0024820    -0.0005800
  O       -0.8134880    -1.1094890     0.0001520
  O       -0.6853290     1.1759020     0.0001500
  H        1.7383940     0.4614830     0.8803630
  H        1.7085910    -1.0953120     0.0003270
  H        1.7390990     0.4612900    -0.8800270
units angstrom
no_reorient  #important for SAPT in psi4, default
symmetry c1  #important for SAPT in psi4, default
}

set PROPERTIES_ORIGIN ["COM"]
properties('MP2/aug-cc-pvtz', properties = ['dipole'])
--------------------------------------------------------------------------

    Molecular point group: c1
  Charge       = -1
  Multiplicity = 1
  Basis Set: AUG-CC-PVTZ
    Blend: AUG-CC-PVTZ
  Basis Set: (AUG-CC-PVTZ AUX)
    Blend: AUG-CC-PVTZ-JKFIT

    Orbital Energies [Eh]
    ---------------------

    Doubly Occupied:

       1A    -20.294524     2A    -20.285519     3A    -11.137113
       4A    -11.050624     5A     -1.157843     6A     -1.061076
       7A     -0.791828     8A     -0.516056     9A     -0.444587
      10A     -0.416678    11A     -0.400132    12A     -0.326749
      13A     -0.321245    14A     -0.206088    15A     -0.189771
      16A     -0.187407

  @DF-RHF Final Energy:  -227.30202900230736

   => Energetics <=

    Nuclear Repulsion Energy =            111.2685619205527416
    One-Electron Energy =                -539.5667021618372701
    Two-Electron Energy =                 200.9961112389771358
    Total Energy =                       -227.3020290023073642
  Basis Set: (AUG-CC-PVTZ AUX)
    Blend: AUG-CC-PVTZ-RI
    Molecular point group: c1

    Geometry (in Angstrom), charge = -1, multiplicity = 1:

       Center              X                  Y                   Z               Mass
    ------------   -----------------  -----------------  -----------------  -----------------
         C            1.432530014426     0.064991596530     0.000182819578    12.000000000000
         C           -0.125381885574    -0.033636803470    -0.000595580422    12.000000000000
         O           -0.726063885574    -1.145607803470     0.000136419578    15.994914619570
         O           -0.597904885574     1.139783196530     0.000134419578    15.994914619570
         H            1.825818114426     0.425364196530     0.880347419578     1.007825032230
         H            1.796015114426    -1.131430803470     0.000311419578     1.007825032230
         H            1.826523114426     0.425171196530    -0.880042580422     1.007825032230

  Basis Set: AUG-CC-PVTZ
    Blend: AUG-CC-PVTZ
  Basis Set: (AUG-CC-PVTZ AUX)
    Blend: AUG-CC-PVTZ-JKFIT
	 Reference Energy          =    -227.3020290023073642 [Eh]
	 Singles Energy            =      -0.0000000000000000 [Eh]
	 Same-Spin Energy          =      -0.2234033305294699 [Eh]
	 Opposite-Spin Energy      =      -0.6771899029496151 [Eh]
	 Correlation Energy        =      -0.9005932334790850 [Eh]
	 Total Energy              =    -228.2026222357864356 [Eh]

	 ================> DF-SCS-MP2 Energies <==================
	-----------------------------------------------------------
	 SCS Same-Spin Scale       =       0.3333333333333333 [-]
	 SCS Opposite-Spin Scale   =       1.2000000000000000 [-]
	 SCS Same-Spin Energy      =      -0.0744677768431566 [Eh]
	 SCS Opposite-Spin Energy  =      -0.8126278835395381 [Eh]
	 SCS Correlation Energy    =      -0.8870956603826947 [Eh]
	 SCS Total Energy          =    -228.1891246626900625 [Eh]
	-----------------------------------------------------------

  Dipole Moment: [D]
     X:     3.1131      Y:     0.1470      Z:    -0.0006     Total:     3.1166

*** Psi4 exiting successfully. Buy a developer a beer!
