                               Psi4 1.3.2 release

  ==> Input File <==

--------------------------------------------------------------------------
#psi4
#
memory 32 gb

molecule  {
-1 1
  C        1.3481909    -0.0078043     0.0001123
  C       -0.2128060     0.0024820    -0.0005800
  O       -0.8134880    -1.1094890     0.0001520
  O       -0.6853290     1.1759020     0.0001500
  H        1.7383940     0.4614830     0.8803630
  H        1.7085910    -1.0953120     0.0003270
  H        1.7390990     0.4612900    -0.8800270
units angstrom
no_reorient  #important for SAPT in psi4, default
symmetry c1  #important for SAPT in psi4, default
}

set PROPERTIES_ORIGIN ["COM"]
properties('MP2/aug-cc-pvtz', properties = ['dipole'])
--------------------------------------------------------------------------

    Molecular point group: c1
  Charge       = -1
  Multiplicity = 1
  Basis Set: AUG-CC-PVTZ
    Blend: AUG-CC-PVTZ
  Basis Set: (AUG-CC-PVTZ AUX)
    Blend: AUG-CC-PVTZ-JKFIT

    Orbital Energies [Eh]
    ---------------------

    Doubly Occupied:

       1A    -20.291226     2A    -20.286059     3A    -11.135279
       4A    -11.046795     5A     -1.156148     6A     -1.059292
       7A     -0.788812     8A     -0.511644     9A     -0.419432
      10A     -0.413137    11A     -0.406434    12A     -0.348730
      13A     -0.319543    14A     -0.204006    15A     -0.191183
      16A     -0.188793

  @DF-RHF Final Energy:  -227.32387061360478

   => Energetics <=

    Nuclear Repulsion Energy =            111.2042828705006627
    One-Electron Energy =                -539.5232808293482094
    Two-Electron Energy =                 200.9951273452427642
    Total Energy =                       -227.3238706136047824
  Basis Set: (AUG-CC-PVTZ AUX)
    Blend: AUG-CC-PVTZ-RI
    Molecular point group: c1

    Geometry (in Angstrom), charge = -1, multiplicity = 1:

       Center              X                  Y                   Z               Mass
    ------------   -----------------  -----------------  -----------------  -----------------
         C            1.434987698257    -0.021775955217     0.000114227494    12.000000000000
         C           -0.126009201743    -0.011489655217    -0.000578072506    12.000000000000
         O           -0.726691201743    -1.123460655217     0.000153927494    15.994914619570
         O           -0.598532201743     1.161930344783     0.000151927494    15.994914619570
         H            1.825190798257     0.447511344783     0.880364927494     1.007825032230
         H            1.795387798257    -1.109283655217     0.000328927494     1.007825032230
         H            1.825895798257     0.447318344783    -0.880025072506     1.007825032230

  Basis Set: AUG-CC-PVTZ
    Blend: AUG-CC-PVTZ
  Basis Set: (AUG-CC-PVTZ AUX)
    Blend: AUG-CC-PVTZ-JKFIT
	 Reference Energy          =    -227.3238706136047824 [Eh]
	 Singles Energy            =      -0.0000000000000000 [Eh]
	 Same-Spin Energy          =      -0.2230283186172444 [Eh]
	 Opposite-Spin Energy      =      -0.6759067983733745 [Eh]
	 Correlation Energy        =      -0.8989351169906189 [Eh]
	 Total Energy              =    -228.2228057305954110 [Eh]

	 ================> DF-SCS-MP2 Energies <==================
	-----------------------------------------------------------
	 SCS Same-Spin Scale       =       0.3333333333333333 [-]
	 SCS Opposite-Spin Scale   =       1.2000000000000000 [-]
	 SCS Same-Spin Energy      =      -0.0743427728724148 [Eh]
	 SCS Opposite-Spin Energy  =      -0.8110881580480495 [Eh]
	 SCS Correlation Energy    =      -0.8854309309204642 [Eh]
	 SCS Total Energy          =    -228.2093015445252604 [Eh]
	-----------------------------------------------------------

  Dipole Moment: [D]
     X:     3.2188      Y:    -0.0766      Z:    -0.0006     Total:     3.2198

*** Psi4 exiting successfully. Buy a developer a beer!
