                               Psi4 1.4a3.dev225

  ==> Input File <==

--------------------------------------------------------------------------
#psi4
#
memory 32 gb

molecule  {
-1 1
  C       -1.3468330    -0.0622740     0.0000000
  C        0.1933752     0.0017020     0.0000000
  O        0.6850130     1.1759220     0.0000000
  O        0.8132140    -1.1094990     0.0000000
  H       -1.7384280     0.4612170     0.8803030
  H       -1.7384290     0.4612310    -0.8802940
  H       -1.7081110    -1.0953830    -0.0000080
units angstrom
no_reorient  #important for SAPT in psi4, default
symmetry c1  #important for SAPT in psi4, default
}

set PROPERTIES_ORIGIN ["COM"]
properties('MP2/aug-cc-pvtz', properties = ['dipole'])
--------------------------------------------------------------------------

    Molecular point group: c1
  Charge       = -1
  Multiplicity = 1
  Basis Set: AUG-CC-PVTZ
    Blend: AUG-CC-PVTZ
  Basis Set: (AUG-CC-PVTZ AUX)
    Blend: AUG-CC-PVTZ-JKFIT

    Orbital Energies [Eh]
    ---------------------

    Doubly Occupied:

       1A    -20.289015     2A    -20.285976     3A    -11.135303
       4A    -11.048858     5A     -1.150952     6A     -1.052560
       7A     -0.794260     8A     -0.512978     9A     -0.415302
      10A     -0.410166    11A     -0.410121    12A     -0.355958
      13A     -0.311298    14A     -0.200931    15A     -0.195387
      16A     -0.185994

  @DF-RHF Final Energy:  -227.32585204118973

   => Energetics <=

    Nuclear Repulsion Energy =            111.1185856898991489
    One-Electron Energy =                -539.3787590717441844
    Two-Electron Energy =                 200.9343213406553161
    Total Energy =                       -227.3258520411897337
  Basis Set: (AUG-CC-PVTZ AUX)
    Blend: AUG-CC-PVTZ-RI
    Molecular point group: c1

    Geometry (in Angstrom), charge = -1, multiplicity = 1:

       Center              X                  Y                   Z               Mass
    ------------   -----------------  -----------------  -----------------  -----------------
         C           -1.429813928778    -0.065006909022    -0.000000017078    12.000000000000
         C            0.110394271222    -0.001030909022    -0.000000017078    12.000000000000
         O            0.602032071222     1.173189090978    -0.000000017078    15.994914619570
         O            0.730233071222    -1.112231909022    -0.000000017078    15.994914619570
         H           -1.821408928778     0.458484090978     0.880302982922     1.007825032230
         H           -1.821409928778     0.458498090978    -0.880294017078     1.007825032230
         H           -1.791091928778    -1.098115909022    -0.000008017078     1.007825032230

  Basis Set: AUG-CC-PVTZ
    Blend: AUG-CC-PVTZ
  Basis Set: (AUG-CC-PVTZ AUX)
    Blend: AUG-CC-PVTZ-JKFIT
	 Reference Energy          =    -227.3258520411897337 [Eh]
	 Singles Energy            =      -0.0000000000000000 [Eh]
	 Same-Spin Energy          =      -0.2232684712116585 [Eh]
	 Opposite-Spin Energy      =      -0.6763149350864390 [Eh]
	 Correlation Energy        =      -0.8995834062980976 [Eh]
	 Total Energy              =    -228.2254354474878255 [Eh]

	 ================> DF-SCS-MP2 Energies <==================
	-----------------------------------------------------------
	 SCS Same-Spin Scale       =       0.3333333333333333 [-]
	 SCS Opposite-Spin Scale   =       1.2000000000000000 [-]
	 SCS Same-Spin Energy      =      -0.0744228237372195 [Eh]
	 SCS Opposite-Spin Energy  =      -0.8115779221037268 [Eh]
	 SCS Correlation Energy    =      -0.8860007458409463 [Eh]
	 SCS Total Energy          =    -228.2118527870306934 [Eh]
	-----------------------------------------------------------

  Dipole Moment: [D]
     X:    -3.3914      Y:    -0.1798      Z:    -0.0000     Total:     3.3962

*** Psi4 exiting successfully. Buy a developer a beer!
