                               Psi4 1.3.2 release

  ==> Input File <==

--------------------------------------------------------------------------
#psi4
#
memory 32 gb

molecule  {
-1 1
  C        1.3468810    -0.0622760     0.0000680
  C       -0.2128060     0.0024820    -0.0005800
  O       -0.8134880    -1.1094890     0.0001520
  O       -0.6853290     1.1759020     0.0001500
  H        1.7383940     0.4614830     0.8803630
  H        1.7085910    -1.0953120     0.0003270
  H        1.7390990     0.4612900    -0.8800270
units angstrom
no_reorient  #important for SAPT in psi4, default
symmetry c1  #important for SAPT in psi4, default
}

set PROPERTIES_ORIGIN ["COM"]
properties('MP2/aug-cc-pvtz', properties = ['dipole'])
--------------------------------------------------------------------------

    Molecular point group: c1
  Charge       = -1
  Multiplicity = 1
  Basis Set: AUG-CC-PVTZ
    Blend: AUG-CC-PVTZ
  Basis Set: (AUG-CC-PVTZ AUX)
    Blend: AUG-CC-PVTZ-JKFIT

    Orbital Energies [Eh]
    ---------------------

    Doubly Occupied:

       1A    -20.289897     2A    -20.286939     3A    -11.135180
       4A    -11.046659     5A     -1.155898     6A     -1.059023
       7A     -0.788284     8A     -0.510956     9A     -0.413994
      10A     -0.411155    11A     -0.407715    12A     -0.358817
      13A     -0.314896    14A     -0.203941    15A     -0.191864
      16A     -0.188787

  @DF-RHF Final Energy:  -227.32704351162059

   => Energetics <=

    Nuclear Repulsion Energy =            111.1858551177780328
    One-Electron Energy =                -539.4977876812004070
    Two-Electron Energy =                 200.9848890518017868
    Total Energy =                       -227.3270435116205874
  Basis Set: (AUG-CC-PVTZ AUX)
    Blend: AUG-CC-PVTZ-RI
    Molecular point group: c1

    Geometry (in Angstrom), charge = -1, multiplicity = 1:

       Center              X                  Y                   Z               Mass
    ------------   -----------------  -----------------  -----------------  -----------------
         C            1.433944158532    -0.065171163105     0.000078935632    12.000000000000
         C           -0.125742841468    -0.000413163105    -0.000569064368    12.000000000000
         O           -0.726424841468    -1.112384163105     0.000162935632    15.994914619570
         O           -0.598265841468     1.173006836895     0.000160935632    15.994914619570
         H            1.825457158532     0.458587836895     0.880373935632     1.007825032230
         H            1.795654158532    -1.098207163105     0.000337935632     1.007825032230
         H            1.826162158532     0.458394836895    -0.880016064368     1.007825032230

  Basis Set: AUG-CC-PVTZ
    Blend: AUG-CC-PVTZ
  Basis Set: (AUG-CC-PVTZ AUX)
    Blend: AUG-CC-PVTZ-JKFIT
	 Reference Energy          =    -227.3270435116205874 [Eh]
	 Singles Energy            =      -0.0000000000000000 [Eh]
	 Same-Spin Energy          =      -0.2229838870481938 [Eh]
	 Opposite-Spin Energy      =      -0.6756781078957086 [Eh]
	 Correlation Energy        =      -0.8986619949439023 [Eh]
	 Total Energy              =    -228.2257055065644806 [Eh]

	 ================> DF-SCS-MP2 Energies <==================
	-----------------------------------------------------------
	 SCS Same-Spin Scale       =       0.3333333333333333 [-]
	 SCS Opposite-Spin Scale   =       1.2000000000000000 [-]
	 SCS Same-Spin Energy      =      -0.0743279623493979 [Eh]
	 SCS Opposite-Spin Energy  =      -0.8108137294748503 [Eh]
	 SCS Correlation Energy    =      -0.8851416918242483 [Eh]
	 SCS Total Energy          =    -228.2121852034448466 [Eh]
	-----------------------------------------------------------

  Dipole Moment: [D]
     X:     3.2392      Y:    -0.1745      Z:    -0.0007     Total:     3.2439

*** Psi4 exiting successfully. Buy a developer a beer!
