                               Psi4 1.3.2 release

  ==> Input File <==

--------------------------------------------------------------------------
#psi4
#
memory 32 gb

molecule  {
-1 1
  C        1.3468810    -0.0622760     0.0000680
  C       -0.2128060     0.0024820    -0.0005800
  O       -0.7939900    -1.1198030     0.0001247
  O       -0.6853290     1.1759020     0.0001500
  H        1.7383940     0.4614830     0.8803630
  H        1.7085910    -1.0953120     0.0003270
  H        1.7390990     0.4612900    -0.8800270
units angstrom
no_reorient  #important for SAPT in psi4, default
symmetry c1  #important for SAPT in psi4, default
}

set PROPERTIES_ORIGIN ["COM"]
properties('MP2/aug-cc-pvtz', properties = ['dipole'])
--------------------------------------------------------------------------

    Molecular point group: c1
  Charge       = -1
  Multiplicity = 1
  Basis Set: AUG-CC-PVTZ
    Blend: AUG-CC-PVTZ
  Basis Set: (AUG-CC-PVTZ AUX)
    Blend: AUG-CC-PVTZ-JKFIT

    Orbital Energies [Eh]
    ---------------------

    Doubly Occupied:

       1A    -20.290470     2A    -20.288242     3A    -11.135638
       4A    -11.045256     5A     -1.156050     6A     -1.060802
       7A     -0.787110     8A     -0.511042     9A     -0.414094
      10A     -0.410922    11A     -0.407221    12A     -0.359096
      13A     -0.314880    14A     -0.205441    15A     -0.190766
      16A     -0.189987

  @DF-RHF Final Energy:  -227.32677765169984

   => Energetics <=

    Nuclear Repulsion Energy =            111.2058658904921487
    One-Electron Energy =                -539.5312539425518708
    Two-Electron Energy =                 200.9986104003598939
    Total Energy =                       -227.3267776516998424
  Basis Set: (AUG-CC-PVTZ AUX)
    Blend: AUG-CC-PVTZ-RI
    Molecular point group: c1

    Geometry (in Angstrom), charge = -1, multiplicity = 1:

       Center              X                  Y                   Z               Mass
    ------------   -----------------  -----------------  -----------------  -----------------
         C            1.428659437591    -0.062375665526     0.000086335000    12.000000000000
         C           -0.131027562409     0.002382334474    -0.000561665000    12.000000000000
         O           -0.712211562409    -1.119902665526     0.000143035000    15.994914619570
         O           -0.603550562409     1.175802334474     0.000168335000    15.994914619570
         H            1.820172437591     0.461383334474     0.880381335000     1.007825032230
         H            1.790369437591    -1.095411665526     0.000345335000     1.007825032230
         H            1.820877437591     0.461190334474    -0.880008665000     1.007825032230

  Basis Set: AUG-CC-PVTZ
    Blend: AUG-CC-PVTZ
  Basis Set: (AUG-CC-PVTZ AUX)
    Blend: AUG-CC-PVTZ-JKFIT
	 Reference Energy          =    -227.3267776516998424 [Eh]
	 Singles Energy            =      -0.0000000000000000 [Eh]
	 Same-Spin Energy          =      -0.2230229140742416 [Eh]
	 Opposite-Spin Energy      =      -0.6757461924761055 [Eh]
	 Correlation Energy        =      -0.8987691065503471 [Eh]
	 Total Energy              =    -228.2255467582502035 [Eh]

	 ================> DF-SCS-MP2 Energies <==================
	-----------------------------------------------------------
	 SCS Same-Spin Scale       =       0.3333333333333333 [-]
	 SCS Opposite-Spin Scale   =       1.2000000000000000 [-]
	 SCS Same-Spin Energy      =      -0.0743409713580805 [Eh]
	 SCS Opposite-Spin Energy  =      -0.8108954309713265 [Eh]
	 SCS Correlation Energy    =      -0.8852364023294070 [Eh]
	 SCS Total Energy          =    -228.2120140540292539 [Eh]
	-----------------------------------------------------------

  Dipole Moment: [D]
     X:     3.1891      Y:    -0.1613      Z:    -0.0007     Total:     3.1932

*** Psi4 exiting successfully. Buy a developer a beer!
