                               Psi4 1.3.2 release

  ==> Input File <==

--------------------------------------------------------------------------
#psi4
#
memory 32 gb

molecule  {
-1 1
  C        1.3468810    -0.0622760     0.0000680
  C       -0.2128060     0.0024820    -0.0005800
  O       -0.9264299    -1.0406091     0.0003106
  O       -0.6853290     1.1759020     0.0001500
  H        1.7383940     0.4614830     0.8803630
  H        1.7085910    -1.0953120     0.0003270
  H        1.7390990     0.4612900    -0.8800270
units angstrom
no_reorient  #important for SAPT in psi4, default
symmetry c1  #important for SAPT in psi4, default
}

set PROPERTIES_ORIGIN ["COM"]
properties('MP2/aug-cc-pvtz', properties = ['dipole'])
--------------------------------------------------------------------------

    Molecular point group: c1
  Charge       = -1
  Multiplicity = 1
  Basis Set: AUG-CC-PVTZ
    Blend: AUG-CC-PVTZ
  Basis Set: (AUG-CC-PVTZ AUX)
    Blend: AUG-CC-PVTZ-JKFIT

    Orbital Energies [Eh]
    ---------------------

    Doubly Occupied:

       1A    -20.286091     2A    -20.278895     3A    -11.132483
       4A    -11.054838     5A     -1.155486     6A     -1.047808
       7A     -0.794963     8A     -0.510642     9A     -0.415039
      10A     -0.411204    11A     -0.410836    12A     -0.356399
      13A     -0.314672    14A     -0.198855    15A     -0.192385
      16A     -0.181220

  @DF-RHF Final Energy:  -227.32469392718176

   => Energetics <=

    Nuclear Repulsion Energy =            111.1400483513557162
    One-Electron Energy =                -539.4458524250029541
    Two-Electron Energy =                 200.9811101464654541
    Total Energy =                       -227.3246939271817553
  Basis Set: (AUG-CC-PVTZ AUX)
    Blend: AUG-CC-PVTZ-RI
    Molecular point group: c1

    Geometry (in Angstrom), charge = -1, multiplicity = 1:

       Center              X                  Y                   Z               Mass
    ------------   -----------------  -----------------  -----------------  -----------------
         C            1.464555832761    -0.083840311221     0.000035948826    12.000000000000
         C           -0.095131167239    -0.019082311221    -0.000612051174    12.000000000000
         O           -0.808755067239    -1.062173411221     0.000278548826    15.994914619570
         O           -0.567654167239     1.154337688779     0.000117948826    15.994914619570
         H            1.856068832761     0.439918688779     0.880330948826     1.007825032230
         H            1.826265832761    -1.116876311221     0.000294948826     1.007825032230
         H            1.856773832761     0.439725688779    -0.880059051174     1.007825032230

  Basis Set: AUG-CC-PVTZ
    Blend: AUG-CC-PVTZ
  Basis Set: (AUG-CC-PVTZ AUX)
    Blend: AUG-CC-PVTZ-JKFIT
	 Reference Energy          =    -227.3246939271817553 [Eh]
	 Singles Energy            =      -0.0000000000000000 [Eh]
	 Same-Spin Energy          =      -0.2229068604478153 [Eh]
	 Opposite-Spin Energy      =      -0.6755828582338742 [Eh]
	 Correlation Energy        =      -0.8984897186816895 [Eh]
	 Total Energy              =    -228.2231836458634575 [Eh]

	 ================> DF-SCS-MP2 Energies <==================
	-----------------------------------------------------------
	 SCS Same-Spin Scale       =       0.3333333333333333 [-]
	 SCS Opposite-Spin Scale   =       1.2000000000000000 [-]
	 SCS Same-Spin Energy      =      -0.0743022868159384 [Eh]
	 SCS Opposite-Spin Energy  =      -0.8106994298806490 [Eh]
	 SCS Correlation Energy    =      -0.8850017166965874 [Eh]
	 SCS Total Energy          =    -228.2096956438783479 [Eh]
	-----------------------------------------------------------

  Dipole Moment: [D]
     X:     3.5270      Y:    -0.2677      Z:    -0.0008     Total:     3.5372

*** Psi4 exiting successfully. Buy a developer a beer!
