                               Psi4 1.3.2 release

  ==> Input File <==

--------------------------------------------------------------------------
#psi4
#
memory 32 gb

molecule  {
-1 1
  C        1.3455133    -0.0894864     0.0000455
  C       -0.2128060     0.0024820    -0.0005800
  O       -0.8134880    -1.1094890     0.0001520
  O       -0.6853290     1.1759020     0.0001500
  H        1.7383940     0.4614830     0.8803630
  H        1.7085910    -1.0953120     0.0003270
  H        1.7390990     0.4612900    -0.8800270
units angstrom
no_reorient  #important for SAPT in psi4, default
symmetry c1  #important for SAPT in psi4, default
}

set PROPERTIES_ORIGIN ["COM"]
properties('MP2/aug-cc-pvtz', properties = ['dipole'])
--------------------------------------------------------------------------

    Molecular point group: c1
  Charge       = -1
  Multiplicity = 1
  Basis Set: AUG-CC-PVTZ
    Blend: AUG-CC-PVTZ
  Basis Set: (AUG-CC-PVTZ AUX)
    Blend: AUG-CC-PVTZ-JKFIT

    Orbital Energies [Eh]
    ---------------------

    Doubly Occupied:

       1A    -20.289317     2A    -20.287523     3A    -11.135342
       4A    -11.047016     5A     -1.155921     6A     -1.059044
       7A     -0.788343     8A     -0.511277     9A     -0.417919
      10A     -0.411112    11A     -0.402335    12A     -0.362431
      13A     -0.312199    14A     -0.204236    15A     -0.191869
      16A     -0.188901

  @DF-RHF Final Energy:  -227.32624675417688

   => Energetics <=

    Nuclear Repulsion Energy =            111.1815619353914002
    One-Electron Energy =                -539.4860455587634078
    Two-Electron Energy =                 200.9782368691951149
    Total Energy =                       -227.3262467541768785
  Basis Set: (AUG-CC-PVTZ AUX)
    Blend: AUG-CC-PVTZ-RI
    Molecular point group: c1

    Geometry (in Angstrom), charge = -1, multiplicity = 1:

       Center              X                  Y                   Z               Mass
    ------------   -----------------  -----------------  -----------------  -----------------
         C            1.432854572090    -0.086848492153     0.000061010872    12.000000000000
         C           -0.125464727910     0.005119907847    -0.000564489128    12.000000000000
         O           -0.726146727910    -1.106851092153     0.000167510872    15.994914619570
         O           -0.597987727910     1.178539907847     0.000165510872    15.994914619570
         H            1.825735272090     0.464120907847     0.880378510872     1.007825032230
         H            1.795932272090    -1.092674092153     0.000342510872     1.007825032230
         H            1.826440272090     0.463927907847    -0.880011489128     1.007825032230

  Basis Set: AUG-CC-PVTZ
    Blend: AUG-CC-PVTZ
  Basis Set: (AUG-CC-PVTZ AUX)
    Blend: AUG-CC-PVTZ-JKFIT
	 Reference Energy          =    -227.3262467541768785 [Eh]
	 Singles Energy            =      -0.0000000000000000 [Eh]
	 Same-Spin Energy          =      -0.2229995142787927 [Eh]
	 Opposite-Spin Energy      =      -0.6756783889814961 [Eh]
	 Correlation Energy        =      -0.8986779032602888 [Eh]
	 Total Energy              =    -228.2249246574371568 [Eh]

	 ================> DF-SCS-MP2 Energies <==================
	-----------------------------------------------------------
	 SCS Same-Spin Scale       =       0.3333333333333333 [-]
	 SCS Opposite-Spin Scale   =       1.2000000000000000 [-]
	 SCS Same-Spin Energy      =      -0.0743331714262642 [Eh]
	 SCS Opposite-Spin Energy  =      -0.8108140667777953 [Eh]
	 SCS Correlation Energy    =      -0.8851472382040595 [Eh]
	 SCS Total Energy          =    -228.2113939923809482 [Eh]
	-----------------------------------------------------------

  Dipole Moment: [D]
     X:     3.2412      Y:    -0.2201      Z:    -0.0007     Total:     3.2487

*** Psi4 exiting successfully. Buy a developer a beer!
