                               Psi4 1.3.2 release

  ==> Input File <==

--------------------------------------------------------------------------
#psi4
#
memory 32 gb

molecule  {
-1 1
  C        1.3477736    -0.0350459     0.0000903
  C       -0.2128060     0.0024820    -0.0005800
  O       -0.8134880    -1.1094890     0.0001520
  O       -0.6853290     1.1759020     0.0001500
  H        1.7383940     0.4614830     0.8803630
  H        1.7085910    -1.0953120     0.0003270
  H        1.7390990     0.4612900    -0.8800270
units angstrom
no_reorient  #important for SAPT in psi4, default
symmetry c1  #important for SAPT in psi4, default
}

set PROPERTIES_ORIGIN ["COM"]
properties('MP2/aug-cc-pvtz', properties = ['dipole'])
--------------------------------------------------------------------------

    Molecular point group: c1
  Charge       = -1
  Multiplicity = 1
  Basis Set: AUG-CC-PVTZ
    Blend: AUG-CC-PVTZ
  Basis Set: (AUG-CC-PVTZ AUX)
    Blend: AUG-CC-PVTZ-JKFIT

    Orbital Energies [Eh]
    ---------------------

    Doubly Occupied:

       1A    -20.290534     2A    -20.286450     3A    -11.135159
       4A    -11.046583     5A     -1.155974     6A     -1.059106
       7A     -0.788448     8A     -0.511113     9A     -0.413438
      10A     -0.412722    11A     -0.409242    12A     -0.354229
      13A     -0.317333    14A     -0.203868    15A     -0.191635
      16A     -0.188751

  @DF-RHF Final Energy:  -227.32621042546725

   => Energetics <=

    Nuclear Repulsion Energy =            111.1935643631580035
    One-Electron Energy =                -539.5103804683534463
    Two-Electron Energy =                 200.9906056797282190
    Total Energy =                       -227.3262104254672522
  Basis Set: (AUG-CC-PVTZ AUX)
    Blend: AUG-CC-PVTZ-RI
    Molecular point group: c1

    Geometry (in Angstrom), charge = -1, multiplicity = 1:

       Center              X                  Y                   Z               Mass
    ------------   -----------------  -----------------  -----------------  -----------------
         C            1.434655253699    -0.043478139933     0.000096701061    12.000000000000
         C           -0.125924346301    -0.005950239933    -0.000573598939    12.000000000000
         O           -0.726606346301    -1.117921239933     0.000158401061    15.994914619570
         O           -0.598447346301     1.167469760067     0.000156401061    15.994914619570
         H            1.825275653699     0.453050760067     0.880369401061     1.007825032230
         H            1.795472653699    -1.103744239933     0.000333401061     1.007825032230
         H            1.825980653699     0.452857760067    -0.880020598939     1.007825032230

  Basis Set: AUG-CC-PVTZ
    Blend: AUG-CC-PVTZ
  Basis Set: (AUG-CC-PVTZ AUX)
    Blend: AUG-CC-PVTZ-JKFIT
	 Reference Energy          =    -227.3262104254672522 [Eh]
	 Singles Energy            =      -0.0000000000000000 [Eh]
	 Same-Spin Energy          =      -0.2229937344989202 [Eh]
	 Opposite-Spin Energy      =      -0.6757555008813391 [Eh]
	 Correlation Energy        =      -0.8987492353802593 [Eh]
	 Total Energy              =    -228.2249596608475031 [Eh]

	 ================> DF-SCS-MP2 Energies <==================
	-----------------------------------------------------------
	 SCS Same-Spin Scale       =       0.3333333333333333 [-]
	 SCS Opposite-Spin Scale   =       1.2000000000000000 [-]
	 SCS Same-Spin Energy      =      -0.0743312448329734 [Eh]
	 SCS Opposite-Spin Energy  =      -0.8109066010576068 [Eh]
	 SCS Correlation Energy    =      -0.8852378458905802 [Eh]
	 SCS Total Energy          =    -228.2114482713578241 [Eh]
	-----------------------------------------------------------

  Dipole Moment: [D]
     X:     3.2318      Y:    -0.1267      Z:    -0.0007     Total:     3.2342

*** Psi4 exiting successfully. Buy a developer a beer!
