                               Psi4 1.3.2 release

  ==> Input File <==

--------------------------------------------------------------------------
#psi4
#
memory 32 gb

molecule  {
-1 1
  C       -1.3468330    -0.0622740     0.0000000
  C        0.1634011     0.0004569     0.0000000
  O        0.6850130     1.1759220     0.0000000
  O        0.8132140    -1.1094990     0.0000000
  H       -1.7384280     0.4612170     0.8803030
  H       -1.7384290     0.4612310    -0.8802940
  H       -1.7081110    -1.0953830    -0.0000080
units angstrom
no_reorient  #important for SAPT in psi4, default
symmetry c1  #important for SAPT in psi4, default
}

set PROPERTIES_ORIGIN ["COM"]
properties('MP2/aug-cc-pvtz', properties = ['dipole'])
--------------------------------------------------------------------------

    Molecular point group: c1
  Charge       = -1
  Multiplicity = 1
  Basis Set: AUG-CC-PVTZ
    Blend: AUG-CC-PVTZ
  Basis Set: (AUG-CC-PVTZ AUX)
    Blend: AUG-CC-PVTZ-JKFIT

    Orbital Energies [Eh]
    ---------------------

    Doubly Occupied:

       1A    -20.287943     2A    -20.284743     3A    -11.135915
       4A    -11.052024     5A     -1.143293     6A     -1.042684
       7A     -0.803817     8A     -0.516688     9A     -0.418047
      10A     -0.414199    11A     -0.408548    12A     -0.350743
      13A     -0.305455    14A     -0.200632    15A     -0.196036
      16A     -0.181846

  @DF-RHF Final Energy:  -227.32229287913941

   => Energetics <=

    Nuclear Repulsion Energy =            111.0014820752824249
    One-Electron Energy =                -539.1623230125453574
    Two-Electron Energy =                 200.8385480581235356
    Total Energy =                       -227.3222928791394111
  Basis Set: (AUG-CC-PVTZ AUX)
    Blend: AUG-CC-PVTZ-RI
    Molecular point group: c1

    Geometry (in Angstrom), charge = -1, multiplicity = 1:

       Center              X                  Y                   Z               Mass
    ------------   -----------------  -----------------  -----------------  -----------------
         C           -1.423718876076    -0.064753725436    -0.000000017078    12.000000000000
         C            0.086515223924    -0.002022825436    -0.000000017078    12.000000000000
         O            0.608127123924     1.173442274564    -0.000000017078    15.994914619570
         O            0.736328123924    -1.111978725436    -0.000000017078    15.994914619570
         H           -1.815313876076     0.458737274564     0.880302982922     1.007825032230
         H           -1.815314876076     0.458751274564    -0.880294017078     1.007825032230
         H           -1.784996876076    -1.097862725436    -0.000008017078     1.007825032230

  Basis Set: AUG-CC-PVTZ
    Blend: AUG-CC-PVTZ
  Basis Set: (AUG-CC-PVTZ AUX)
    Blend: AUG-CC-PVTZ-JKFIT
	 Reference Energy          =    -227.3222928791394111 [Eh]
	 Singles Energy            =      -0.0000000000000000 [Eh]
	 Same-Spin Energy          =      -0.2238052400149626 [Eh]
	 Opposite-Spin Energy      =      -0.6774781423400269 [Eh]
	 Correlation Energy        =      -0.9012833823549895 [Eh]
	 Total Energy              =    -228.2235762614944008 [Eh]

	 ================> DF-SCS-MP2 Energies <==================
	-----------------------------------------------------------
	 SCS Same-Spin Scale       =       0.3333333333333333 [-]
	 SCS Opposite-Spin Scale   =       1.2000000000000000 [-]
	 SCS Same-Spin Energy      =      -0.0746017466716542 [Eh]
	 SCS Opposite-Spin Energy  =      -0.8129737708080322 [Eh]
	 SCS Correlation Energy    =      -0.8875755174796864 [Eh]
	 SCS Total Energy          =    -228.2098683966191004 [Eh]
	-----------------------------------------------------------

  Dipole Moment: [D]
     X:    -3.6143      Y:    -0.1881      Z:    -0.0000     Total:     3.6192

*** Psi4 exiting successfully. Buy a developer a beer!
