                               Psi4 1.4a3.dev225

  ==> Input File <==

--------------------------------------------------------------------------
#psi4
#
memory 32 gb

molecule  {
-1 1
  C       -1.3468330    -0.0622740     0.0000000
  C        0.2633149     0.0046071     0.0000000
  O        0.6850130     1.1759220     0.0000000
  O        0.8132140    -1.1094990     0.0000000
  H       -1.7384280     0.4612170     0.8803030
  H       -1.7384290     0.4612310    -0.8802940
  H       -1.7081110    -1.0953830    -0.0000080
units angstrom
no_reorient  #important for SAPT in psi4, default
symmetry c1  #important for SAPT in psi4, default
}

set PROPERTIES_ORIGIN ["COM"]
properties('MP2/aug-cc-pvtz', properties = ['dipole'])
--------------------------------------------------------------------------

    Molecular point group: c1
  Charge       = -1
  Multiplicity = 1
  Basis Set: AUG-CC-PVTZ
    Blend: AUG-CC-PVTZ
  Basis Set: (AUG-CC-PVTZ AUX)
    Blend: AUG-CC-PVTZ-JKFIT

    Orbital Energies [Eh]
    ---------------------

    Doubly Occupied:

       1A    -20.292929     2A    -20.290133     3A    -11.135632
       4A    -11.039649     5A     -1.169129     6A     -1.076628
       7A     -0.773343     8A     -0.506992     9A     -0.414282
      10A     -0.412878    11A     -0.402655    12A     -0.363802
      13A     -0.323472    14A     -0.212261    15A     -0.196679
      16A     -0.180956

  @DF-RHF Final Energy:  -227.32652228195752

   => Energetics <=

    Nuclear Repulsion Energy =            111.3923813899961743
    One-Electron Energy =                -539.8549673045216650
    Two-Electron Energy =                 201.1360636325679820
    Total Energy =                       -227.3265222819575229
  Basis Set: (AUG-CC-PVTZ AUX)
    Blend: AUG-CC-PVTZ-RI
    Molecular point group: c1

    Geometry (in Angstrom), charge = -1, multiplicity = 1:

       Center              X                  Y                   Z               Mass
    ------------   -----------------  -----------------  -----------------  -----------------
         C           -1.444035745526    -0.065597643609    -0.000000017078    12.000000000000
         C            0.166112154474     0.001283456391    -0.000000017078    12.000000000000
         O            0.587810254474     1.172598356391    -0.000000017078    15.994914619570
         O            0.716011254474    -1.112822643609    -0.000000017078    15.994914619570
         H           -1.835630745526     0.457893356391     0.880302982922     1.007825032230
         H           -1.835631745526     0.457907356391    -0.880294017078     1.007825032230
         H           -1.805313745526    -1.098706643609    -0.000008017078     1.007825032230

  Basis Set: AUG-CC-PVTZ
    Blend: AUG-CC-PVTZ
  Basis Set: (AUG-CC-PVTZ AUX)
    Blend: AUG-CC-PVTZ-JKFIT
	 Reference Energy          =    -227.3265222819575229 [Eh]
	 Singles Energy            =      -0.0000000000000000 [Eh]
	 Same-Spin Energy          =      -0.2224572337859545 [Eh]
	 Opposite-Spin Energy      =      -0.6743668368015204 [Eh]
	 Correlation Energy        =      -0.8968240705874749 [Eh]
	 Total Energy              =    -228.2233463525450077 [Eh]

	 ================> DF-SCS-MP2 Energies <==================
	-----------------------------------------------------------
	 SCS Same-Spin Scale       =       0.3333333333333333 [-]
	 SCS Opposite-Spin Scale   =       1.2000000000000000 [-]
	 SCS Same-Spin Energy      =      -0.0741524112619848 [Eh]
	 SCS Opposite-Spin Energy  =      -0.8092402041618245 [Eh]
	 SCS Correlation Energy    =      -0.8833926154238093 [Eh]
	 SCS Total Energy          =    -228.2099148973813385 [Eh]
	-----------------------------------------------------------

  Dipole Moment: [D]
     X:    -2.7977      Y:    -0.1597      Z:    -0.0000     Total:     2.8023

*** Psi4 exiting successfully. Buy a developer a beer!
