                               Psi4 1.3.2 release

  ==> Input File <==

--------------------------------------------------------------------------
#psi4
#
memory 32 gb

molecule  {
-1 1
  C        1.3468810    -0.0622760     0.0000680
  C       -0.2128060     0.0024820    -0.0005800
  O       -0.8519293    -1.0878481     0.0002058
  O       -0.6853290     1.1759020     0.0001500
  H        1.7383940     0.4614830     0.8803630
  H        1.7085910    -1.0953120     0.0003270
  H        1.7390990     0.4612900    -0.8800270
units angstrom
no_reorient  #important for SAPT in psi4, default
symmetry c1  #important for SAPT in psi4, default
}

set PROPERTIES_ORIGIN ["COM"]
properties('MP2/aug-cc-pvtz', properties = ['dipole'])
--------------------------------------------------------------------------

    Molecular point group: c1
  Charge       = -1
  Multiplicity = 1
  Basis Set: AUG-CC-PVTZ
    Blend: AUG-CC-PVTZ
  Basis Set: (AUG-CC-PVTZ AUX)
    Blend: AUG-CC-PVTZ-JKFIT

    Orbital Energies [Eh]
    ---------------------

    Doubly Occupied:

       1A    -20.288698     2A    -20.284301     3A    -11.134270
       4A    -11.049432     5A     -1.155664     6A     -1.055392
       7A     -0.790579     8A     -0.510814     9A     -0.414067
      10A     -0.411391    11A     -0.408730    12A     -0.358162
      13A     -0.314878    14A     -0.200901    15A     -0.193785
      16A     -0.186336

  @DF-RHF Final Energy:  -227.32700978267292

   => Energetics <=

    Nuclear Repulsion Energy =            111.1564700300931179
    One-Electron Energy =                -539.4521611631419091
    Two-Electron Energy =                 200.9686813503758458
    Total Energy =                       -227.3270097826729170
  Basis Set: (AUG-CC-PVTZ AUX)
    Blend: AUG-CC-PVTZ-RI
    Molecular point group: c1

    Geometry (in Angstrom), charge = -1, multiplicity = 1:

       Center              X                  Y                   Z               Mass
    ------------   -----------------  -----------------  -----------------  -----------------
         C            1.444363255011    -0.071036693796     0.000064353727    12.000000000000
         C           -0.115323744989    -0.006278693796    -0.000583646273    12.000000000000
         O           -0.754447044989    -1.096608793796     0.000202153727    15.994914619570
         O           -0.587846744989     1.167141306204     0.000146353727    15.994914619570
         H            1.835876255011     0.452722306204     0.880359353727     1.007825032230
         H            1.806073255011    -1.104072693796     0.000323353727     1.007825032230
         H            1.836581255011     0.452529306204    -0.880030646273     1.007825032230

  Basis Set: AUG-CC-PVTZ
    Blend: AUG-CC-PVTZ
  Basis Set: (AUG-CC-PVTZ AUX)
    Blend: AUG-CC-PVTZ-JKFIT
	 Reference Energy          =    -227.3270097826729170 [Eh]
	 Singles Energy            =      -0.0000000000000000 [Eh]
	 Same-Spin Energy          =      -0.2229284377303526 [Eh]
	 Opposite-Spin Energy      =      -0.6755866934306480 [Eh]
	 Correlation Energy        =      -0.8985151311610007 [Eh]
	 Total Energy              =    -228.2255249138339082 [Eh]

	 ================> DF-SCS-MP2 Energies <==================
	-----------------------------------------------------------
	 SCS Same-Spin Scale       =       0.3333333333333333 [-]
	 SCS Opposite-Spin Scale   =       1.2000000000000000 [-]
	 SCS Same-Spin Energy      =      -0.0743094792434509 [Eh]
	 SCS Opposite-Spin Energy  =      -0.8107040321167777 [Eh]
	 SCS Correlation Energy    =      -0.8850135113602285 [Eh]
	 SCS Total Energy          =    -228.2120232940331448 [Eh]
	-----------------------------------------------------------

  Dipole Moment: [D]
     X:     3.3377      Y:    -0.2030      Z:    -0.0007     Total:     3.3439

*** Psi4 exiting successfully. Buy a developer a beer!
