                               Psi4 1.3.2 release

  ==> Input File <==

--------------------------------------------------------------------------
#psi4
#
memory 32 gb

molecule  {
-1 1
  C        1.3468810    -0.0622760     0.0000680
  C       -0.2128060     0.0024820    -0.0005800
  O       -0.9085444    -1.2854556     0.0002678
  O       -0.6853290     1.1759020     0.0001500
  H        1.7383940     0.4614830     0.8803630
  H        1.7085910    -1.0953120     0.0003270
  H        1.7390990     0.4612900    -0.8800270
units angstrom
no_reorient  #important for SAPT in psi4, default
symmetry c1  #important for SAPT in psi4, default
}

set PROPERTIES_ORIGIN ["COM"]
properties('MP2/aug-cc-pvtz', properties = ['dipole'])
--------------------------------------------------------------------------

    Molecular point group: c1
  Charge       = -1
  Multiplicity = 1
  Basis Set: AUG-CC-PVTZ
    Blend: AUG-CC-PVTZ
  Basis Set: (AUG-CC-PVTZ AUX)
    Blend: AUG-CC-PVTZ-JKFIT

    Orbital Energies [Eh]
    ---------------------

    Doubly Occupied:

       1A    -20.323675     2A    -20.288358     3A    -11.166910
       4A    -11.063297     5A     -1.146211     6A     -0.995062
       7A     -0.802309     8A     -0.528490     9A     -0.417433
      10A     -0.414050    11A     -0.404337    12A     -0.343054
      13A     -0.304214    14A     -0.204864    15A     -0.191761
      16A     -0.180356

  @DF-RHF Final Energy:  -227.28142195867389

   => Energetics <=

    Nuclear Repulsion Energy =            106.4637386370722965
    One-Electron Energy =                -529.9415595743165568
    Two-Electron Energy =                 196.1963989785703575
    Total Energy =                       -227.2814219586738886
  Basis Set: (AUG-CC-PVTZ AUX)
    Blend: AUG-CC-PVTZ-RI
    Molecular point group: c1

    Geometry (in Angstrom), charge = -1, multiplicity = 1:

       Center              X                  Y                   Z               Mass
    ------------   -----------------  -----------------  -----------------  -----------------
         C            1.459708162415    -0.017477329069     0.000047549301    12.000000000000
         C           -0.099978837585     0.047280670931    -0.000600450699    12.000000000000
         O           -0.795717237585    -1.240656929069     0.000247349301    15.994914619570
         O           -0.572501837585     1.220700670931     0.000129549301    15.994914619570
         H            1.851221162415     0.506281670931     0.880342549301     1.007825032230
         H            1.821418162415    -1.050513329069     0.000306549301     1.007825032230
         H            1.851926162415     0.506088670931    -0.880047450699     1.007825032230

  Basis Set: AUG-CC-PVTZ
    Blend: AUG-CC-PVTZ
  Basis Set: (AUG-CC-PVTZ AUX)
    Blend: AUG-CC-PVTZ-JKFIT
	 Reference Energy          =    -227.2814219586738886 [Eh]
	 Singles Energy            =      -0.0000000000000000 [Eh]
	 Same-Spin Energy          =      -0.2261822504546871 [Eh]
	 Opposite-Spin Energy      =      -0.6854716750254826 [Eh]
	 Correlation Energy        =      -0.9116539254801697 [Eh]
	 Total Energy              =    -228.1930758841540694 [Eh]

	 ================> DF-SCS-MP2 Energies <==================
	-----------------------------------------------------------
	 SCS Same-Spin Scale       =       0.3333333333333333 [-]
	 SCS Opposite-Spin Scale   =       1.2000000000000000 [-]
	 SCS Same-Spin Energy      =      -0.0753940834848957 [Eh]
	 SCS Opposite-Spin Energy  =      -0.8225660100305791 [Eh]
	 SCS Correlation Energy    =      -0.8979600935154748 [Eh]
	 SCS Total Energy          =    -228.1793820521893679 [Eh]
	-----------------------------------------------------------

  Dipole Moment: [D]
     X:     3.8167      Y:     1.1300      Z:    -0.0007     Total:     3.9805

*** Psi4 exiting successfully. Buy a developer a beer!
