                               Psi4 1.3.2 release

  ==> Input File <==

--------------------------------------------------------------------------
#psi4
#
memory 32 gb

molecule  {
-1 1
  C        1.3436709    -0.1166688     0.0000229
  C       -0.2128060     0.0024820    -0.0005800
  O       -0.8134880    -1.1094890     0.0001520
  O       -0.6853290     1.1759020     0.0001500
  H        1.7383940     0.4614830     0.8803630
  H        1.7085910    -1.0953120     0.0003270
  H        1.7390990     0.4612900    -0.8800270
units angstrom
no_reorient  #important for SAPT in psi4, default
symmetry c1  #important for SAPT in psi4, default
}

set PROPERTIES_ORIGIN ["COM"]
properties('MP2/aug-cc-pvtz', properties = ['dipole'])
--------------------------------------------------------------------------

    Molecular point group: c1
  Charge       = -1
  Multiplicity = 1
  Basis Set: AUG-CC-PVTZ
    Blend: AUG-CC-PVTZ
  Basis Set: (AUG-CC-PVTZ AUX)
    Blend: AUG-CC-PVTZ-JKFIT

    Orbital Energies [Eh]
    ---------------------

    Doubly Occupied:

       1A    -20.288797     2A    -20.288202     3A    -11.135647
       4A    -11.047648     5A     -1.156043     6A     -1.059168
       7A     -0.788648     8A     -0.512196     9A     -0.422532
      10A     -0.410864    11A     -0.397359    12A     -0.365111
      13A     -0.309217    14A     -0.204741    15A     -0.191669
      16A     -0.189093

  @DF-RHF Final Energy:  -227.32370123812544

   => Energetics <=

    Nuclear Repulsion Energy =            111.1810651329797821
    One-Electron Energy =                -539.4756630899371430
    Two-Electron Energy =                 200.9708967188319377
    Total Energy =                       -227.3237012381254374
  Basis Set: (AUG-CC-PVTZ AUX)
    Blend: AUG-CC-PVTZ-RI
    Molecular point group: c1

    Geometry (in Angstrom), charge = -1, multiplicity = 1:

       Center              X                  Y                   Z               Mass
    ------------   -----------------  -----------------  -----------------  -----------------
         C            1.431386813033    -0.108503514832     0.000043006446    12.000000000000
         C           -0.125090086967     0.010647285168    -0.000559893554    12.000000000000
         O           -0.725772086967    -1.101323714832     0.000172106446    15.994914619570
         O           -0.597613086967     1.184067285168     0.000170106446    15.994914619570
         H            1.826109913033     0.469648285168     0.880383106446     1.007825032230
         H            1.796306913033    -1.087146714832     0.000347106446     1.007825032230
         H            1.826814913033     0.469455285168    -0.880006893554     1.007825032230

  Basis Set: AUG-CC-PVTZ
    Blend: AUG-CC-PVTZ
  Basis Set: (AUG-CC-PVTZ AUX)
    Blend: AUG-CC-PVTZ-JKFIT
	 Reference Energy          =    -227.3237012381254374 [Eh]
	 Singles Energy            =      -0.0000000000000000 [Eh]
	 Same-Spin Energy          =      -0.2230414120623269 [Eh]
	 Opposite-Spin Energy      =      -0.6757603155975225 [Eh]
	 Correlation Energy        =      -0.8988017276598493 [Eh]
	 Total Energy              =    -228.2225029657852815 [Eh]

	 ================> DF-SCS-MP2 Energies <==================
	-----------------------------------------------------------
	 SCS Same-Spin Scale       =       0.3333333333333333 [-]
	 SCS Opposite-Spin Scale   =       1.2000000000000000 [-]
	 SCS Same-Spin Energy      =      -0.0743471373541089 [Eh]
	 SCS Opposite-Spin Energy  =      -0.8109123787170269 [Eh]
	 SCS Correlation Energy    =      -0.8852595160711358 [Eh]
	 SCS Total Energy          =    -228.2089607541965677 [Eh]
	-----------------------------------------------------------

  Dipole Moment: [D]
     X:     3.2377      Y:    -0.2635      Z:    -0.0008     Total:     3.2484

*** Psi4 exiting successfully. Buy a developer a beer!
