                               Psi4 1.4a2.dev612

  ==> Input File <==

--------------------------------------------------------------------------
#psi4
#
memory 32 gb

molecule  {
0 1
  O       -2.8968130    -0.3474360    -0.2563530
  O       -0.5825960    -1.5131530     0.0834280
  N        0.6646380     0.3451110    -0.3514860
  C        1.9521820    -0.3066060    -0.1296730
  C       -1.7875910     0.5207530    -0.3412920
  C        2.3087340    -0.3110910     1.3526080
  C        3.0072020     0.3769410    -0.9846900
  C       -0.5092170    -0.3043550    -0.1811720
  C       -1.8991130     1.5929580     0.7362800
  H        1.8182130    -1.3395260    -0.4626630
  H        0.6508110     1.3528600    -0.4628320
  H       -1.7688680     0.9937940    -1.3356380
  H        2.4085440     0.7136460     1.7243230
  H        1.5276200    -0.8195050     1.9221530
  H        3.2560570    -0.8319740     1.5215790
  H        3.1304270     1.4235350    -0.6835410
  H        2.7315590     0.3479870    -2.0412990
  H        3.9738610    -0.1182480    -0.8633910
  H       -1.8420940     1.1254490     1.7220580
  H       -2.8670940     2.0889060     0.6442650
  H       -1.1140830     2.3514110     0.6543310
  H       -2.4990480    -1.2315890    -0.0938460
units angstrom
no_reorient  #important for SAPT in psi4, default
symmetry c1  #important for SAPT in psi4, default
}

set PROPERTIES_ORIGIN ["COM"]
properties('MP2/aug-cc-pvtz', properties = ['dipole'])
--------------------------------------------------------------------------

    Molecular point group: c1
  Charge       = 0
  Multiplicity = 1
  Basis Set: AUG-CC-PVTZ
    Blend: AUG-CC-PVTZ
  Basis Set: (AUG-CC-PVTZ AUX)
    Blend: AUG-CC-PVTZ-JKFIT

    Orbital Energies [Eh]
    ---------------------

    Doubly Occupied:

       1A    -20.547806     2A    -20.532482     3A    -15.595723
       4A    -11.358286     5A    -11.297341     6A    -11.277229
       7A    -11.232326     8A    -11.230767     9A    -11.222251
      10A     -1.397219    11A     -1.345773    12A     -1.247980
      13A     -1.072253    14A     -1.023862    15A     -0.949860
      16A     -0.894993    17A     -0.822371    18A     -0.794969
      19A     -0.736456    20A     -0.678886    21A     -0.649491
      22A     -0.632407    23A     -0.628806    24A     -0.597086
      25A     -0.581618    26A     -0.567538    27A     -0.555112
      28A     -0.548132    29A     -0.539344    30A     -0.530142
      31A     -0.512429    32A     -0.502775    33A     -0.491511
      34A     -0.444920    35A     -0.434380    36A     -0.401439

  @DF-RHF Final Energy:  -439.13785558977287

   => Energetics <=

    Nuclear Repulsion Energy =            485.3053304275297819
    One-Electron Energy =               -1561.1344470256265140
    Two-Electron Energy =                 636.6912610083238633
    Total Energy =                       -439.1378555897729257
  Basis Set: (AUG-CC-PVTZ AUX)
    Blend: AUG-CC-PVTZ-RI
    Molecular point group: c1

    Geometry (in Angstrom), charge = 0, multiplicity = 1:

       Center              X                  Y                   Z               Mass
    ------------   -----------------  -----------------  -----------------  -----------------
         O           -2.896812967416    -0.347435945904    -0.256352977283    15.994914619570
         O           -0.582595967416    -1.513152945904     0.083428022717    15.994914619570
         N            0.664638032584     0.345111054096    -0.351485977283    14.003074004430
         C            1.952182032584    -0.306605945904    -0.129672977283    12.000000000000
         C           -1.787590967416     0.520753054096    -0.341291977283    12.000000000000
         C            2.308734032584    -0.311090945904     1.352608022717    12.000000000000
         C            3.007202032584     0.376941054096    -0.984689977283    12.000000000000
         C           -0.509216967416    -0.304354945904    -0.181171977283    12.000000000000
         C           -1.899112967416     1.592958054096     0.736280022717    12.000000000000
         H            1.818213032584    -1.339525945904    -0.462662977283     1.007825032230
         H            0.650811032584     1.352860054096    -0.462831977283     1.007825032230
         H           -1.768867967416     0.993794054096    -1.335637977283     1.007825032230
         H            2.408544032584     0.713646054096     1.724323022717     1.007825032230
         H            1.527620032584    -0.819504945904     1.922153022717     1.007825032230
         H            3.256057032584    -0.831973945904     1.521579022717     1.007825032230
         H            3.130427032584     1.423535054096    -0.683540977283     1.007825032230
         H            2.731559032584     0.347987054096    -2.041298977283     1.007825032230
         H            3.973861032584    -0.118247945904    -0.863390977283     1.007825032230
         H           -1.842093967416     1.125449054096     1.722058022717     1.007825032230
         H           -2.867093967416     2.088906054096     0.644265022717     1.007825032230
         H           -1.114082967416     2.351411054096     0.654331022717     1.007825032230
         H           -2.499047967416    -1.231588945904    -0.093845977283     1.007825032230

  Basis Set: AUG-CC-PVTZ
    Blend: AUG-CC-PVTZ
  Basis Set: (AUG-CC-PVTZ AUX)
    Blend: AUG-CC-PVTZ-JKFIT
	 Reference Energy          =    -439.1378555897728688 [Eh]
	 Singles Energy            =      -0.0000000000000000 [Eh]
	 Same-Spin Energy          =      -0.4460272760549119 [Eh]
	 Opposite-Spin Energy      =      -1.4636428511295545 [Eh]
	 Correlation Energy        =      -1.9096701271844663 [Eh]
	 Total Energy              =    -441.0475257169573524 [Eh]

	 ================> DF-SCS-MP2 Energies <==================
	-----------------------------------------------------------
	 SCS Same-Spin Scale       =       0.3333333333333333 [-]
	 SCS Opposite-Spin Scale   =       1.2000000000000000 [-]
	 SCS Same-Spin Energy      =      -0.1486757586849706 [Eh]
	 SCS Opposite-Spin Energy  =      -1.7563714213554653 [Eh]
	 SCS Correlation Energy    =      -1.9050471800404361 [Eh]
	 SCS Total Energy          =    -441.0429027698132813 [Eh]
	-----------------------------------------------------------

  Dipole Moment: [D]
     X:     3.5769      Y:     2.9166      Z:    -0.2250     Total:     4.6208

*** Psi4 exiting successfully. Buy a developer a beer!
