                               Psi4 1.4a2.dev612

  ==> Input File <==

--------------------------------------------------------------------------
#psi4
#
memory 32 gb

molecule  {
0 1
  O       -2.8968130    -0.3474360    -0.2563530
  O       -0.5825960    -1.5131530     0.0834280
  N        0.6646380     0.3451110    -0.3514860
  C        1.9521820    -0.3066060    -0.1296730
  C       -1.7817445     0.5853797    -0.0483941
  C        2.3087340    -0.3110910     1.3526080
  C        3.0072020     0.3769410    -0.9846900
  C       -0.5092170    -0.3043550    -0.1811720
  C       -1.8991130     1.5929580     0.7362800
  H        1.8182130    -1.3395260    -0.4626630
  H        0.6508110     1.3528600    -0.4628320
  H       -1.7688680     0.9937940    -1.3356380
  H        2.4085440     0.7136460     1.7243230
  H        1.5276200    -0.8195050     1.9221530
  H        3.2560570    -0.8319740     1.5215790
  H        3.1304270     1.4235350    -0.6835410
  H        2.7315590     0.3479870    -2.0412990
  H        3.9738610    -0.1182480    -0.8633910
  H       -1.8420940     1.1254490     1.7220580
  H       -2.8670940     2.0889060     0.6442650
  H       -1.1140830     2.3514110     0.6543310
  H       -2.4990480    -1.2315890    -0.0938460
units angstrom
no_reorient  #important for SAPT in psi4, default
symmetry c1  #important for SAPT in psi4, default
}

set PROPERTIES_ORIGIN ["COM"]
properties('MP2/aug-cc-pvtz', properties = ['dipole'])
--------------------------------------------------------------------------

    Molecular point group: c1
  Charge       = 0
  Multiplicity = 1
  Basis Set: AUG-CC-PVTZ
    Blend: AUG-CC-PVTZ
  Basis Set: (AUG-CC-PVTZ AUX)
    Blend: AUG-CC-PVTZ-JKFIT

    Orbital Energies [Eh]
    ---------------------

    Doubly Occupied:

       1A    -20.549141     2A    -20.533845     3A    -15.595279
       4A    -11.366043     5A    -11.314021     6A    -11.277699
       7A    -11.231908     8A    -11.227467     9A    -11.223481
      10A     -1.395366    11A     -1.333813    12A     -1.248454
      13A     -1.111154    14A     -1.058239    15A     -0.950316
      16A     -0.890093    17A     -0.815061    18A     -0.788669
      19A     -0.730638    20A     -0.678275    21A     -0.664857
      22A     -0.639938    23A     -0.629307    24A     -0.609276
      25A     -0.600578    26A     -0.583866    27A     -0.557154
      28A     -0.551654    29A     -0.540457    30A     -0.513389
      31A     -0.508019    32A     -0.497194    33A     -0.492733
      34A     -0.442126    35A     -0.410136    36A     -0.384112

  @DF-RHF Final Energy:  -439.03883249022181

   => Energetics <=

    Nuclear Repulsion Energy =            486.5692730629444895
    One-Electron Energy =               -1563.3286932037842689
    Two-Electron Energy =                 637.7205876506178583
    Total Energy =                       -439.0388324902218073
  Basis Set: (AUG-CC-PVTZ AUX)
    Blend: AUG-CC-PVTZ-RI
    Molecular point group: c1

    Geometry (in Angstrom), charge = 0, multiplicity = 1:

       Center              X                  Y                   Z               Mass
    ------------   -----------------  -----------------  -----------------  -----------------
         O           -2.897348138084    -0.353351675693    -0.283163952194    15.994914619570
         O           -0.583131138084    -1.519068675693     0.056617047806    15.994914619570
         N            0.664102861916     0.339195324307    -0.378296952194    14.003074004430
         C            1.951646861916    -0.312521675693    -0.156483952194    12.000000000000
         C           -1.782279638084     0.579464024307    -0.075205052194    12.000000000000
         C            2.308198861916    -0.317006675693     1.325797047806    12.000000000000
         C            3.006666861916     0.371025324307    -1.011500952194    12.000000000000
         C           -0.509752138084    -0.310270675693    -0.207982952194    12.000000000000
         C           -1.899648138084     1.587042324307     0.709469047806    12.000000000000
         H            1.817677861916    -1.345441675693    -0.489473952194     1.007825032230
         H            0.650275861916     1.346944324307    -0.489642952194     1.007825032230
         H           -1.769403138084     0.987878324307    -1.362448952194     1.007825032230
         H            2.408008861916     0.707730324307     1.697512047806     1.007825032230
         H            1.527084861916    -0.825420675693     1.895342047806     1.007825032230
         H            3.255521861916    -0.837889675693     1.494768047806     1.007825032230
         H            3.129891861916     1.417619324307    -0.710351952194     1.007825032230
         H            2.731023861916     0.342071324307    -2.068109952194     1.007825032230
         H            3.973325861916    -0.124163675693    -0.890201952194     1.007825032230
         H           -1.842629138084     1.119533324307     1.695247047806     1.007825032230
         H           -2.867629138084     2.082990324307     0.617454047806     1.007825032230
         H           -1.114618138084     2.345495324307     0.627520047806     1.007825032230
         H           -2.499583138084    -1.237504675693    -0.120656952194     1.007825032230

  Basis Set: AUG-CC-PVTZ
    Blend: AUG-CC-PVTZ
  Basis Set: (AUG-CC-PVTZ AUX)
    Blend: AUG-CC-PVTZ-JKFIT
	 Reference Energy          =    -439.0388324902218073 [Eh]
	 Singles Energy            =      -0.0000000000000000 [Eh]
	 Same-Spin Energy          =      -0.4503912443054155 [Eh]
	 Opposite-Spin Energy      =      -1.4714511121423088 [Eh]
	 Correlation Energy        =      -1.9218423564477243 [Eh]
	 Total Energy              =    -440.9606748466695194 [Eh]

	 ================> DF-SCS-MP2 Energies <==================
	-----------------------------------------------------------
	 SCS Same-Spin Scale       =       0.3333333333333333 [-]
	 SCS Opposite-Spin Scale   =       1.2000000000000000 [-]
	 SCS Same-Spin Energy      =      -0.1501304147684718 [Eh]
	 SCS Opposite-Spin Energy  =      -1.7657413345707706 [Eh]
	 SCS Correlation Energy    =      -1.9158717493392425 [Eh]
	 SCS Total Energy          =    -440.9547042395610674 [Eh]
	-----------------------------------------------------------

  Dipole Moment: [D]
     X:     3.6121      Y:     3.1027      Z:     0.4179     Total:     4.7800

*** Psi4 exiting successfully. Buy a developer a beer!
