                               Psi4 1.4a2.dev612

  ==> Input File <==

--------------------------------------------------------------------------
#psi4
#
memory 32 gb

molecule  {
0 1
  O       -2.8968130    -0.3474360    -0.2563530
  O       -0.5825960    -1.5131530     0.0834280
  N        0.6646380     0.3451110    -0.3514860
  C        1.9521820    -0.3066060    -0.1296730
  C       -1.7856422     0.5422952    -0.2436594
  C        2.3087340    -0.3110910     1.3526080
  C        3.0072020     0.3769410    -0.9846900
  C       -0.5092170    -0.3043550    -0.1811720
  C       -1.8991130     1.5929580     0.7362800
  H        1.8182130    -1.3395260    -0.4626630
  H        0.6508110     1.3528600    -0.4628320
  H       -1.7688680     0.9937940    -1.3356380
  H        2.4085440     0.7136460     1.7243230
  H        1.5276200    -0.8195050     1.9221530
  H        3.2560570    -0.8319740     1.5215790
  H        3.1304270     1.4235350    -0.6835410
  H        2.7315590     0.3479870    -2.0412990
  H        3.9738610    -0.1182480    -0.8633910
  H       -1.8420940     1.1254490     1.7220580
  H       -2.8670940     2.0889060     0.6442650
  H       -1.1140830     2.3514110     0.6543310
  H       -2.4990480    -1.2315890    -0.0938460
units angstrom
no_reorient  #important for SAPT in psi4, default
symmetry c1  #important for SAPT in psi4, default
}

set PROPERTIES_ORIGIN ["COM"]
properties('MP2/aug-cc-pvtz', properties = ['dipole'])
--------------------------------------------------------------------------

    Molecular point group: c1
  Charge       = 0
  Multiplicity = 1
  Basis Set: AUG-CC-PVTZ
    Blend: AUG-CC-PVTZ
  Basis Set: (AUG-CC-PVTZ AUX)
    Blend: AUG-CC-PVTZ-JKFIT

    Orbital Energies [Eh]
    ---------------------

    Doubly Occupied:

       1A    -20.547624     2A    -20.532837     3A    -15.595785
       4A    -11.359401     5A    -11.301159     6A    -11.277420
       7A    -11.232249     8A    -11.229256     9A    -11.222677
      10A     -1.396756    11A     -1.342962    12A     -1.248207
      13A     -1.076695    14A     -1.038809    15A     -0.950048
      16A     -0.894039    17A     -0.819371    18A     -0.792832
      19A     -0.734108    20A     -0.677130    21A     -0.648714
      22A     -0.635552    23A     -0.628939    24A     -0.597981
      25A     -0.589909    26A     -0.572616    27A     -0.555402
      28A     -0.550312    29A     -0.538720    30A     -0.523917
      31A     -0.511023    32A     -0.502447    33A     -0.492266
      34A     -0.446366    35A     -0.429365    36A     -0.400468

  @DF-RHF Final Energy:  -439.12648815766420

   => Energetics <=

    Nuclear Repulsion Energy =            485.8104760374474722
    One-Electron Energy =               -1562.0872079352197943
    Two-Electron Energy =                 637.1502437401081806
    Total Energy =                       -439.1264881576641983
  Basis Set: (AUG-CC-PVTZ AUX)
    Blend: AUG-CC-PVTZ-RI
    Molecular point group: c1

    Geometry (in Angstrom), charge = 0, multiplicity = 1:

       Center              X                  Y                   Z               Mass
    ------------   -----------------  -----------------  -----------------  -----------------
         O           -2.896991354587    -0.349407852782    -0.265289965869    15.994914619570
         O           -0.582774354587    -1.515124852782     0.074491034131    15.994914619570
         N            0.664459645413     0.343139147218    -0.360422965869    14.003074004430
         C            1.952003645413    -0.308577852782    -0.138609965869    12.000000000000
         C           -1.785820554587     0.540323347218    -0.252596365869    12.000000000000
         C            2.308555645413    -0.313062852782     1.343671034131    12.000000000000
         C            3.007023645413     0.374969147218    -0.993626965869    12.000000000000
         C           -0.509395354587    -0.306326852782    -0.190108965869    12.000000000000
         C           -1.899291354587     1.590986147218     0.727343034131    12.000000000000
         H            1.818034645413    -1.341497852782    -0.471599965869     1.007825032230
         H            0.650632645413     1.350888147218    -0.471768965869     1.007825032230
         H           -1.769046354587     0.991822147218    -1.344574965869     1.007825032230
         H            2.408365645413     0.711674147218     1.715386034131     1.007825032230
         H            1.527441645413    -0.821476852782     1.913216034131     1.007825032230
         H            3.255878645413    -0.833945852782     1.512642034131     1.007825032230
         H            3.130248645413     1.421563147218    -0.692477965869     1.007825032230
         H            2.731380645413     0.346015147218    -2.050235965869     1.007825032230
         H            3.973682645413    -0.120219852782    -0.872327965869     1.007825032230
         H           -1.842272354587     1.123477147218     1.713121034131     1.007825032230
         H           -2.867272354587     2.086934147218     0.635328034131     1.007825032230
         H           -1.114261354587     2.349439147218     0.645394034131     1.007825032230
         H           -2.499226354587    -1.233560852782    -0.102782965869     1.007825032230

  Basis Set: AUG-CC-PVTZ
    Blend: AUG-CC-PVTZ
  Basis Set: (AUG-CC-PVTZ AUX)
    Blend: AUG-CC-PVTZ-JKFIT
	 Reference Energy          =    -439.1264881576641983 [Eh]
	 Singles Energy            =      -0.0000000000000000 [Eh]
	 Same-Spin Energy          =      -0.4468292427963061 [Eh]
	 Opposite-Spin Energy      =      -1.4649284638245947 [Eh]
	 Correlation Energy        =      -1.9117577066209008 [Eh]
	 Total Energy              =    -441.0382458642851020 [Eh]

	 ================> DF-SCS-MP2 Energies <==================
	-----------------------------------------------------------
	 SCS Same-Spin Scale       =       0.3333333333333333 [-]
	 SCS Opposite-Spin Scale   =       1.2000000000000000 [-]
	 SCS Same-Spin Energy      =      -0.1489430809321020 [Eh]
	 SCS Opposite-Spin Energy  =      -1.7579141565895136 [Eh]
	 SCS Correlation Energy    =      -1.9068572375216155 [Eh]
	 SCS Total Energy          =    -441.0333453951857905 [Eh]
	-----------------------------------------------------------

  Dipole Moment: [D]
     X:     3.6001      Y:     2.9751      Z:    -0.0458     Total:     4.6705

*** Psi4 exiting successfully. Buy a developer a beer!
