                               Psi4 1.4a2.dev612

  ==> Input File <==

--------------------------------------------------------------------------
#psi4
#
memory 32 gb

molecule  {
0 1
  O       -2.8968130    -0.3474360    -0.2563530
  O       -0.5825960    -1.5131530     0.0834280
  N        0.6646380     0.3451110    -0.3514860
  C        1.9521820    -0.3066060    -0.1296730
  C       -1.7875910     0.5207530    -0.3412920
  C        2.3087340    -0.3110910     1.3526080
  C        3.0072020     0.3769410    -0.9846900
  C       -0.5092170    -0.3043550    -0.1811720
  C       -1.8991130     1.5929580     0.7362800
  H        1.8182130    -1.3395260    -0.4626630
  H        0.6548921     1.3165824    -0.6594720
  H       -1.7688680     0.9937940    -1.3356380
  H        2.4085440     0.7136460     1.7243230
  H        1.5276200    -0.8195050     1.9221530
  H        3.2560570    -0.8319740     1.5215790
  H        3.1304270     1.4235350    -0.6835410
  H        2.7315590     0.3479870    -2.0412990
  H        3.9738610    -0.1182480    -0.8633910
  H       -1.8420940     1.1254490     1.7220580
  H       -2.8670940     2.0889060     0.6442650
  H       -1.1140830     2.3514110     0.6543310
  H       -2.4990480    -1.2315890    -0.0938460
units angstrom
no_reorient  #important for SAPT in psi4, default
symmetry c1  #important for SAPT in psi4, default
}

set PROPERTIES_ORIGIN ["COM"]
properties('MP2/aug-cc-pvtz', properties = ['dipole'])
--------------------------------------------------------------------------

    Molecular point group: c1
  Charge       = 0
  Multiplicity = 1
  Basis Set: AUG-CC-PVTZ
    Blend: AUG-CC-PVTZ
  Basis Set: (AUG-CC-PVTZ AUX)
    Blend: AUG-CC-PVTZ-JKFIT

    Orbital Energies [Eh]
    ---------------------

    Doubly Occupied:

       1A    -20.547574     2A    -20.532352     3A    -15.596196
       4A    -11.358216     5A    -11.297191     6A    -11.277312
       7A    -11.233580     8A    -11.229062     9A    -11.221521
      10A     -1.396996    11A     -1.345538    12A     -1.247052
      13A     -1.071985    14A     -1.023105    15A     -0.950322
      16A     -0.894266    17A     -0.821347    18A     -0.794027
      19A     -0.735951    20A     -0.679795    21A     -0.648143
      22A     -0.637379    23A     -0.628202    24A     -0.591891
      25A     -0.581018    26A     -0.566460    27A     -0.555819
      28A     -0.547632    29A     -0.539547    30A     -0.530023
      31A     -0.511813    32A     -0.502655    33A     -0.491130
      34A     -0.444525    35A     -0.434003    36A     -0.400955

  @DF-RHF Final Energy:  -439.13732517922040

   => Energetics <=

    Nuclear Repulsion Energy =            485.1957328088283248
    One-Electron Energy =               -1560.9369497713280452
    Two-Electron Energy =                 636.6038917832793231
    Total Energy =                       -439.1373251792203973
  Basis Set: (AUG-CC-PVTZ AUX)
    Blend: AUG-CC-PVTZ-RI
    Molecular point group: c1

    Geometry (in Angstrom), charge = 0, multiplicity = 1:

       Center              X                  Y                   Z               Mass
    ------------   -----------------  -----------------  -----------------  -----------------
         O           -2.896844341964    -0.347157052148    -0.254841254672    15.994914619570
         O           -0.582627341964    -1.512874052148     0.084939745328    15.994914619570
         N            0.664606658036     0.345389947852    -0.349974254672    14.003074004430
         C            1.952150658036    -0.306327052148    -0.128161254672    12.000000000000
         C           -1.787622341964     0.521031947852    -0.339780254672    12.000000000000
         C            2.308702658036    -0.310812052148     1.354119745328    12.000000000000
         C            3.007170658036     0.377219947852    -0.983178254672    12.000000000000
         C           -0.509248341964    -0.304076052148    -0.179660254672    12.000000000000
         C           -1.899144341964     1.593236947852     0.737791745328    12.000000000000
         H            1.818181658036    -1.339247052148    -0.461151254672     1.007825032230
         H            0.654860758036     1.316861347852    -0.657960254672     1.007825032230
         H           -1.768899341964     0.994072947852    -1.334126254672     1.007825032230
         H            2.408512658036     0.713924947852     1.725834745328     1.007825032230
         H            1.527588658036    -0.819226052148     1.923664745328     1.007825032230
         H            3.256025658036    -0.831695052148     1.523090745328     1.007825032230
         H            3.130395658036     1.423813947852    -0.682029254672     1.007825032230
         H            2.731527658036     0.348265947852    -2.039787254672     1.007825032230
         H            3.973829658036    -0.117969052148    -0.861879254672     1.007825032230
         H           -1.842125341964     1.125727947852     1.723569745328     1.007825032230
         H           -2.867125341964     2.089184947852     0.645776745328     1.007825032230
         H           -1.114114341964     2.351689947852     0.655842745328     1.007825032230
         H           -2.499079341964    -1.231310052148    -0.092334254672     1.007825032230

  Basis Set: AUG-CC-PVTZ
    Blend: AUG-CC-PVTZ
  Basis Set: (AUG-CC-PVTZ AUX)
    Blend: AUG-CC-PVTZ-JKFIT
	 Reference Energy          =    -439.1373251792203973 [Eh]
	 Singles Energy            =      -0.0000000000000000 [Eh]
	 Same-Spin Energy          =      -0.4460800728159180 [Eh]
	 Opposite-Spin Energy      =      -1.4638032588861078 [Eh]
	 Correlation Energy        =      -1.9098833317020258 [Eh]
	 Total Energy              =    -441.0472085109224167 [Eh]

	 ================> DF-SCS-MP2 Energies <==================
	-----------------------------------------------------------
	 SCS Same-Spin Scale       =       0.3333333333333333 [-]
	 SCS Opposite-Spin Scale   =       1.2000000000000000 [-]
	 SCS Same-Spin Energy      =      -0.1486933576053060 [Eh]
	 SCS Opposite-Spin Energy  =      -1.7565639106633293 [Eh]
	 SCS Correlation Energy    =      -1.9052572682686353 [Eh]
	 SCS Total Energy          =    -441.0425824474890533 [Eh]
	-----------------------------------------------------------

  Dipole Moment: [D]
     X:     3.6208      Y:     2.8918      Z:    -0.4711     Total:     4.6578

*** Psi4 exiting successfully. Buy a developer a beer!
