                               Psi4 1.4a2.dev612

  ==> Input File <==

--------------------------------------------------------------------------
#psi4
#
memory 32 gb

molecule  {
0 1
  O       -2.8968130    -0.3474360    -0.2563530
  O       -0.5825960    -1.5131530     0.0834280
  N        0.6646380     0.3451110    -0.3514860
  C        1.9521820    -0.3066060    -0.1296730
  C       -1.7875910     0.5207530    -0.3412920
  C        2.3087340    -0.3110910     1.3526080
  C        3.0072020     0.3769410    -0.9846900
  C       -0.5092170    -0.3043550    -0.1811720
  C       -1.8991130     1.5929580     0.7362800
  H        1.8182130    -1.3395260    -0.4626630
  H        0.6569326     1.2984436    -0.7577920
  H       -1.7688680     0.9937940    -1.3356380
  H        2.4085440     0.7136460     1.7243230
  H        1.5276200    -0.8195050     1.9221530
  H        3.2560570    -0.8319740     1.5215790
  H        3.1304270     1.4235350    -0.6835410
  H        2.7315590     0.3479870    -2.0412990
  H        3.9738610    -0.1182480    -0.8633910
  H       -1.8420940     1.1254490     1.7220580
  H       -2.8670940     2.0889060     0.6442650
  H       -1.1140830     2.3514110     0.6543310
  H       -2.4990480    -1.2315890    -0.0938460
units angstrom
no_reorient  #important for SAPT in psi4, default
symmetry c1  #important for SAPT in psi4, default
}

set PROPERTIES_ORIGIN ["COM"]
properties('MP2/aug-cc-pvtz', properties = ['dipole'])
--------------------------------------------------------------------------

    Molecular point group: c1
  Charge       = 0
  Multiplicity = 1
  Basis Set: AUG-CC-PVTZ
    Blend: AUG-CC-PVTZ
  Basis Set: (AUG-CC-PVTZ AUX)
    Blend: AUG-CC-PVTZ-JKFIT

    Orbital Energies [Eh]
    ---------------------

    Doubly Occupied:

       1A    -20.547498     2A    -20.532819     3A    -15.597399
       4A    -11.358268     5A    -11.297124     6A    -11.277157
       7A    -11.234030     8A    -11.228212     9A    -11.221240
      10A     -1.397089    11A     -1.345508    12A     -1.245310
      13A     -1.071626    14A     -1.022533    15A     -0.950450
      16A     -0.893817    17A     -0.820494    18A     -0.790058
      19A     -0.735655    20A     -0.680125    21A     -0.647189
      22A     -0.639306    23A     -0.627747    24A     -0.589064
      25A     -0.580563    26A     -0.565963    27A     -0.556073
      28A     -0.547301    29A     -0.539677    30A     -0.529857
      31A     -0.511287    32A     -0.502566    33A     -0.490837
      34A     -0.444344    35A     -0.434052    36A     -0.400950

  @DF-RHF Final Energy:  -439.13574184445923

   => Energetics <=

    Nuclear Repulsion Energy =            485.0697747864545590
    One-Electron Energy =               -1560.7046529507492778
    Two-Electron Energy =                 636.4991363198353156
    Total Energy =                       -439.1357418444592895
  Basis Set: (AUG-CC-PVTZ AUX)
    Blend: AUG-CC-PVTZ-RI
    Molecular point group: c1

    Geometry (in Angstrom), charge = 0, multiplicity = 1:

       Center              X                  Y                   Z               Mass
    ------------   -----------------  -----------------  -----------------  -----------------
         O           -2.896860028854    -0.347017605270    -0.254085393367    15.994914619570
         O           -0.582643028854    -1.512734605270     0.085695606633    15.994914619570
         N            0.664590971146     0.345529394730    -0.349218393367    14.003074004430
         C            1.952134971146    -0.306187605270    -0.127405393367    12.000000000000
         C           -1.787638028854     0.521171394730    -0.339024393367    12.000000000000
         C            2.308686971146    -0.310672605270     1.354875606633    12.000000000000
         C            3.007154971146     0.377359394730    -0.982422393367    12.000000000000
         C           -0.509264028854    -0.303936605270    -0.178904393367    12.000000000000
         C           -1.899160028854     1.593376394730     0.738547606633    12.000000000000
         H            1.818165971146    -1.339107605270    -0.460395393367     1.007825032230
         H            0.656885571146     1.298861994730    -0.755524393367     1.007825032230
         H           -1.768915028854     0.994212394730    -1.333370393367     1.007825032230
         H            2.408496971146     0.714064394730     1.726590606633     1.007825032230
         H            1.527572971146    -0.819086605270     1.924420606633     1.007825032230
         H            3.256009971146    -0.831555605270     1.523846606633     1.007825032230
         H            3.130379971146     1.423953394730    -0.681273393367     1.007825032230
         H            2.731511971146     0.348405394730    -2.039031393367     1.007825032230
         H            3.973813971146    -0.117829605270    -0.861123393367     1.007825032230
         H           -1.842141028854     1.125867394730     1.724325606633     1.007825032230
         H           -2.867141028854     2.089324394730     0.646532606633     1.007825032230
         H           -1.114130028854     2.351829394730     0.656598606633     1.007825032230
         H           -2.499095028854    -1.231170605270    -0.091578393367     1.007825032230

  Basis Set: AUG-CC-PVTZ
    Blend: AUG-CC-PVTZ
  Basis Set: (AUG-CC-PVTZ AUX)
    Blend: AUG-CC-PVTZ-JKFIT
	 Reference Energy          =    -439.1357418444592327 [Eh]
	 Singles Energy            =      -0.0000000000000000 [Eh]
	 Same-Spin Energy          =      -0.4462243385981833 [Eh]
	 Opposite-Spin Energy      =      -1.4641846073279368 [Eh]
	 Correlation Energy        =      -1.9104089459261200 [Eh]
	 Total Energy              =    -441.0461507903853544 [Eh]

	 ================> DF-SCS-MP2 Energies <==================
	-----------------------------------------------------------
	 SCS Same-Spin Scale       =       0.3333333333333333 [-]
	 SCS Opposite-Spin Scale   =       1.2000000000000000 [-]
	 SCS Same-Spin Energy      =      -0.1487414461993944 [Eh]
	 SCS Opposite-Spin Energy  =      -1.7570215287935240 [Eh]
	 SCS Correlation Energy    =      -1.9057629749929184 [Eh]
	 SCS Total Energy          =    -441.0415048194521432 [Eh]
	-----------------------------------------------------------

  Dipole Moment: [D]
     X:     3.6310      Y:     2.8600      Z:    -0.5873     Total:     4.6593

*** Psi4 exiting successfully. Buy a developer a beer!
