                               Psi4 1.4a2.dev612

  ==> Input File <==

--------------------------------------------------------------------------
#psi4
#
memory 32 gb

molecule  {
0 1
  O       -2.8968130    -0.3474360    -0.2563530
  O       -0.5825960    -1.5131530     0.0834280
  N        0.6646380     0.3451110    -0.3514860
  C        1.9521820    -0.3066060    -0.1296730
  C       -1.7846677     0.5530663    -0.1948430
  C        2.3087340    -0.3110910     1.3526080
  C        3.0072020     0.3769410    -0.9846900
  C       -0.5092170    -0.3043550    -0.1811720
  C       -1.8991130     1.5929580     0.7362800
  H        1.8182130    -1.3395260    -0.4626630
  H        0.6508110     1.3528600    -0.4628320
  H       -1.7688680     0.9937940    -1.3356380
  H        2.4085440     0.7136460     1.7243230
  H        1.5276200    -0.8195050     1.9221530
  H        3.2560570    -0.8319740     1.5215790
  H        3.1304270     1.4235350    -0.6835410
  H        2.7315590     0.3479870    -2.0412990
  H        3.9738610    -0.1182480    -0.8633910
  H       -1.8420940     1.1254490     1.7220580
  H       -2.8670940     2.0889060     0.6442650
  H       -1.1140830     2.3514110     0.6543310
  H       -2.4990480    -1.2315890    -0.0938460
units angstrom
no_reorient  #important for SAPT in psi4, default
symmetry c1  #important for SAPT in psi4, default
}

set PROPERTIES_ORIGIN ["COM"]
properties('MP2/aug-cc-pvtz', properties = ['dipole'])
--------------------------------------------------------------------------

    Molecular point group: c1
  Charge       = 0
  Multiplicity = 1
  Basis Set: AUG-CC-PVTZ
    Blend: AUG-CC-PVTZ
  Basis Set: (AUG-CC-PVTZ AUX)
    Blend: AUG-CC-PVTZ-JKFIT

    Orbital Energies [Eh]
    ---------------------

    Doubly Occupied:

       1A    -20.547806     2A    -20.533053     3A    -15.595738
       4A    -11.360528     5A    -11.303771     6A    -11.277503
       7A    -11.232188     8A    -11.228562     9A    -11.222882
      10A     -1.396437    11A     -1.341087    12A     -1.248293
      13A     -1.081142    14A     -1.045973    15A     -0.950128
      16A     -0.893347    17A     -0.818146    18A     -0.791789
      19A     -0.732977    20A     -0.676774    21A     -0.650785
      22A     -0.636430    23A     -0.629073    24A     -0.598653
      25A     -0.594852    26A     -0.575271    27A     -0.555742
      28A     -0.551059    29A     -0.539013    30A     -0.520948
      31A     -0.510016    32A     -0.501709    33A     -0.492507
      34A     -0.445929    35A     -0.424514    36A     -0.399245

  @DF-RHF Final Energy:  -439.11296630641954

   => Energetics <=

    Nuclear Repulsion Energy =            486.0288214813772925
    One-Electron Energy =               -1562.4758404013339259
    Two-Electron Energy =                 637.3340526135370965
    Total Energy =                       -439.1129663064195938
  Basis Set: (AUG-CC-PVTZ AUX)
    Blend: AUG-CC-PVTZ-RI
    Molecular point group: c1

    Geometry (in Angstrom), charge = 0, multiplicity = 1:

       Center              X                  Y                   Z               Mass
    ------------   -----------------  -----------------  -----------------  -----------------
         O           -2.897080557327    -0.350393806222    -0.269758469315    15.994914619570
         O           -0.582863557327    -1.516110806222     0.070022530685    15.994914619570
         N            0.664370442673     0.342153193778    -0.364891469315    14.003074004430
         C            1.951914442673    -0.309563806222    -0.143078469315    12.000000000000
         C           -1.784935257327     0.550108493778    -0.208248469315    12.000000000000
         C            2.308466442673    -0.314048806222     1.339202530685    12.000000000000
         C            3.006934442673     0.373983193778    -0.998095469315    12.000000000000
         C           -0.509484557327    -0.307312806222    -0.194577469315    12.000000000000
         C           -1.899380557327     1.590000193778     0.722874530685    12.000000000000
         H            1.817945442673    -1.342483806222    -0.476068469315     1.007825032230
         H            0.650543442673     1.349902193778    -0.476237469315     1.007825032230
         H           -1.769135557327     0.990836193778    -1.349043469315     1.007825032230
         H            2.408276442673     0.710688193778     1.710917530685     1.007825032230
         H            1.527352442673    -0.822462806222     1.908747530685     1.007825032230
         H            3.255789442673    -0.834931806222     1.508173530685     1.007825032230
         H            3.130159442673     1.420577193778    -0.696946469315     1.007825032230
         H            2.731291442673     0.345029193778    -2.054704469315     1.007825032230
         H            3.973593442673    -0.121205806222    -0.876796469315     1.007825032230
         H           -1.842361557327     1.122491193778     1.708652530685     1.007825032230
         H           -2.867361557327     2.085948193778     0.630859530685     1.007825032230
         H           -1.114350557327     2.348453193778     0.640925530685     1.007825032230
         H           -2.499315557327    -1.234546806222    -0.107251469315     1.007825032230

  Basis Set: AUG-CC-PVTZ
    Blend: AUG-CC-PVTZ
  Basis Set: (AUG-CC-PVTZ AUX)
    Blend: AUG-CC-PVTZ-JKFIT
	 Reference Energy          =    -439.1129663064195370 [Eh]
	 Singles Energy            =      -0.0000000000000000 [Eh]
	 Same-Spin Energy          =      -0.4474657591240501 [Eh]
	 Opposite-Spin Energy      =      -1.4660708679939591 [Eh]
	 Correlation Energy        =      -1.9135366271180092 [Eh]
	 Total Energy              =    -441.0265029335375289 [Eh]

	 ================> DF-SCS-MP2 Energies <==================
	-----------------------------------------------------------
	 SCS Same-Spin Scale       =       0.3333333333333333 [-]
	 SCS Opposite-Spin Scale   =       1.2000000000000000 [-]
	 SCS Same-Spin Energy      =      -0.1491552530413500 [Eh]
	 SCS Opposite-Spin Energy  =      -1.7592850415927510 [Eh]
	 SCS Correlation Energy    =      -1.9084402946341010 [Eh]
	 SCS Total Energy          =    -441.0214066010536271 [Eh]
	-----------------------------------------------------------

  Dipole Moment: [D]
     X:     3.6073      Y:     3.0043      Z:     0.0545     Total:     4.6948

*** Psi4 exiting successfully. Buy a developer a beer!
