                               Psi4 1.4a2.dev612

  ==> Input File <==

--------------------------------------------------------------------------
#psi4
#
memory 32 gb

molecule  {
0 1
  O       -2.8968130    -0.3474360    -0.2563530
  O       -0.5825960    -1.5131530     0.0834280
  N        0.6646380     0.3451110    -0.3514860
  C        1.9521820    -0.3066060    -0.1296730
  C       -1.7875910     0.5207530    -0.3412920
  C        2.3087340    -0.3110910     1.3526080
  C        3.0072020     0.3769410    -0.9846900
  C       -0.5092170    -0.3043550    -0.1811720
  C       -1.8991130     1.5929580     0.7362800
  H        1.8182130    -1.3395260    -0.4626630
  H        0.6559123     1.3075130    -0.7086320
  H       -1.7688680     0.9937940    -1.3356380
  H        2.4085440     0.7136460     1.7243230
  H        1.5276200    -0.8195050     1.9221530
  H        3.2560570    -0.8319740     1.5215790
  H        3.1304270     1.4235350    -0.6835410
  H        2.7315590     0.3479870    -2.0412990
  H        3.9738610    -0.1182480    -0.8633910
  H       -1.8420940     1.1254490     1.7220580
  H       -2.8670940     2.0889060     0.6442650
  H       -1.1140830     2.3514110     0.6543310
  H       -2.4990480    -1.2315890    -0.0938460
units angstrom
no_reorient  #important for SAPT in psi4, default
symmetry c1  #important for SAPT in psi4, default
}

set PROPERTIES_ORIGIN ["COM"]
properties('MP2/aug-cc-pvtz', properties = ['dipole'])
--------------------------------------------------------------------------

    Molecular point group: c1
  Charge       = 0
  Multiplicity = 1
  Basis Set: AUG-CC-PVTZ
    Blend: AUG-CC-PVTZ
  Basis Set: (AUG-CC-PVTZ AUX)
    Blend: AUG-CC-PVTZ-JKFIT

    Orbital Energies [Eh]
    ---------------------

    Doubly Occupied:

       1A    -20.547533     2A    -20.532544     3A    -15.596723
       4A    -11.358235     5A    -11.297158     6A    -11.277249
       7A    -11.233820     8A    -11.228635     9A    -11.221373
      10A     -1.397026    11A     -1.345516    12A     -1.246274
      13A     -1.071822    14A     -1.022833    15A     -0.950396
      16A     -0.894046    17A     -0.820924    18A     -0.792329
      19A     -0.735809    20A     -0.679977    21A     -0.647691
      22A     -0.638390    23A     -0.627985    24A     -0.590481
      25A     -0.580813    26A     -0.566208    27A     -0.555955
      28A     -0.547471    29A     -0.539612    30A     -0.529950
      31A     -0.511565    32A     -0.502613    33A     -0.490992
      34A     -0.444433    35A     -0.434009    36A     -0.400934

  @DF-RHF Final Energy:  -439.13668722116915

   => Energetics <=

    Nuclear Repulsion Energy =            485.1382955148577025
    One-Electron Energy =               -1560.8313145477297894
    Two-Electron Energy =                 636.5563318117029894
    Total Energy =                       -439.1366872211691543
  Basis Set: (AUG-CC-PVTZ AUX)
    Blend: AUG-CC-PVTZ-RI
    Molecular point group: c1

    Geometry (in Angstrom), charge = 0, multiplicity = 1:

       Center              X                  Y                   Z               Mass
    ------------   -----------------  -----------------  -----------------  -----------------
         O           -2.896852185024    -0.347087328709    -0.254463324019    15.994914619570
         O           -0.582635185024    -1.512804328709     0.085317675981    15.994914619570
         N            0.664598814976     0.345459671291    -0.349596324019    14.003074004430
         C            1.952142814976    -0.306257328709    -0.127783324019    12.000000000000
         C           -1.787630185024     0.521101671291    -0.339402324019    12.000000000000
         C            2.308694814976    -0.310742328709     1.354497675981    12.000000000000
         C            3.007162814976     0.377289671291    -0.982800324019    12.000000000000
         C           -0.509256185024    -0.304006328709    -0.179282324019    12.000000000000
         C           -1.899152185024     1.593306671291     0.738169675981    12.000000000000
         H            1.818173814976    -1.339177328709    -0.460773324019     1.007825032230
         H            0.655873114976     1.307861671291    -0.706742324019     1.007825032230
         H           -1.768907185024     0.994142671291    -1.333748324019     1.007825032230
         H            2.408504814976     0.713994671291     1.726212675981     1.007825032230
         H            1.527580814976    -0.819156328709     1.924042675981     1.007825032230
         H            3.256017814976    -0.831625328709     1.523468675981     1.007825032230
         H            3.130387814976     1.423883671291    -0.681651324019     1.007825032230
         H            2.731519814976     0.348335671291    -2.039409324019     1.007825032230
         H            3.973821814976    -0.117899328709    -0.861501324019     1.007825032230
         H           -1.842133185024     1.125797671291     1.723947675981     1.007825032230
         H           -2.867133185024     2.089254671291     0.646154675981     1.007825032230
         H           -1.114122185024     2.351759671291     0.656220675981     1.007825032230
         H           -2.499087185024    -1.231240328709    -0.091956324019     1.007825032230

  Basis Set: AUG-CC-PVTZ
    Blend: AUG-CC-PVTZ
  Basis Set: (AUG-CC-PVTZ AUX)
    Blend: AUG-CC-PVTZ-JKFIT
	 Reference Energy          =    -439.1366872211691543 [Eh]
	 Singles Energy            =      -0.0000000000000000 [Eh]
	 Same-Spin Energy          =      -0.4461428249588556 [Eh]
	 Opposite-Spin Energy      =      -1.4639697504318523 [Eh]
	 Correlation Energy        =      -1.9101125753907078 [Eh]
	 Total Energy              =    -441.0467997965598670 [Eh]

	 ================> DF-SCS-MP2 Energies <==================
	-----------------------------------------------------------
	 SCS Same-Spin Scale       =       0.3333333333333333 [-]
	 SCS Opposite-Spin Scale   =       1.2000000000000000 [-]
	 SCS Same-Spin Energy      =      -0.1487142749862852 [Eh]
	 SCS Opposite-Spin Energy  =      -1.7567637005182226 [Eh]
	 SCS Correlation Energy    =      -1.9054779755045077 [Eh]
	 SCS Total Energy          =    -441.0421651966736363 [Eh]
	-----------------------------------------------------------

  Dipole Moment: [D]
     X:     3.6268      Y:     2.8774      Z:    -0.5300     Total:     4.6598

*** Psi4 exiting successfully. Buy a developer a beer!
