                               Psi4 1.4a2.dev612

  ==> Input File <==

--------------------------------------------------------------------------
#psi4
#
memory 32 gb

molecule  {
0 1
  O       -2.8968130    -0.3474360    -0.2563530
  O       -0.5825960    -1.5131530     0.0834280
  N        0.6646380     0.3451110    -0.3514860
  C        1.9521820    -0.3066060    -0.1296730
  C       -1.7875910     0.5207530    -0.3412920
  C        2.3087340    -0.3110910     1.3526080
  C        3.0072020     0.3769410    -0.9846900
  C       -0.5092170    -0.3043550    -0.1811720
  C       -1.8991130     1.5929580     0.7362800
  H        1.8182130    -1.3395260    -0.4626630
  H        0.6518313     1.3437906    -0.5119920
  H       -1.7688680     0.9937940    -1.3356380
  H        2.4085440     0.7136460     1.7243230
  H        1.5276200    -0.8195050     1.9221530
  H        3.2560570    -0.8319740     1.5215790
  H        3.1304270     1.4235350    -0.6835410
  H        2.7315590     0.3479870    -2.0412990
  H        3.9738610    -0.1182480    -0.8633910
  H       -1.8420940     1.1254490     1.7220580
  H       -2.8670940     2.0889060     0.6442650
  H       -1.1140830     2.3514110     0.6543310
  H       -2.4990480    -1.2315890    -0.0938460
units angstrom
no_reorient  #important for SAPT in psi4, default
symmetry c1  #important for SAPT in psi4, default
}

set PROPERTIES_ORIGIN ["COM"]
properties('MP2/aug-cc-pvtz', properties = ['dipole'])
--------------------------------------------------------------------------

    Molecular point group: c1
  Charge       = 0
  Multiplicity = 1
  Basis Set: AUG-CC-PVTZ
    Blend: AUG-CC-PVTZ
  Basis Set: (AUG-CC-PVTZ AUX)
    Blend: AUG-CC-PVTZ-JKFIT

    Orbital Energies [Eh]
    ---------------------

    Doubly Occupied:

       1A    -20.547736     2A    -20.532313     3A    -15.595588
       4A    -11.358245     5A    -11.297300     6A    -11.277301
       7A    -11.232680     8A    -11.230347     9A    -11.222050
      10A     -1.397112    11A     -1.345691    12A     -1.248093
      13A     -1.072245    14A     -1.023726    15A     -0.949995
      16A     -0.894839    17A     -0.822264    18A     -0.795594
      19A     -0.736335    20A     -0.679124    21A     -0.649223
      22A     -0.633769    23A     -0.628718    24A     -0.595881
      25A     -0.581486    26A     -0.567262    27A     -0.555308
      28A     -0.548033    29A     -0.539383    30A     -0.530134
      31A     -0.512341    32A     -0.502752    33A     -0.491443
      34A     -0.444816    35A     -0.434225    36A     -0.401258

  @DF-RHF Final Energy:  -439.13797557391774

   => Energetics <=

    Nuclear Repulsion Energy =            485.2964227023398394
    One-Electron Energy =               -1561.1195711860991651
    Two-Electron Energy =                 636.6851729098415262
    Total Energy =                       -439.1379755739177426
  Basis Set: (AUG-CC-PVTZ AUX)
    Blend: AUG-CC-PVTZ-RI
    Molecular point group: c1

    Geometry (in Angstrom), charge = 0, multiplicity = 1:

       Center              X                  Y                   Z               Mass
    ------------   -----------------  -----------------  -----------------  -----------------
         O           -2.896820811245    -0.347366222465    -0.255975046630    15.994914619570
         O           -0.582603811245    -1.513083222465     0.083805953370    15.994914619570
         N            0.664630188755     0.345180777535    -0.351108046630    14.003074004430
         C            1.952174188755    -0.306536222465    -0.129295046630    12.000000000000
         C           -1.787598811245     0.520822777535    -0.340914046630    12.000000000000
         C            2.308726188755    -0.311021222465     1.352985953370    12.000000000000
         C            3.007194188755     0.377010777535    -0.984312046630    12.000000000000
         C           -0.509224811245    -0.304285222465    -0.180794046630    12.000000000000
         C           -1.899120811245     1.593027777535     0.736657953370    12.000000000000
         H            1.818205188755    -1.339456222465    -0.462285046630     1.007825032230
         H            0.651823488755     1.343860377535    -0.511614046630     1.007825032230
         H           -1.768875811245     0.993863777535    -1.335260046630     1.007825032230
         H            2.408536188755     0.713715777535     1.724700953370     1.007825032230
         H            1.527612188755    -0.819435222465     1.922530953370     1.007825032230
         H            3.256049188755    -0.831904222465     1.521956953370     1.007825032230
         H            3.130419188755     1.423604777535    -0.683163046630     1.007825032230
         H            2.731551188755     0.348056777535    -2.040921046630     1.007825032230
         H            3.973853188755    -0.118178222465    -0.863013046630     1.007825032230
         H           -1.842101811245     1.125518777535     1.722435953370     1.007825032230
         H           -2.867101811245     2.088975777535     0.644642953370     1.007825032230
         H           -1.114090811245     2.351480777535     0.654708953370     1.007825032230
         H           -2.499055811245    -1.231519222465    -0.093468046630     1.007825032230

  Basis Set: AUG-CC-PVTZ
    Blend: AUG-CC-PVTZ
  Basis Set: (AUG-CC-PVTZ AUX)
    Blend: AUG-CC-PVTZ-JKFIT
	 Reference Energy          =    -439.1379755739177426 [Eh]
	 Singles Energy            =      -0.0000000000000000 [Eh]
	 Same-Spin Energy          =      -0.4460098470843694 [Eh]
	 Opposite-Spin Energy      =      -1.4636040888781046 [Eh]
	 Correlation Energy        =      -1.9096139359624740 [Eh]
	 Total Energy              =    -441.0475895098801971 [Eh]

	 ================> DF-SCS-MP2 Energies <==================
	-----------------------------------------------------------
	 SCS Same-Spin Scale       =       0.3333333333333333 [-]
	 SCS Opposite-Spin Scale   =       1.2000000000000000 [-]
	 SCS Same-Spin Energy      =      -0.1486699490281231 [Eh]
	 SCS Opposite-Spin Energy  =      -1.7563249066537254 [Eh]
	 SCS Correlation Energy    =      -1.9049948556818486 [Eh]
	 SCS Total Energy          =    -441.0429704295995634 [Eh]
	-----------------------------------------------------------

  Dipole Moment: [D]
     X:     3.5908      Y:     2.9155      Z:    -0.2875     Total:     4.6343

*** Psi4 exiting successfully. Buy a developer a beer!
