                               Psi4 1.4a2.dev612

  ==> Input File <==

--------------------------------------------------------------------------
#psi4
#
memory 32 gb

molecule  {
0 1
  O       -2.8968130    -0.3474360    -0.2563530
  O       -0.5825960    -1.5131530     0.0834280
  N        0.6646380     0.3451110    -0.3514860
  C        1.9521820    -0.3066060    -0.1296730
  C       -1.7875910     0.5207530    -0.3412920
  C        2.3087340    -0.3110910     1.3526080
  C        3.0072020     0.3769410    -0.9846900
  C       -0.5092170    -0.3043550    -0.1811720
  C       -1.8991130     1.5929580     0.7362800
  H        1.8182130    -1.3395260    -0.4626630
  H        0.6528515     1.3347212    -0.5611520
  H       -1.7688680     0.9937940    -1.3356380
  H        2.4085440     0.7136460     1.7243230
  H        1.5276200    -0.8195050     1.9221530
  H        3.2560570    -0.8319740     1.5215790
  H        3.1304270     1.4235350    -0.6835410
  H        2.7315590     0.3479870    -2.0412990
  H        3.9738610    -0.1182480    -0.8633910
  H       -1.8420940     1.1254490     1.7220580
  H       -2.8670940     2.0889060     0.6442650
  H       -1.1140830     2.3514110     0.6543310
  H       -2.4990480    -1.2315890    -0.0938460
units angstrom
no_reorient  #important for SAPT in psi4, default
symmetry c1  #important for SAPT in psi4, default
}

set PROPERTIES_ORIGIN ["COM"]
properties('MP2/aug-cc-pvtz', properties = ['dipole'])
--------------------------------------------------------------------------

    Molecular point group: c1
  Charge       = 0
  Multiplicity = 1
  Basis Set: AUG-CC-PVTZ
    Blend: AUG-CC-PVTZ
  Basis Set: (AUG-CC-PVTZ AUX)
    Blend: AUG-CC-PVTZ-JKFIT

    Orbital Energies [Eh]
    ---------------------

    Doubly Occupied:

       1A    -20.547675     2A    -20.532235     3A    -15.595624
       4A    -11.358220     5A    -11.297261     6A    -11.277339
       7A    -11.233009     8A    -11.229921     9A    -11.221861
      10A     -1.397039    11A     -1.345625    12A     -1.247974
      13A     -1.072198    14A     -1.023553    15A     -0.950119
      16A     -0.894665    17A     -0.822047    18A     -0.795654
      19A     -0.736212    20A     -0.679360    21A     -0.648909
      22A     -0.635065    23A     -0.628573    24A     -0.594606
      25A     -0.581346    26A     -0.566989    27A     -0.555493
      28A     -0.547915    29A     -0.539430    30A     -0.530114
      31A     -0.512205    32A     -0.502724    33A     -0.491357
      34A     -0.444716    35A     -0.434110    36A     -0.401116

  @DF-RHF Final Energy:  -439.13793130308096

   => Energetics <=

    Nuclear Repulsion Energy =            485.2751303535831653
    One-Electron Energy =               -1561.0816057443084901
    Two-Electron Energy =                 636.6685440876443636
    Total Energy =                       -439.1379313030810181
  Basis Set: (AUG-CC-PVTZ AUX)
    Blend: AUG-CC-PVTZ-RI
    Molecular point group: c1

    Geometry (in Angstrom), charge = 0, multiplicity = 1:

       Center              X                  Y                   Z               Mass
    ------------   -----------------  -----------------  -----------------  -----------------
         O           -2.896828654305    -0.347296499026    -0.255597115978    15.994914619570
         O           -0.582611654305    -1.513013499026     0.084183884022    15.994914619570
         N            0.664622345695     0.345250500974    -0.350730115978    14.003074004430
         C            1.952166345695    -0.306466499026    -0.128917115978    12.000000000000
         C           -1.787606654305     0.520892500974    -0.340536115978    12.000000000000
         C            2.308718345695    -0.310951499026     1.353363884022    12.000000000000
         C            3.007186345695     0.377080500974    -0.983934115978    12.000000000000
         C           -0.509232654305    -0.304215499026    -0.180416115978    12.000000000000
         C           -1.899128654305     1.593097500974     0.737035884022    12.000000000000
         H            1.818197345695    -1.339386499026    -0.461907115978     1.007825032230
         H            0.652835845695     1.334860700974    -0.560396115978     1.007825032230
         H           -1.768883654305     0.993933500974    -1.334882115978     1.007825032230
         H            2.408528345695     0.713785500974     1.725078884022     1.007825032230
         H            1.527604345695    -0.819365499026     1.922908884022     1.007825032230
         H            3.256041345695    -0.831834499026     1.522334884022     1.007825032230
         H            3.130411345695     1.423674500974    -0.682785115978     1.007825032230
         H            2.731543345695     0.348126500974    -2.040543115978     1.007825032230
         H            3.973845345695    -0.118108499026    -0.862635115978     1.007825032230
         H           -1.842109654305     1.125588500974     1.722813884022     1.007825032230
         H           -2.867109654305     2.089045500974     0.645020884022     1.007825032230
         H           -1.114098654305     2.351550500974     0.655086884022     1.007825032230
         H           -2.499063654305    -1.231449499026    -0.093090115978     1.007825032230

  Basis Set: AUG-CC-PVTZ
    Blend: AUG-CC-PVTZ
  Basis Set: (AUG-CC-PVTZ AUX)
    Blend: AUG-CC-PVTZ-JKFIT
	 Reference Energy          =    -439.1379313030809612 [Eh]
	 Singles Energy            =      -0.0000000000000000 [Eh]
	 Same-Spin Energy          =      -0.4460131018914804 [Eh]
	 Opposite-Spin Energy      =      -1.4636190073240751 [Eh]
	 Correlation Energy        =      -1.9096321092155555 [Eh]
	 Total Energy              =    -441.0475634122965403 [Eh]

	 ================> DF-SCS-MP2 Energies <==================
	-----------------------------------------------------------
	 SCS Same-Spin Scale       =       0.3333333333333333 [-]
	 SCS Opposite-Spin Scale   =       1.2000000000000000 [-]
	 SCS Same-Spin Energy      =      -0.1486710339638268 [Eh]
	 SCS Opposite-Spin Energy  =      -1.7563428087888902 [Eh]
	 SCS Correlation Energy    =      -1.9050138427527170 [Eh]
	 SCS Total Energy          =    -441.0429451458336985 [Eh]
	-----------------------------------------------------------

  Dipole Moment: [D]
     X:     3.6028      Y:     2.9110      Z:    -0.3496     Total:     4.6450

*** Psi4 exiting successfully. Buy a developer a beer!
