                               Psi4 1.4a2.dev612

  ==> Input File <==

--------------------------------------------------------------------------
#psi4
#
memory 32 gb

molecule  {
0 1
  O       -2.8968130    -0.3474360    -0.2563530
  O       -0.5825960    -1.5131530     0.0834280
  N        0.6646380     0.3451110    -0.3514860
  C        1.9521820    -0.3066060    -0.1296730
  C       -1.7836933     0.5638375    -0.1460267
  C        2.3087340    -0.3110910     1.3526080
  C        3.0072020     0.3769410    -0.9846900
  C       -0.5092170    -0.3043550    -0.1811720
  C       -1.8991130     1.5929580     0.7362800
  H        1.8182130    -1.3395260    -0.4626630
  H        0.6508110     1.3528600    -0.4628320
  H       -1.7688680     0.9937940    -1.3356380
  H        2.4085440     0.7136460     1.7243230
  H        1.5276200    -0.8195050     1.9221530
  H        3.2560570    -0.8319740     1.5215790
  H        3.1304270     1.4235350    -0.6835410
  H        2.7315590     0.3479870    -2.0412990
  H        3.9738610    -0.1182480    -0.8633910
  H       -1.8420940     1.1254490     1.7220580
  H       -2.8670940     2.0889060     0.6442650
  H       -1.1140830     2.3514110     0.6543310
  H       -2.4990480    -1.2315890    -0.0938460
units angstrom
no_reorient  #important for SAPT in psi4, default
symmetry c1  #important for SAPT in psi4, default
}

set PROPERTIES_ORIGIN ["COM"]
properties('MP2/aug-cc-pvtz', properties = ['dipole'])
--------------------------------------------------------------------------

    Molecular point group: c1
  Charge       = 0
  Multiplicity = 1
  Basis Set: AUG-CC-PVTZ
    Blend: AUG-CC-PVTZ
  Basis Set: (AUG-CC-PVTZ AUX)
    Blend: AUG-CC-PVTZ-JKFIT

    Orbital Energies [Eh]
    ---------------------

    Doubly Occupied:

       1A    -20.548136     2A    -20.533293     3A    -15.595639
       4A    -11.362019     5A    -11.306808     6A    -11.277577
       7A    -11.232112     8A    -11.227979     9A    -11.223084
      10A     -1.396086    11A     -1.338917    12A     -1.248361
      13A     -1.088228    14A     -1.051768    15A     -0.950199
      16A     -0.892470    17A     -0.817041    18A     -0.790754
      19A     -0.731954    20A     -0.676757    21A     -0.654491
      22A     -0.637117    23A     -0.629228    24A     -0.600307
      25A     -0.598971    26A     -0.578022    27A     -0.556199
      28A     -0.551492    29A     -0.539446    30A     -0.518256
      31A     -0.509147    32A     -0.500516    33A     -0.492661
      34A     -0.444988    35A     -0.418815    36A     -0.396840

  @DF-RHF Final Energy:  -439.09400505717826

   => Energetics <=

    Nuclear Repulsion Energy =            486.2267125149305116
    One-Electron Energy =               -1562.8100750146227256
    Two-Electron Energy =                 637.4893574425138922
    Total Energy =                       -439.0940050571782649
  Basis Set: (AUG-CC-PVTZ AUX)
    Blend: AUG-CC-PVTZ-RI
    Molecular point group: c1

    Geometry (in Angstrom), charge = 0, multiplicity = 1:

       Center              X                  Y                   Z               Mass
    ------------   -----------------  -----------------  -----------------  -----------------
         O           -2.897169750912    -0.351379768815    -0.274226963608    15.994914619570
         O           -0.582952750912    -1.517096768815     0.065554036392    15.994914619570
         N            0.664281249088     0.341167231185    -0.369359963608    14.003074004430
         C            1.951825249088    -0.310549768815    -0.147546963608    12.000000000000
         C           -1.784050050912     0.559893731185    -0.163900663608    12.000000000000
         C            2.308377249088    -0.315034768815     1.334734036392    12.000000000000
         C            3.006845249088     0.372997231185    -1.002563963608    12.000000000000
         C           -0.509573750912    -0.308298768815    -0.199045963608    12.000000000000
         C           -1.899469750912     1.589014231185     0.718406036392    12.000000000000
         H            1.817856249088    -1.343469768815    -0.480536963608     1.007825032230
         H            0.650454249088     1.348916231185    -0.480705963608     1.007825032230
         H           -1.769224750912     0.989850231185    -1.353511963608     1.007825032230
         H            2.408187249088     0.709702231185     1.706449036392     1.007825032230
         H            1.527263249088    -0.823448768815     1.904279036392     1.007825032230
         H            3.255700249088    -0.835917768815     1.503705036392     1.007825032230
         H            3.130070249088     1.419591231185    -0.701414963608     1.007825032230
         H            2.731202249088     0.344043231185    -2.059172963608     1.007825032230
         H            3.973504249088    -0.122191768815    -0.881264963608     1.007825032230
         H           -1.842450750912     1.121505231185     1.704184036392     1.007825032230
         H           -2.867450750912     2.084962231185     0.626391036392     1.007825032230
         H           -1.114439750912     2.347467231185     0.636457036392     1.007825032230
         H           -2.499404750912    -1.235532768815    -0.111719963608     1.007825032230

  Basis Set: AUG-CC-PVTZ
    Blend: AUG-CC-PVTZ
  Basis Set: (AUG-CC-PVTZ AUX)
    Blend: AUG-CC-PVTZ-JKFIT
	 Reference Energy          =    -439.0940050571782649 [Eh]
	 Singles Energy            =      -0.0000000000000000 [Eh]
	 Same-Spin Energy          =      -0.4482682713230679 [Eh]
	 Opposite-Spin Energy      =      -1.4675425406626350 [Eh]
	 Correlation Energy        =      -1.9158108119857029 [Eh]
	 Total Energy              =    -441.0098158691639583 [Eh]

	 ================> DF-SCS-MP2 Energies <==================
	-----------------------------------------------------------
	 SCS Same-Spin Scale       =       0.3333333333333333 [-]
	 SCS Opposite-Spin Scale   =       1.2000000000000000 [-]
	 SCS Same-Spin Energy      =      -0.1494227571076893 [Eh]
	 SCS Opposite-Spin Energy  =      -1.7610510487951621 [Eh]
	 SCS Correlation Energy    =      -1.9104738059028514 [Eh]
	 SCS Total Energy          =    -441.0044788630810899 [Eh]
	-----------------------------------------------------------

  Dipole Moment: [D]
     X:     3.6117      Y:     3.0346      Z:     0.1639     Total:     4.7202

*** Psi4 exiting successfully. Buy a developer a beer!
