                               Psi4 1.4a2.dev612

  ==> Input File <==

--------------------------------------------------------------------------
#psi4
#
memory 32 gb

molecule  {
0 1
  O       -2.8968130    -0.3474360    -0.2563530
  O       -0.5825960    -1.5131530     0.0834280
  N        0.6646380     0.3451110    -0.3514860
  C        1.9521820    -0.3066060    -0.1296730
  C       -1.7827189     0.5746086    -0.0972104
  C        2.3087340    -0.3110910     1.3526080
  C        3.0072020     0.3769410    -0.9846900
  C       -0.5092170    -0.3043550    -0.1811720
  C       -1.8991130     1.5929580     0.7362800
  H        1.8182130    -1.3395260    -0.4626630
  H        0.6508110     1.3528600    -0.4628320
  H       -1.7688680     0.9937940    -1.3356380
  H        2.4085440     0.7136460     1.7243230
  H        1.5276200    -0.8195050     1.9221530
  H        3.2560570    -0.8319740     1.5215790
  H        3.1304270     1.4235350    -0.6835410
  H        2.7315590     0.3479870    -2.0412990
  H        3.9738610    -0.1182480    -0.8633910
  H       -1.8420940     1.1254490     1.7220580
  H       -2.8670940     2.0889060     0.6442650
  H       -1.1140830     2.3514110     0.6543310
  H       -2.4990480    -1.2315890    -0.0938460
units angstrom
no_reorient  #important for SAPT in psi4, default
symmetry c1  #important for SAPT in psi4, default
}

set PROPERTIES_ORIGIN ["COM"]
properties('MP2/aug-cc-pvtz', properties = ['dipole'])
--------------------------------------------------------------------------

    Molecular point group: c1
  Charge       = 0
  Multiplicity = 1
  Basis Set: AUG-CC-PVTZ
    Blend: AUG-CC-PVTZ
  Basis Set: (AUG-CC-PVTZ AUX)
    Blend: AUG-CC-PVTZ-JKFIT

    Orbital Energies [Eh]
    ---------------------

    Doubly Occupied:

       1A    -20.548589     2A    -20.533557     3A    -15.595487
       4A    -11.363862     5A    -11.310236     6A    -11.277643
       7A    -11.232019     8A    -11.227581     9A    -11.223283
      10A     -1.395723    11A     -1.336479    12A     -1.248414
      13A     -1.098358    14A     -1.055755    15A     -0.950262
      16A     -0.891388    17A     -0.816021    18A     -0.789717
      19A     -0.731135    20A     -0.677164    21A     -0.659373
      22A     -0.638161    23A     -0.629326    24A     -0.604930
      25A     -0.599888    26A     -0.580890    27A     -0.556695
      28A     -0.551663    29A     -0.539941    30A     -0.515755
      31A     -0.508504    32A     -0.498965    33A     -0.492736
      34A     -0.443700    35A     -0.413619    36A     -0.392097

  @DF-RHF Final Energy:  -439.06938070348190

   => Energetics <=

    Nuclear Repulsion Energy =            486.4061604835821981
    One-Electron Energy =               -1563.0932476632976886
    Two-Electron Energy =                 637.6177064762335931
    Total Energy =                       -439.0693807034818974
  Basis Set: (AUG-CC-PVTZ AUX)
    Blend: AUG-CC-PVTZ-RI
    Molecular point group: c1

    Geometry (in Angstrom), charge = 0, multiplicity = 1:

       Center              X                  Y                   Z               Mass
    ------------   -----------------  -----------------  -----------------  -----------------
         O           -2.897258944498    -0.352365722254    -0.278695457901    15.994914619570
         O           -0.583041944498    -1.518082722254     0.061085542099    15.994914619570
         N            0.664192055502     0.340181277746    -0.373828457901    14.003074004430
         C            1.951736055502    -0.311535722254    -0.152015457901    12.000000000000
         C           -1.783164844498     0.569678877746    -0.119552857901    12.000000000000
         C            2.308288055502    -0.316020722254     1.330265542099    12.000000000000
         C            3.006756055502     0.372011277746    -1.007032457901    12.000000000000
         C           -0.509662944498    -0.309284722254    -0.203514457901    12.000000000000
         C           -1.899558944498     1.588028277746     0.713937542099    12.000000000000
         H            1.817767055502    -1.344455722254    -0.485005457901     1.007825032230
         H            0.650365055502     1.347930277746    -0.485174457901     1.007825032230
         H           -1.769313944498     0.988864277746    -1.357980457901     1.007825032230
         H            2.408098055502     0.708716277746     1.701980542099     1.007825032230
         H            1.527174055502    -0.824434722254     1.899810542099     1.007825032230
         H            3.255611055502    -0.836903722254     1.499236542099     1.007825032230
         H            3.129981055502     1.418605277746    -0.705883457901     1.007825032230
         H            2.731113055502     0.343057277746    -2.063641457901     1.007825032230
         H            3.973415055502    -0.123177722254    -0.885733457901     1.007825032230
         H           -1.842539944498     1.120519277746     1.699715542099     1.007825032230
         H           -2.867539944498     2.083976277746     0.621922542099     1.007825032230
         H           -1.114528944498     2.346481277746     0.631988542099     1.007825032230
         H           -2.499493944498    -1.236518722254    -0.116188457901     1.007825032230

  Basis Set: AUG-CC-PVTZ
    Blend: AUG-CC-PVTZ
  Basis Set: (AUG-CC-PVTZ AUX)
    Blend: AUG-CC-PVTZ-JKFIT
	 Reference Energy          =    -439.0693807034818974 [Eh]
	 Singles Energy            =      -0.0000000000000000 [Eh]
	 Same-Spin Energy          =      -0.4492424241617485 [Eh]
	 Opposite-Spin Energy      =      -1.4693386415511775 [Eh]
	 Correlation Energy        =      -1.9185810657129261 [Eh]
	 Total Energy              =    -440.9879617691948397 [Eh]

	 ================> DF-SCS-MP2 Energies <==================
	-----------------------------------------------------------
	 SCS Same-Spin Scale       =       0.3333333333333333 [-]
	 SCS Opposite-Spin Scale   =       1.2000000000000000 [-]
	 SCS Same-Spin Energy      =      -0.1497474747205828 [Eh]
	 SCS Opposite-Spin Energy  =      -1.7632063698614131 [Eh]
	 SCS Correlation Energy    =      -1.9129538445819960 [Eh]
	 SCS Total Energy          =    -440.9823345480638750 [Eh]
	-----------------------------------------------------------

  Dipole Moment: [D]
     X:     3.6134      Y:     3.0671      Z:     0.2843     Total:     4.7481

*** Psi4 exiting successfully. Buy a developer a beer!
