                               Psi4 1.4a2.dev612

  ==> Input File <==

--------------------------------------------------------------------------
#psi4
#
memory 32 gb

molecule  {
0 1
  O       -2.8968130    -0.3474360    -0.2563530
  O       -0.5825960    -1.5131530     0.0834280
  N        0.6646380     0.3451110    -0.3514860
  C        1.9521820    -0.3066060    -0.1296730
  C       -1.7875910     0.5207530    -0.3412920
  C        2.3087340    -0.3110910     1.3526080
  C        3.0072020     0.3769410    -0.9846900
  C       -0.5092170    -0.3043550    -0.1811720
  C       -1.8991130     1.5929580     0.7362800
  H        1.8182130    -1.3395260    -0.4626630
  H        0.6538718     1.3256518    -0.6103120
  H       -1.7688680     0.9937940    -1.3356380
  H        2.4085440     0.7136460     1.7243230
  H        1.5276200    -0.8195050     1.9221530
  H        3.2560570    -0.8319740     1.5215790
  H        3.1304270     1.4235350    -0.6835410
  H        2.7315590     0.3479870    -2.0412990
  H        3.9738610    -0.1182480    -0.8633910
  H       -1.8420940     1.1254490     1.7220580
  H       -2.8670940     2.0889060     0.6442650
  H       -1.1140830     2.3514110     0.6543310
  H       -2.4990480    -1.2315890    -0.0938460
units angstrom
no_reorient  #important for SAPT in psi4, default
symmetry c1  #important for SAPT in psi4, default
}

set PROPERTIES_ORIGIN ["COM"]
properties('MP2/aug-cc-pvtz', properties = ['dipole'])
--------------------------------------------------------------------------

    Molecular point group: c1
  Charge       = 0
  Multiplicity = 1
  Basis Set: AUG-CC-PVTZ
    Blend: AUG-CC-PVTZ
  Basis Set: (AUG-CC-PVTZ AUX)
    Blend: AUG-CC-PVTZ-JKFIT

    Orbital Energies [Eh]
    ---------------------

    Doubly Occupied:

       1A    -20.547621     2A    -20.532248     3A    -15.595827
       4A    -11.358210     5A    -11.297225     6A    -11.277342
       7A    -11.233309     8A    -11.229492     9A    -11.221684
      10A     -1.397000    11A     -1.345574    12A     -1.247624
      13A     -1.072111    14A     -1.023346    15A     -0.950229
      16A     -0.894473    17A     -0.821733    18A     -0.795136
      19A     -0.736084    20A     -0.679587    21A     -0.648549
      22A     -0.636271    23A     -0.628399    24A     -0.593271
      25A     -0.581191    26A     -0.566721    27A     -0.555664
      28A     -0.547780    29A     -0.539486    30A     -0.530077
      31A     -0.512028    32A     -0.502692    33A     -0.491252
      34A     -0.444619    35A     -0.434036    36A     -0.401015

  @DF-RHF Final Energy:  -439.13772325703758

   => Energetics <=

    Nuclear Repulsion Energy =            485.2414876796610770
    One-Electron Energy =               -1561.0206066187543001
    Two-Electron Energy =                 636.6413956820556450
    Total Energy =                       -439.1377232570375782
  Basis Set: (AUG-CC-PVTZ AUX)
    Blend: AUG-CC-PVTZ-RI
    Molecular point group: c1

    Geometry (in Angstrom), charge = 0, multiplicity = 1:

       Center              X                  Y                   Z               Mass
    ------------   -----------------  -----------------  -----------------  -----------------
         O           -2.896836498135    -0.347226775587    -0.255219185325    15.994914619570
         O           -0.582619498135    -1.512943775587     0.084561814675    15.994914619570
         N            0.664614501865     0.345320224413    -0.350352185325    14.003074004430
         C            1.952158501865    -0.306396775587    -0.128539185325    12.000000000000
         C           -1.787614498135     0.520962224413    -0.340158185325    12.000000000000
         C            2.308710501865    -0.310881775587     1.353741814675    12.000000000000
         C            3.007178501865     0.377150224413    -0.983556185325    12.000000000000
         C           -0.509240498135    -0.304145775587    -0.180038185325    12.000000000000
         C           -1.899136498135     1.593167224413     0.737413814675    12.000000000000
         H            1.818189501865    -1.339316775587    -0.461529185325     1.007825032230
         H            0.653848301865     1.325861024413    -0.609178185325     1.007825032230
         H           -1.768891498135     0.994003224413    -1.334504185325     1.007825032230
         H            2.408520501865     0.713855224413     1.725456814675     1.007825032230
         H            1.527596501865    -0.819295775587     1.923286814675     1.007825032230
         H            3.256033501865    -0.831764775587     1.522712814675     1.007825032230
         H            3.130403501865     1.423744224413    -0.682407185325     1.007825032230
         H            2.731535501865     0.348196224413    -2.040165185325     1.007825032230
         H            3.973837501865    -0.118038775587    -0.862257185325     1.007825032230
         H           -1.842117498135     1.125658224413     1.723191814675     1.007825032230
         H           -2.867117498135     2.089115224413     0.645398814675     1.007825032230
         H           -1.114106498135     2.351620224413     0.655464814675     1.007825032230
         H           -2.499071498135    -1.231379775587    -0.092712185325     1.007825032230

  Basis Set: AUG-CC-PVTZ
    Blend: AUG-CC-PVTZ
  Basis Set: (AUG-CC-PVTZ AUX)
    Blend: AUG-CC-PVTZ-JKFIT
	 Reference Energy          =    -439.1377232570375782 [Eh]
	 Singles Energy            =      -0.0000000000000000 [Eh]
	 Same-Spin Energy          =      -0.4460366606813525 [Eh]
	 Opposite-Spin Energy      =      -1.4636859261688038 [Eh]
	 Correlation Energy        =      -1.9097225868501564 [Eh]
	 Total Energy              =    -441.0474458438877150 [Eh]

	 ================> DF-SCS-MP2 Energies <==================
	-----------------------------------------------------------
	 SCS Same-Spin Scale       =       0.3333333333333333 [-]
	 SCS Opposite-Spin Scale   =       1.2000000000000000 [-]
	 SCS Same-Spin Energy      =      -0.1486788868937842 [Eh]
	 SCS Opposite-Spin Energy  =      -1.7564231114025646 [Eh]
	 SCS Correlation Energy    =      -1.9051019982963489 [Eh]
	 SCS Total Energy          =    -441.0428252553339235 [Eh]
	-----------------------------------------------------------

  Dipole Moment: [D]
     X:     3.6128      Y:     2.9031      Z:    -0.4109     Total:     4.6528

*** Psi4 exiting successfully. Buy a developer a beer!
