                               Psi4 1.4a2.dev612

  ==> Input File <==

--------------------------------------------------------------------------
#psi4
#
memory 32 gb

molecule  {
0 1
  O       -2.8968130    -0.3474360    -0.2563530
  O       -0.5825960    -1.5131530     0.0834280
  N        0.6646380     0.3451110    -0.3514860
  C        1.9521820    -0.3066060    -0.1296730
  C       -1.7866166     0.5315241    -0.2924757
  C        2.3087340    -0.3110910     1.3526080
  C        3.0072020     0.3769410    -0.9846900
  C       -0.5092170    -0.3043550    -0.1811720
  C       -1.8991130     1.5929580     0.7362800
  H        1.8182130    -1.3395260    -0.4626630
  H        0.6508110     1.3528600    -0.4628320
  H       -1.7688680     0.9937940    -1.3356380
  H        2.4085440     0.7136460     1.7243230
  H        1.5276200    -0.8195050     1.9221530
  H        3.2560570    -0.8319740     1.5215790
  H        3.1304270     1.4235350    -0.6835410
  H        2.7315590     0.3479870    -2.0412990
  H        3.9738610    -0.1182480    -0.8633910
  H       -1.8420940     1.1254490     1.7220580
  H       -2.8670940     2.0889060     0.6442650
  H       -1.1140830     2.3514110     0.6543310
  H       -2.4990480    -1.2315890    -0.0938460
units angstrom
no_reorient  #important for SAPT in psi4, default
symmetry c1  #important for SAPT in psi4, default
}

set PROPERTIES_ORIGIN ["COM"]
properties('MP2/aug-cc-pvtz', properties = ['dipole'])
--------------------------------------------------------------------------

    Molecular point group: c1
  Charge       = 0
  Multiplicity = 1
  Basis Set: AUG-CC-PVTZ
    Blend: AUG-CC-PVTZ
  Basis Set: (AUG-CC-PVTZ AUX)
    Blend: AUG-CC-PVTZ-JKFIT

    Orbital Energies [Eh]
    ---------------------

    Doubly Occupied:

       1A    -20.547617     2A    -20.532646     3A    -15.595780
       4A    -11.358651     5A    -11.299005     6A    -11.277329
       7A    -11.232294     8A    -11.230004     9A    -11.222467
      10A     -1.397024    11A     -1.344527    12A     -1.248103
      13A     -1.073982    14A     -1.031193    15A     -0.949959
      16A     -0.894574    17A     -0.820761    18A     -0.793891
      19A     -0.735283    20A     -0.677822    21A     -0.648421
      22A     -0.634147    23A     -0.628859    24A     -0.597451
      25A     -0.585402    26A     -0.570035    27A     -0.555202
      28A     -0.549290    29A     -0.538724    30A     -0.527120
      31A     -0.511907    32A     -0.502763    33A     -0.491933
      34A     -0.446060    35A     -0.432737    36A     -0.401116

  @DF-RHF Final Energy:  -439.13474516685540

   => Energetics <=

    Nuclear Repulsion Energy =            485.5698460228009594
    One-Electron Energy =               -1561.6410254847205579
    Two-Electron Energy =                 636.9364342950642595
    Total Energy =                       -439.1347451668553958
  Basis Set: (AUG-CC-PVTZ AUX)
    Blend: AUG-CC-PVTZ-RI
    Molecular point group: c1

    Geometry (in Angstrom), charge = 0, multiplicity = 1:

       Center              X                  Y                   Z               Mass
    ------------   -----------------  -----------------  -----------------  -----------------
         O           -2.896902161001    -0.348421899343    -0.260821471576    15.994914619570
         O           -0.582685161001    -1.514138899343     0.078959528424    15.994914619570
         N            0.664548838999     0.344125100657    -0.355954471576    14.003074004430
         C            1.952092838999    -0.307591899343    -0.134141471576    12.000000000000
         C           -1.786705761001     0.530538200657    -0.296944171576    12.000000000000
         C            2.308644838999    -0.312076899343     1.348139528424    12.000000000000
         C            3.007112838999     0.375955100657    -0.989158471576    12.000000000000
         C           -0.509306161001    -0.305340899343    -0.185640471576    12.000000000000
         C           -1.899202161001     1.591972100657     0.731811528424    12.000000000000
         H            1.818123838999    -1.340511899343    -0.467131471576     1.007825032230
         H            0.650721838999     1.351874100657    -0.467300471576     1.007825032230
         H           -1.768957161001     0.992808100657    -1.340106471576     1.007825032230
         H            2.408454838999     0.712660100657     1.719854528424     1.007825032230
         H            1.527530838999    -0.820490899343     1.917684528424     1.007825032230
         H            3.255967838999    -0.832959899343     1.517110528424     1.007825032230
         H            3.130337838999     1.422549100657    -0.688009471576     1.007825032230
         H            2.731469838999     0.347001100657    -2.045767471576     1.007825032230
         H            3.973771838999    -0.119233899343    -0.867859471576     1.007825032230
         H           -1.842183161001     1.124463100657     1.717589528424     1.007825032230
         H           -2.867183161001     2.087920100657     0.639796528424     1.007825032230
         H           -1.114172161001     2.350425100657     0.649862528424     1.007825032230
         H           -2.499137161001    -1.232574899343    -0.098314471576     1.007825032230

  Basis Set: AUG-CC-PVTZ
    Blend: AUG-CC-PVTZ
  Basis Set: (AUG-CC-PVTZ AUX)
    Blend: AUG-CC-PVTZ-JKFIT
	 Reference Energy          =    -439.1347451668553958 [Eh]
	 Singles Energy            =      -0.0000000000000000 [Eh]
	 Same-Spin Energy          =      -0.4463519889795535 [Eh]
	 Opposite-Spin Energy      =      -1.4641182568280375 [Eh]
	 Correlation Energy        =      -1.9104702458075911 [Eh]
	 Total Energy              =    -441.0452154126629694 [Eh]

	 ================> DF-SCS-MP2 Energies <==================
	-----------------------------------------------------------
	 SCS Same-Spin Scale       =       0.3333333333333333 [-]
	 SCS Opposite-Spin Scale   =       1.2000000000000000 [-]
	 SCS Same-Spin Energy      =      -0.1487839963265178 [Eh]
	 SCS Opposite-Spin Energy  =      -1.7569419081936450 [Eh]
	 SCS Correlation Energy    =      -1.9057259045201629 [Eh]
	 SCS Total Energy          =    -441.0404710713755776 [Eh]
	-----------------------------------------------------------

  Dipole Moment: [D]
     X:     3.5900      Y:     2.9461      Z:    -0.1386     Total:     4.6461

*** Psi4 exiting successfully. Buy a developer a beer!
