                               Psi4 1.4a3.dev225

  ==> Input File <==

--------------------------------------------------------------------------
#psi4
#
memory 32 gb

molecule  {
0 1
  N       -1.3887980     0.0000000    -0.3392240
  N        1.3887980     0.0000000     0.3392250
  C        0.7344320    -1.1908000    -0.1932070
  C       -0.8311415    -1.1907989     0.2186484
  C        0.7344330     1.1908010    -0.1932060
  C       -0.7344330     1.1908010     0.1932070
  C       -2.8075490    -0.0000010    -0.0148730
  C        2.8075480    -0.0000010     0.0148720
  H        0.8178840    -1.2446340    -1.2957380
  H        1.2273880    -2.0759070     0.2263630
  H        1.2273890     2.0759080     0.2263640
  H        0.8178840     1.2446360    -1.2957370
  H       -1.2273880    -2.0759070    -0.2263610
  H       -0.8178840    -1.2446340     1.2957380
  H       -0.8178830     1.2446350     1.2957380
  H       -1.2273890     2.0759080    -0.2263620
  H       -3.2785690     0.8871010    -0.4480200
  H       -2.9984770    -0.0000010     1.0736860
  H       -3.2785690    -0.8871030    -0.4480190
  H        2.9984750    -0.0000010    -1.0736880
  H        3.2785690    -0.8871030     0.4480170
  H        3.2785700     0.8871010     0.4480170
units angstrom
no_reorient  #important for SAPT in psi4, default
symmetry c1  #important for SAPT in psi4, default
}

set PROPERTIES_ORIGIN ["COM"]
properties('MP2/aug-cc-pvtz', properties = ['dipole'])
--------------------------------------------------------------------------

    Molecular point group: c1
  Charge       = 0
  Multiplicity = 1
  Basis Set: AUG-CC-PVTZ
    Blend: AUG-CC-PVTZ
  Basis Set: (AUG-CC-PVTZ AUX)
    Blend: AUG-CC-PVTZ-JKFIT

    Orbital Energies [Eh]
    ---------------------

    Doubly Occupied:

       1A    -15.546236     2A    -15.544258     3A    -11.244787
       4A    -11.243638     5A    -11.242515     6A    -11.240780
       7A    -11.239520     8A    -11.239299     9A     -1.255852
      10A     -1.206743    11A     -1.017093    12A     -0.981334
      13A     -0.907160    14A     -0.867086    15A     -0.830879
      16A     -0.758983    17A     -0.661690    18A     -0.636596
      19A     -0.632095    20A     -0.622747    21A     -0.619831
      22A     -0.579449    23A     -0.547827    24A     -0.543252
      25A     -0.537890    26A     -0.519549    27A     -0.499771
      28A     -0.483039    29A     -0.468676    30A     -0.436428
      31A     -0.362789    32A     -0.355389

  @DF-RHF Final Energy:  -344.34267415287576

   => Energetics <=

    Nuclear Repulsion Energy =            419.7363380726133641
    One-Electron Energy =               -1298.4116577733966551
    Two-Electron Energy =                 534.3326455479076458
    Total Energy =                       -344.3426741528757020
  Basis Set: (AUG-CC-PVTZ AUX)
    Blend: AUG-CC-PVTZ-RI
    Molecular point group: c1

    Geometry (in Angstrom), charge = 0, multiplicity = 1:

       Center              X                  Y                   Z               Mass
    ------------   -----------------  -----------------  -----------------  -----------------
         N           -1.378628268616    -0.000000106840    -0.341899431965    14.003074004430
         N            1.398967731384    -0.000000106840     0.336549568035    14.003074004430
         C            0.744601731384    -1.190800106840    -0.195882431965    12.000000000000
         C           -0.820971768616    -1.190799006840     0.215972968035    12.000000000000
         C            0.744602731384     1.190800893160    -0.195881431965    12.000000000000
         C           -0.724263268616     1.190800893160     0.190531568035    12.000000000000
         C           -2.797379268616    -0.000001106840    -0.017548431965    12.000000000000
         C            2.817717731384    -0.000001106840     0.012196568035    12.000000000000
         H            0.828053731384    -1.244634106840    -1.298413431965     1.007825032230
         H            1.237557731384    -2.075907106840     0.223687568035     1.007825032230
         H            1.237558731384     2.075907893160     0.223688568035     1.007825032230
         H            0.828053731384     1.244635893160    -1.298412431965     1.007825032230
         H           -1.217218268616    -2.075907106840    -0.229036431965     1.007825032230
         H           -0.807714268616    -1.244634106840     1.293062568035     1.007825032230
         H           -0.807713268616     1.244634893160     1.293062568035     1.007825032230
         H           -1.217219268616     2.075907893160    -0.229037431965     1.007825032230
         H           -3.268399268616     0.887100893160    -0.450695431965     1.007825032230
         H           -2.988307268616    -0.000001106840     1.071010568035     1.007825032230
         H           -3.268399268616    -0.887103106840    -0.450694431965     1.007825032230
         H            3.008644731384    -0.000001106840    -1.076363431965     1.007825032230
         H            3.288738731384    -0.887103106840     0.445341568035     1.007825032230
         H            3.288739731384     0.887100893160     0.445341568035     1.007825032230

  Basis Set: AUG-CC-PVTZ
    Blend: AUG-CC-PVTZ
  Basis Set: (AUG-CC-PVTZ AUX)
    Blend: AUG-CC-PVTZ-JKFIT
	 Reference Energy          =    -344.3426741528757589 [Eh]
	 Singles Energy            =      -0.0000000000000000 [Eh]
	 Same-Spin Energy          =      -0.3690302531744984 [Eh]
	 Opposite-Spin Energy      =      -1.2709140402099983 [Eh]
	 Correlation Energy        =      -1.6399442933844968 [Eh]
	 Total Energy              =    -345.9826184462602328 [Eh]

	 ================> DF-SCS-MP2 Energies <==================
	-----------------------------------------------------------
	 SCS Same-Spin Scale       =       0.3333333333333333 [-]
	 SCS Opposite-Spin Scale   =       1.2000000000000000 [-]
	 SCS Same-Spin Energy      =      -0.1230100843914995 [Eh]
	 SCS Opposite-Spin Energy  =      -1.5250968482519980 [Eh]
	 SCS Correlation Energy    =      -1.6481069326434974 [Eh]
	 SCS Total Energy          =    -345.9907810855192452 [Eh]
	-----------------------------------------------------------

  Dipole Moment: [D]
     X:    -0.0709      Y:     0.0537      Z:     0.0305     Total:     0.0940

*** Psi4 exiting successfully. Buy a developer a beer!
