                               Psi4 1.4a3.dev225

  ==> Input File <==

--------------------------------------------------------------------------
#psi4
#
memory 32 gb

molecule  {
0 1
  N       -1.3887980     0.0000000    -0.3392240
  N        1.3887980     0.0000000     0.3392250
  C        0.7344320    -1.1908000    -0.1932070
  C       -0.7376785    -1.1680704     0.1799568
  C        0.7344330     1.1908010    -0.1932060
  C       -0.7344330     1.1908010     0.1932070
  C       -2.8075490    -0.0000010    -0.0148730
  C        2.8075480    -0.0000010     0.0148720
  H        0.8178840    -1.2446340    -1.2957380
  H        1.2273880    -2.0759070     0.2263630
  H        1.2273890     2.0759080     0.2263640
  H        0.8178840     1.2446360    -1.2957370
  H       -1.2273880    -2.0759070    -0.2263610
  H       -0.8178840    -1.2446340     1.2957380
  H       -0.8178830     1.2446350     1.2957380
  H       -1.2273890     2.0759080    -0.2263620
  H       -3.2785690     0.8871010    -0.4480200
  H       -2.9984770    -0.0000010     1.0736860
  H       -3.2785690    -0.8871030    -0.4480190
  H        2.9984750    -0.0000010    -1.0736880
  H        3.2785690    -0.8871030     0.4480170
  H        3.2785700     0.8871010     0.4480170
units angstrom
no_reorient  #important for SAPT in psi4, default
symmetry c1  #important for SAPT in psi4, default
}

set PROPERTIES_ORIGIN ["COM"]
properties('MP2/aug-cc-pvtz', properties = ['dipole'])
--------------------------------------------------------------------------

    Molecular point group: c1
  Charge       = 0
  Multiplicity = 1
  Basis Set: AUG-CC-PVTZ
    Blend: AUG-CC-PVTZ
  Basis Set: (AUG-CC-PVTZ AUX)
    Blend: AUG-CC-PVTZ-JKFIT

    Orbital Energies [Eh]
    ---------------------

    Doubly Occupied:

       1A    -15.545502     2A    -15.544816     3A    -11.243530
       4A    -11.243494     5A    -11.242821     6A    -11.242394
       7A    -11.241055     8A    -11.239994     9A     -1.257782
      10A     -1.205566    11A     -1.022275    12A     -0.989358
      13A     -0.908299    14A     -0.862800    15A     -0.833625
      16A     -0.755863    17A     -0.664497    18A     -0.632376
      19A     -0.629564    20A     -0.624612    21A     -0.621626
      22A     -0.581318    23A     -0.547598    24A     -0.541585
      25A     -0.541076    26A     -0.515861    27A     -0.496087
      28A     -0.487060    29A     -0.463193    30A     -0.453715
      31A     -0.359267    32A     -0.357542

  @DF-RHF Final Energy:  -344.35076182489678

   => Energetics <=

    Nuclear Repulsion Energy =            420.8315047894548684
    One-Electron Energy =               -1300.5722339645978991
    Two-Electron Energy =                 535.3899673502462520
    Total Energy =                       -344.3507618248968356
  Basis Set: (AUG-CC-PVTZ AUX)
    Blend: AUG-CC-PVTZ-RI
    Molecular point group: c1

    Geometry (in Angstrom), charge = 0, multiplicity = 1:

       Center              X                  Y                   Z               Mass
    ------------   -----------------  -----------------  -----------------  -----------------
         N           -1.388456504478    -0.002390154868    -0.337830761254    14.003074004430
         N            1.389139495522    -0.002390154868     0.340618238746    14.003074004430
         C            0.734773495522    -1.193190154868    -0.191813761254    12.000000000000
         C           -0.737337004478    -1.170460554868     0.181350038746    12.000000000000
         C            0.734774495522     1.188410845132    -0.191812761254    12.000000000000
         C           -0.734091504478     1.188410845132     0.194600238746    12.000000000000
         C           -2.807207504478    -0.002391154868    -0.013479761254    12.000000000000
         C            2.807889495522    -0.002391154868     0.016265238746    12.000000000000
         H            0.818225495522    -1.247024154868    -1.294344761254     1.007825032230
         H            1.227729495522    -2.078297154868     0.227756238746     1.007825032230
         H            1.227730495522     2.073517845132     0.227757238746     1.007825032230
         H            0.818225495522     1.242245845132    -1.294343761254     1.007825032230
         H           -1.227046504478    -2.078297154868    -0.224967761254     1.007825032230
         H           -0.817542504478    -1.247024154868     1.297131238746     1.007825032230
         H           -0.817541504478     1.242244845132     1.297131238746     1.007825032230
         H           -1.227047504478     2.073517845132    -0.224968761254     1.007825032230
         H           -3.278227504478     0.884710845132    -0.446626761254     1.007825032230
         H           -2.998135504478    -0.002391154868     1.075079238746     1.007825032230
         H           -3.278227504478    -0.889493154868    -0.446625761254     1.007825032230
         H            2.998816495522    -0.002391154868    -1.072294761254     1.007825032230
         H            3.278910495522    -0.889493154868     0.449410238746     1.007825032230
         H            3.278911495522     0.884710845132     0.449410238746     1.007825032230

  Basis Set: AUG-CC-PVTZ
    Blend: AUG-CC-PVTZ
  Basis Set: (AUG-CC-PVTZ AUX)
    Blend: AUG-CC-PVTZ-JKFIT
	 Reference Energy          =    -344.3507618248967788 [Eh]
	 Singles Energy            =      -0.0000000000000000 [Eh]
	 Same-Spin Energy          =      -0.3691261750155421 [Eh]
	 Opposite-Spin Energy      =      -1.2704077640177724 [Eh]
	 Correlation Energy        =      -1.6395339390333146 [Eh]
	 Total Energy              =    -345.9902957639300780 [Eh]

	 ================> DF-SCS-MP2 Energies <==================
	-----------------------------------------------------------
	 SCS Same-Spin Scale       =       0.3333333333333333 [-]
	 SCS Opposite-Spin Scale   =       1.2000000000000000 [-]
	 SCS Same-Spin Energy      =      -0.1230420583385140 [Eh]
	 SCS Opposite-Spin Energy  =      -1.5244893168213269 [Eh]
	 SCS Correlation Energy    =      -1.6475313751598410 [Eh]
	 SCS Total Energy          =    -345.9982932000565938 [Eh]
	-----------------------------------------------------------

  Dipole Moment: [D]
     X:    -0.0229      Y:     0.0515      Z:    -0.0334     Total:     0.0655

*** Psi4 exiting successfully. Buy a developer a beer!
