                               Psi4 1.4a3.dev225

  ==> Input File <==

--------------------------------------------------------------------------
#psi4
#
memory 32 gb

molecule  {
0 1
  N       -1.4507448     0.0617423    -0.3914359
  N        1.3887980     0.0000000     0.3392250
  C        0.7344320    -1.1908000    -0.1932070
  C       -0.7344320    -1.1907990     0.1932070
  C        0.7344330     1.1908010    -0.1932060
  C       -0.7344330     1.1908010     0.1932070
  C       -2.8075490    -0.0000010    -0.0148730
  C        2.8075480    -0.0000010     0.0148720
  H        0.8178840    -1.2446340    -1.2957380
  H        1.2273880    -2.0759070     0.2263630
  H        1.2273890     2.0759080     0.2263640
  H        0.8178840     1.2446360    -1.2957370
  H       -1.2273880    -2.0759070    -0.2263610
  H       -0.8178840    -1.2446340     1.2957380
  H       -0.8178830     1.2446350     1.2957380
  H       -1.2273890     2.0759080    -0.2263620
  H       -3.2785690     0.8871010    -0.4480200
  H       -2.9984770    -0.0000010     1.0736860
  H       -3.2785690    -0.8871030    -0.4480190
  H        2.9984750    -0.0000010    -1.0736880
  H        3.2785690    -0.8871030     0.4480170
  H        3.2785700     0.8871010     0.4480170
units angstrom
no_reorient  #important for SAPT in psi4, default
symmetry c1  #important for SAPT in psi4, default
}

set PROPERTIES_ORIGIN ["COM"]
properties('MP2/aug-cc-pvtz', properties = ['dipole'])
--------------------------------------------------------------------------

    Molecular point group: c1
  Charge       = 0
  Multiplicity = 1
  Basis Set: AUG-CC-PVTZ
    Blend: AUG-CC-PVTZ
  Basis Set: (AUG-CC-PVTZ AUX)
    Blend: AUG-CC-PVTZ-JKFIT

    Orbital Energies [Eh]
    ---------------------

    Doubly Occupied:

       1A    -15.549804     2A    -15.546021     3A    -11.248591
       4A    -11.245273     5A    -11.244270     6A    -11.242412
       7A    -11.241017     8A    -11.235624     9A     -1.250386
      10A     -1.203630    11A     -1.019961    12A     -0.994105
      13A     -0.905598    14A     -0.858149    15A     -0.830331
      16A     -0.759482    17A     -0.662496    18A     -0.632851
      19A     -0.627738    20A     -0.625750    21A     -0.619914
      22A     -0.586731    23A     -0.548460    24A     -0.540042
      25A     -0.533375    26A     -0.517341    27A     -0.494506
      28A     -0.489400    29A     -0.464077    30A     -0.441709
      31A     -0.365844    32A     -0.359654

  @DF-RHF Final Energy:  -344.34134813857708

   => Energetics <=

    Nuclear Repulsion Energy =            419.1082729010460071
    One-Electron Energy =               -1297.1301646334043198
    Two-Electron Energy =                 533.6805435937812945
    Total Energy =                       -344.3413481385770183
  Basis Set: (AUG-CC-PVTZ AUX)
    Blend: AUG-CC-PVTZ-RI
    Molecular point group: c1

    Geometry (in Angstrom), charge = 0, multiplicity = 1:

       Center              X                  Y                   Z               Mass
    ------------   -----------------  -----------------  -----------------  -----------------
         N           -1.443143237407     0.054165840320    -0.385029111784    14.003074004430
         N            1.396399562593    -0.007576459680     0.345631788216    14.003074004430
         C            0.742033562593    -1.198376459680    -0.186800211784    12.000000000000
         C           -0.726830437407    -1.198375459680     0.199613788216    12.000000000000
         C            0.742034562593     1.183224540320    -0.186799211784    12.000000000000
         C           -0.726831437407     1.183224540320     0.199613788216    12.000000000000
         C           -2.799947437407    -0.007577459680    -0.008466211784    12.000000000000
         C            2.815149562593    -0.007577459680     0.021278788216    12.000000000000
         H            0.825485562593    -1.252210459680    -1.289331211784     1.007825032230
         H            1.234989562593    -2.083483459680     0.232769788216     1.007825032230
         H            1.234990562593     2.068331540320     0.232770788216     1.007825032230
         H            0.825485562593     1.237059540320    -1.289330211784     1.007825032230
         H           -1.219786437407    -2.083483459680    -0.219954211784     1.007825032230
         H           -0.810282437407    -1.252210459680     1.302144788216     1.007825032230
         H           -0.810281437407     1.237058540320     1.302144788216     1.007825032230
         H           -1.219787437407     2.068331540320    -0.219955211784     1.007825032230
         H           -3.270967437407     0.879524540320    -0.441613211784     1.007825032230
         H           -2.990875437407    -0.007577459680     1.080092788216     1.007825032230
         H           -3.270967437407    -0.894679459680    -0.441612211784     1.007825032230
         H            3.006076562593    -0.007577459680    -1.067281211784     1.007825032230
         H            3.286170562593    -0.894679459680     0.454423788216     1.007825032230
         H            3.286171562593     0.879524540320     0.454423788216     1.007825032230

  Basis Set: AUG-CC-PVTZ
    Blend: AUG-CC-PVTZ
  Basis Set: (AUG-CC-PVTZ AUX)
    Blend: AUG-CC-PVTZ-JKFIT
	 Reference Energy          =    -344.3413481385770751 [Eh]
	 Singles Energy            =      -0.0000000000000000 [Eh]
	 Same-Spin Energy          =      -0.3692351700303068 [Eh]
	 Opposite-Spin Energy      =      -1.2718095689935303 [Eh]
	 Correlation Energy        =      -1.6410447390238372 [Eh]
	 Total Energy              =    -345.9823928776008870 [Eh]

	 ================> DF-SCS-MP2 Energies <==================
	-----------------------------------------------------------
	 SCS Same-Spin Scale       =       0.3333333333333333 [-]
	 SCS Opposite-Spin Scale   =       1.2000000000000000 [-]
	 SCS Same-Spin Energy      =      -0.1230783900101023 [Eh]
	 SCS Opposite-Spin Energy  =      -1.5261714827922364 [Eh]
	 SCS Correlation Energy    =      -1.6492498728023386 [Eh]
	 SCS Total Energy          =    -345.9905980113794044 [Eh]
	-----------------------------------------------------------

  Dipole Moment: [D]
     X:     0.2029      Y:    -0.1514      Z:     0.1372     Total:     0.2879

*** Psi4 exiting successfully. Buy a developer a beer!
