                               Psi4 1.4a3.dev225

  ==> Input File <==

--------------------------------------------------------------------------
#psi4
#
memory 32 gb

molecule  {
0 1
  N       -1.3887980     0.0000000    -0.3392240
  N        1.3887980     0.0000000     0.3392250
  C        0.7792718    -1.1092017    -0.1567226
  C       -0.7344320    -1.1907990     0.1932070
  C        0.7344330     1.1908010    -0.1932060
  C       -0.7344330     1.1908010     0.1932070
  C       -2.8075490    -0.0000010    -0.0148730
  C        2.8075480    -0.0000010     0.0148720
  H        0.8178840    -1.2446340    -1.2957380
  H        1.2273880    -2.0759070     0.2263630
  H        1.2273890     2.0759080     0.2263640
  H        0.8178840     1.2446360    -1.2957370
  H       -1.2273880    -2.0759070    -0.2263610
  H       -0.8178840    -1.2446340     1.2957380
  H       -0.8178830     1.2446350     1.2957380
  H       -1.2273890     2.0759080    -0.2263620
  H       -3.2785690     0.8871010    -0.4480200
  H       -2.9984770    -0.0000010     1.0736860
  H       -3.2785690    -0.8871030    -0.4480190
  H        2.9984750    -0.0000010    -1.0736880
  H        3.2785690    -0.8871030     0.4480170
  H        3.2785700     0.8871010     0.4480170
units angstrom
no_reorient  #important for SAPT in psi4, default
symmetry c1  #important for SAPT in psi4, default
}

set PROPERTIES_ORIGIN ["COM"]
properties('MP2/aug-cc-pvtz', properties = ['dipole'])
--------------------------------------------------------------------------

    Molecular point group: c1
  Charge       = 0
  Multiplicity = 1
  Basis Set: AUG-CC-PVTZ
    Blend: AUG-CC-PVTZ
  Basis Set: (AUG-CC-PVTZ AUX)
    Blend: AUG-CC-PVTZ-JKFIT

    Orbital Energies [Eh]
    ---------------------

    Doubly Occupied:

       1A    -15.546762     2A    -15.543976     3A    -11.246131
       4A    -11.245089     5A    -11.244050     6A    -11.243460
       7A    -11.242788     8A    -11.239397     9A     -1.270736
      10A     -1.213082    11A     -1.020388    12A     -0.987949
      13A     -0.912590    14A     -0.867960    15A     -0.832064
      16A     -0.754729    17A     -0.667459    18A     -0.637529
      19A     -0.633563    20A     -0.622573    21A     -0.621884
      22A     -0.586060    23A     -0.549389    24A     -0.542592
      25A     -0.539257    26A     -0.516087    27A     -0.499037
      28A     -0.481120    29A     -0.469272    30A     -0.443986
      31A     -0.359596    32A     -0.355615

  @DF-RHF Final Energy:  -344.34064298881270

   => Energetics <=

    Nuclear Repulsion Energy =            421.7632007088647583
    One-Electron Energy =               -1302.3353495475053023
    Two-Electron Energy =                 536.2315058498277267
    Total Energy =                       -344.3406429888127604
  Basis Set: (AUG-CC-PVTZ AUX)
    Blend: AUG-CC-PVTZ-RI
    Molecular point group: c1

    Geometry (in Angstrom), charge = 0, multiplicity = 1:

       Center              X                  Y                   Z               Mass
    ------------   -----------------  -----------------  -----------------  -----------------
         N           -1.393513088347    -0.008580682635    -0.343060674475    14.003074004430
         N            1.384082911653    -0.008580682635     0.335388325525    14.003074004430
         C            0.774556711653    -1.117782382635    -0.160559274475    12.000000000000
         C           -0.739147088347    -1.199379682635     0.189370325525    12.000000000000
         C            0.729717911653     1.182220317365    -0.197042674475    12.000000000000
         C           -0.739148088347     1.182220317365     0.189370325525    12.000000000000
         C           -2.812264088347    -0.008581682635    -0.018709674475    12.000000000000
         C            2.802832911653    -0.008581682635     0.011035325525    12.000000000000
         H            0.813168911653    -1.253214682635    -1.299574674475     1.007825032230
         H            1.222672911653    -2.084487682635     0.222526325525     1.007825032230
         H            1.222673911653     2.067327317365     0.222527325525     1.007825032230
         H            0.813168911653     1.236055317365    -1.299573674475     1.007825032230
         H           -1.232103088347    -2.084487682635    -0.230197674475     1.007825032230
         H           -0.822599088347    -1.253214682635     1.291901325525     1.007825032230
         H           -0.822598088347     1.236054317365     1.291901325525     1.007825032230
         H           -1.232104088347     2.067327317365    -0.230198674475     1.007825032230
         H           -3.283284088347     0.878520317365    -0.451856674475     1.007825032230
         H           -3.003192088347    -0.008581682635     1.069849325525     1.007825032230
         H           -3.283284088347    -0.895683682635    -0.451855674475     1.007825032230
         H            2.993759911653    -0.008581682635    -1.077524674475     1.007825032230
         H            3.273853911653    -0.895683682635     0.444180325525     1.007825032230
         H            3.273854911653     0.878520317365     0.444180325525     1.007825032230

  Basis Set: AUG-CC-PVTZ
    Blend: AUG-CC-PVTZ
  Basis Set: (AUG-CC-PVTZ AUX)
    Blend: AUG-CC-PVTZ-JKFIT
	 Reference Energy          =    -344.3406429888127036 [Eh]
	 Singles Energy            =      -0.0000000000000000 [Eh]
	 Same-Spin Energy          =      -0.3698628208486371 [Eh]
	 Opposite-Spin Energy      =      -1.2709894017810732 [Eh]
	 Correlation Energy        =      -1.6408522226297104 [Eh]
	 Total Energy              =    -345.9814952114423932 [Eh]

	 ================> DF-SCS-MP2 Energies <==================
	-----------------------------------------------------------
	 SCS Same-Spin Scale       =       0.3333333333333333 [-]
	 SCS Opposite-Spin Scale   =       1.2000000000000000 [-]
	 SCS Same-Spin Energy      =      -0.1232876069495457 [Eh]
	 SCS Opposite-Spin Energy  =      -1.5251872821372878 [Eh]
	 SCS Correlation Energy    =      -1.6484748890868335 [Eh]
	 SCS Total Energy          =    -345.9891178778995595 [Eh]
	-----------------------------------------------------------

  Dipole Moment: [D]
     X:     0.1144      Y:     0.2249      Z:     0.1177     Total:     0.2784

*** Psi4 exiting successfully. Buy a developer a beer!
