                               Psi4 1.4a3.dev225

  ==> Input File <==

--------------------------------------------------------------------------
#psi4
#
memory 32 gb

molecule  {
0 1
  N       -1.3887980     0.0000000    -0.3392240
  N        1.3887980     0.0000000     0.3392250
  C        0.7344320    -1.1908000    -0.1932070
  C       -0.7827868    -1.1907990     0.2059277
  C        0.7344330     1.1908010    -0.1932060
  C       -0.7344330     1.1908010     0.1932070
  C       -2.8075490    -0.0000010    -0.0148730
  C        2.8075480    -0.0000010     0.0148720
  H        0.8178840    -1.2446340    -1.2957380
  H        1.2273880    -2.0759070     0.2263630
  H        1.2273890     2.0759080     0.2263640
  H        0.8178840     1.2446360    -1.2957370
  H       -1.2273880    -2.0759070    -0.2263610
  H       -0.8178840    -1.2446340     1.2957380
  H       -0.8178830     1.2446350     1.2957380
  H       -1.2273890     2.0759080    -0.2263620
  H       -3.2785690     0.8871010    -0.4480200
  H       -2.9984770    -0.0000010     1.0736860
  H       -3.2785690    -0.8871030    -0.4480190
  H        2.9984750    -0.0000010    -1.0736880
  H        3.2785690    -0.8871030     0.4480170
  H        3.2785700     0.8871010     0.4480170
units angstrom
no_reorient  #important for SAPT in psi4, default
symmetry c1  #important for SAPT in psi4, default
}

set PROPERTIES_ORIGIN ["COM"]
properties('MP2/aug-cc-pvtz', properties = ['dipole'])
--------------------------------------------------------------------------

    Molecular point group: c1
  Charge       = 0
  Multiplicity = 1
  Basis Set: AUG-CC-PVTZ
    Blend: AUG-CC-PVTZ
  Basis Set: (AUG-CC-PVTZ AUX)
    Blend: AUG-CC-PVTZ-JKFIT

    Orbital Energies [Eh]
    ---------------------

    Doubly Occupied:

       1A    -15.545570     2A    -15.544628     3A    -11.243768
       4A    -11.243357     5A    -11.242504     6A    -11.241296
       7A    -11.239758     8A    -11.239701     9A     -1.254908
      10A     -1.204870    11A     -1.018952    12A     -0.985302
      13A     -0.907093    14A     -0.864641    15A     -0.831968
      16A     -0.757872    17A     -0.662216    18A     -0.634372
      19A     -0.629078    20A     -0.624367    21A     -0.620674
      22A     -0.579630    23A     -0.547488    24A     -0.542254
      25A     -0.539180    26A     -0.518058    27A     -0.497637
      28A     -0.485644    29A     -0.465438    30A     -0.446582
      31A     -0.360995    32A     -0.356936

  @DF-RHF Final Energy:  -344.34935929541393

   => Energetics <=

    Nuclear Repulsion Energy =            420.0598623338532320
    One-Electron Energy =               -1299.0649724840495765
    Two-Electron Energy =                 534.6557508547823545
    Total Energy =                       -344.3493592954139331
  Basis Set: (AUG-CC-PVTZ AUX)
    Blend: AUG-CC-PVTZ-RI
    Molecular point group: c1

    Geometry (in Angstrom), charge = 0, multiplicity = 1:

       Center              X                  Y                   Z               Mass
    ------------   -----------------  -----------------  -----------------  -----------------
         N           -1.383713076472    -0.000000096325    -0.340561768506    14.003074004430
         N            1.393882923528    -0.000000096325     0.337887231494    14.003074004430
         C            0.739516923528    -1.190800096325    -0.194544768506    12.000000000000
         C           -0.777701876472    -1.190799096325     0.204589931494    12.000000000000
         C            0.739517923528     1.190800903675    -0.194543768506    12.000000000000
         C           -0.729348076472     1.190800903675     0.191869231494    12.000000000000
         C           -2.802464076472    -0.000001096325    -0.016210768506    12.000000000000
         C            2.812632923528    -0.000001096325     0.013534231494    12.000000000000
         H            0.822968923528    -1.244634096325    -1.297075768506     1.007825032230
         H            1.232472923528    -2.075907096325     0.225025231494     1.007825032230
         H            1.232473923528     2.075907903675     0.225026231494     1.007825032230
         H            0.822968923528     1.244635903675    -1.297074768506     1.007825032230
         H           -1.222303076472    -2.075907096325    -0.227698768506     1.007825032230
         H           -0.812799076472    -1.244634096325     1.294400231494     1.007825032230
         H           -0.812798076472     1.244634903675     1.294400231494     1.007825032230
         H           -1.222304076472     2.075907903675    -0.227699768506     1.007825032230
         H           -3.273484076472     0.887100903675    -0.449357768506     1.007825032230
         H           -2.993392076472    -0.000001096325     1.072348231494     1.007825032230
         H           -3.273484076472    -0.887103096325    -0.449356768506     1.007825032230
         H            3.003559923528    -0.000001096325    -1.075025768506     1.007825032230
         H            3.283653923528    -0.887103096325     0.446679231494     1.007825032230
         H            3.283654923528     0.887100903675     0.446679231494     1.007825032230

  Basis Set: AUG-CC-PVTZ
    Blend: AUG-CC-PVTZ
  Basis Set: (AUG-CC-PVTZ AUX)
    Blend: AUG-CC-PVTZ-JKFIT
	 Reference Energy          =    -344.3493592954139331 [Eh]
	 Singles Energy            =      -0.0000000000000000 [Eh]
	 Same-Spin Energy          =      -0.3688628354374258 [Eh]
	 Opposite-Spin Energy      =      -1.2704307248079736 [Eh]
	 Correlation Energy        =      -1.6392935602453993 [Eh]
	 Total Energy              =    -345.9886528556593248 [Eh]

	 ================> DF-SCS-MP2 Energies <==================
	-----------------------------------------------------------
	 SCS Same-Spin Scale       =       0.3333333333333333 [-]
	 SCS Opposite-Spin Scale   =       1.2000000000000000 [-]
	 SCS Same-Spin Energy      =      -0.1229542784791419 [Eh]
	 SCS Opposite-Spin Energy  =      -1.5245168697695684 [Eh]
	 SCS Correlation Energy    =      -1.6474711482487103 [Eh]
	 SCS Total Energy          =    -345.9968304436626454 [Eh]
	-----------------------------------------------------------

  Dipole Moment: [D]
     X:    -0.0370      Y:     0.0259      Z:     0.0159     Total:     0.0479

*** Psi4 exiting successfully. Buy a developer a beer!
