                               Psi4 1.4a3.dev225

  ==> Input File <==

--------------------------------------------------------------------------
#psi4
#
memory 32 gb

molecule  {
0 1
  N       -1.3887980     0.0000000    -0.3392240
  N        1.3887980     0.0000000     0.3392250
  C        0.7344320    -1.1908000    -0.1932070
  C       -0.7344320    -1.1907990     0.1932070
  C        0.7344330     1.1908010    -0.1932060
  C       -0.7344330     1.1908010     0.1932070
  C       -3.0025188    -0.0000011     0.0297005
  C        2.8075480    -0.0000010     0.0148720
  H        0.8178840    -1.2446340    -1.2957380
  H        1.2273880    -2.0759070     0.2263630
  H        1.2273890     2.0759080     0.2263640
  H        0.8178840     1.2446360    -1.2957370
  H       -1.2273880    -2.0759070    -0.2263610
  H       -0.8178840    -1.2446340     1.2957380
  H       -0.8178830     1.2446350     1.2957380
  H       -1.2273890     2.0759080    -0.2263620
  H       -3.2785690     0.8871010    -0.4480200
  H       -2.9984770    -0.0000010     1.0736860
  H       -3.2785690    -0.8871030    -0.4480190
  H        2.9984750    -0.0000010    -1.0736880
  H        3.2785690    -0.8871030     0.4480170
  H        3.2785700     0.8871010     0.4480170
units angstrom
no_reorient  #important for SAPT in psi4, default
symmetry c1  #important for SAPT in psi4, default
}

set PROPERTIES_ORIGIN ["COM"]
properties('MP2/aug-cc-pvtz', properties = ['dipole'])
--------------------------------------------------------------------------

    Molecular point group: c1
  Charge       = 0
  Multiplicity = 1
  Basis Set: AUG-CC-PVTZ
    Blend: AUG-CC-PVTZ
  Basis Set: (AUG-CC-PVTZ AUX)
    Blend: AUG-CC-PVTZ-JKFIT

    Orbital Energies [Eh]
    ---------------------

    Doubly Occupied:

       1A    -15.542735     2A    -15.542615     3A    -11.241626
       4A    -11.240122     5A    -11.240107     6A    -11.238608
       7A    -11.238595     8A    -11.238226     9A     -1.243240
      10A     -1.178283    11A     -1.018017    12A     -0.980483
      13A     -0.917131    14A     -0.855636    15A     -0.833526
      16A     -0.750438    17A     -0.653709    18A     -0.626471
      19A     -0.625688    20A     -0.622224    21A     -0.622180
      22A     -0.576162    23A     -0.568268    24A     -0.537915
      25A     -0.537639    26A     -0.517303    27A     -0.502741
      28A     -0.486733    29A     -0.458813    30A     -0.429832
      31A     -0.356584    32A     -0.349731

  @DF-RHF Final Energy:  -344.32278947616817

   => Energetics <=

    Nuclear Repulsion Energy =            416.7406021947888917
    One-Electron Energy =               -1292.5840261149189701
    Two-Electron Energy =                 531.5206344439619670
    Total Energy =                       -344.3227894761681682
  Basis Set: (AUG-CC-PVTZ AUX)
    Blend: AUG-CC-PVTZ-RI
    Molecular point group: c1

    Geometry (in Angstrom), charge = 0, multiplicity = 1:

       Center              X                  Y                   Z               Mass
    ------------   -----------------  -----------------  -----------------  -----------------
         N           -1.368295565790    -0.000000085809    -0.343911295391    14.003074004430
         N            1.409300434210    -0.000000085809     0.334537704609    14.003074004430
         C            0.754934434210    -1.190800085809    -0.197894295391    12.000000000000
         C           -0.713929565790    -1.190799085809     0.188519704609    12.000000000000
         C            0.754935434210     1.190800914191    -0.197893295391    12.000000000000
         C           -0.713930565790     1.190800914191     0.188519704609    12.000000000000
         C           -2.982016365790    -0.000001185809     0.025013204609    12.000000000000
         C            2.828050434210    -0.000001085809     0.010184704609    12.000000000000
         H            0.838386434210    -1.244634085809    -1.300425295391     1.007825032230
         H            1.247890434210    -2.075907085809     0.221675704609     1.007825032230
         H            1.247891434210     2.075907914191     0.221676704609     1.007825032230
         H            0.838386434210     1.244635914191    -1.300424295391     1.007825032230
         H           -1.206885565790    -2.075907085809    -0.231048295391     1.007825032230
         H           -0.797381565790    -1.244634085809     1.291050704609     1.007825032230
         H           -0.797380565790     1.244634914191     1.291050704609     1.007825032230
         H           -1.206886565790     2.075907914191    -0.231049295391     1.007825032230
         H           -3.258066565790     0.887100914191    -0.452707295391     1.007825032230
         H           -2.977974565790    -0.000001085809     1.068998704609     1.007825032230
         H           -3.258066565790    -0.887103085809    -0.452706295391     1.007825032230
         H            3.018977434210    -0.000001085809    -1.078375295391     1.007825032230
         H            3.299071434210    -0.887103085809     0.443329704609     1.007825032230
         H            3.299072434210     0.887100914191     0.443329704609     1.007825032230

  Basis Set: AUG-CC-PVTZ
    Blend: AUG-CC-PVTZ
  Basis Set: (AUG-CC-PVTZ AUX)
    Blend: AUG-CC-PVTZ-JKFIT
	 Reference Energy          =    -344.3227894761681682 [Eh]
	 Singles Energy            =      -0.0000000000000000 [Eh]
	 Same-Spin Energy          =      -0.3693406577540678 [Eh]
	 Opposite-Spin Energy      =      -1.2735054173623062 [Eh]
	 Correlation Energy        =      -1.6428460751163740 [Eh]
	 Total Energy              =    -345.9656355512845494 [Eh]

	 ================> DF-SCS-MP2 Energies <==================
	-----------------------------------------------------------
	 SCS Same-Spin Scale       =       0.3333333333333333 [-]
	 SCS Opposite-Spin Scale   =       1.2000000000000000 [-]
	 SCS Same-Spin Energy      =      -0.1231135525846893 [Eh]
	 SCS Opposite-Spin Energy  =      -1.5282065008347674 [Eh]
	 SCS Correlation Energy    =      -1.6513200534194565 [Eh]
	 SCS Total Energy          =    -345.9741095295876221 [Eh]
	-----------------------------------------------------------

  Dipole Moment: [D]
     X:    -0.3168      Y:     0.0000      Z:     0.1229     Total:     0.3398

*** Psi4 exiting successfully. Buy a developer a beer!
