                               Psi4 1.4a3.dev225

  ==> Input File <==

--------------------------------------------------------------------------
#psi4
#
memory 32 gb

molecule  {
0 1
  N       -1.3887980     0.0000000    -0.3392240
  N        1.3887980     0.0000000     0.3392250
  C        0.7344320    -1.1908000    -0.1932070
  C       -0.7056011    -1.3269286     0.2700975
  C        0.7344330     1.1908010    -0.1932060
  C       -0.7344330     1.1908010     0.1932070
  C       -2.8075490    -0.0000010    -0.0148730
  C        2.8075480    -0.0000010     0.0148720
  H        0.8178840    -1.2446340    -1.2957380
  H        1.2273880    -2.0759070     0.2263630
  H        1.2273890     2.0759080     0.2263640
  H        0.8178840     1.2446360    -1.2957370
  H       -1.2273880    -2.0759070    -0.2263610
  H       -0.8178840    -1.2446340     1.2957380
  H       -0.8178830     1.2446350     1.2957380
  H       -1.2273890     2.0759080    -0.2263620
  H       -3.2785690     0.8871010    -0.4480200
  H       -2.9984770    -0.0000010     1.0736860
  H       -3.2785690    -0.8871030    -0.4480190
  H        2.9984750    -0.0000010    -1.0736880
  H        3.2785690    -0.8871030     0.4480170
  H        3.2785700     0.8871010     0.4480170
units angstrom
no_reorient  #important for SAPT in psi4, default
symmetry c1  #important for SAPT in psi4, default
}

set PROPERTIES_ORIGIN ["COM"]
properties('MP2/aug-cc-pvtz', properties = ['dipole'])
--------------------------------------------------------------------------

    Molecular point group: c1
  Charge       = 0
  Multiplicity = 1
  Basis Set: AUG-CC-PVTZ
    Blend: AUG-CC-PVTZ
  Basis Set: (AUG-CC-PVTZ AUX)
    Blend: AUG-CC-PVTZ-JKFIT

    Orbital Energies [Eh]
    ---------------------

    Doubly Occupied:

       1A    -15.546745     2A    -15.541509     3A    -11.245383
       4A    -11.242745     5A    -11.241048     6A    -11.240959
       7A    -11.239208     8A    -11.235392     9A     -1.243385
      10A     -1.185298    11A     -1.024371    12A     -0.986896
      13A     -0.901934    14A     -0.863369    15A     -0.827635
      16A     -0.760671    17A     -0.658583    18A     -0.639506
      19A     -0.632330    20A     -0.619865    21A     -0.614859
      22A     -0.574064    23A     -0.552617    24A     -0.538956
      25A     -0.535331    26A     -0.524037    27A     -0.500200
      28A     -0.491814    29A     -0.464139    30A     -0.430351
      31A     -0.359989    32A     -0.353325

  @DF-RHF Final Energy:  -344.33042702821865

   => Energetics <=

    Nuclear Repulsion Energy =            417.9019142412903989
    One-Electron Energy =               -1294.8316509481644516
    Two-Electron Energy =                 532.5993096786554588
    Total Energy =                       -344.3304270282186508
  Basis Set: (AUG-CC-PVTZ AUX)
    Blend: AUG-CC-PVTZ-RI
    Molecular point group: c1

    Geometry (in Angstrom), charge = 0, multiplicity = 1:

       Center              X                  Y                   Z               Mass
    ------------   -----------------  -----------------  -----------------  -----------------
         N           -1.391829649498     0.014314807076    -0.347309635893    14.003074004430
         N            1.385766350502     0.014314807076     0.331139364107    14.003074004430
         C            0.731400350502    -1.176485192924    -0.201292635893    12.000000000000
         C           -0.708632749498    -1.312613792924     0.262011864107    12.000000000000
         C            0.731401350502     1.205115807076    -0.201291635893    12.000000000000
         C           -0.737464649498     1.205115807076     0.185121364107    12.000000000000
         C           -2.810580649498     0.014313807076    -0.022958635893    12.000000000000
         C            2.804516350502     0.014313807076     0.006786364107    12.000000000000
         H            0.814852350502    -1.230319192924    -1.303823635893     1.007825032230
         H            1.224356350502    -2.061592192924     0.218277364107     1.007825032230
         H            1.224357350502     2.090222807076     0.218278364107     1.007825032230
         H            0.814852350502     1.258950807076    -1.303822635893     1.007825032230
         H           -1.230419649498    -2.061592192924    -0.234446635893     1.007825032230
         H           -0.820915649498    -1.230319192924     1.287652364107     1.007825032230
         H           -0.820914649498     1.258949807076     1.287652364107     1.007825032230
         H           -1.230420649498     2.090222807076    -0.234447635893     1.007825032230
         H           -3.281600649498     0.901415807076    -0.456105635893     1.007825032230
         H           -3.001508649498     0.014313807076     1.065600364107     1.007825032230
         H           -3.281600649498    -0.872788192924    -0.456104635893     1.007825032230
         H            2.995443350502     0.014313807076    -1.081773635893     1.007825032230
         H            3.275537350502    -0.872788192924     0.439931364107     1.007825032230
         H            3.275538350502     0.901415807076     0.439931364107     1.007825032230

  Basis Set: AUG-CC-PVTZ
    Blend: AUG-CC-PVTZ
  Basis Set: (AUG-CC-PVTZ AUX)
    Blend: AUG-CC-PVTZ-JKFIT
	 Reference Energy          =    -344.3304270282186508 [Eh]
	 Singles Energy            =      -0.0000000000000000 [Eh]
	 Same-Spin Energy          =      -0.3689407518911353 [Eh]
	 Opposite-Spin Energy      =      -1.2722499218533354 [Eh]
	 Correlation Energy        =      -1.6411906737444708 [Eh]
	 Total Energy              =    -345.9716177019631118 [Eh]

	 ================> DF-SCS-MP2 Energies <==================
	-----------------------------------------------------------
	 SCS Same-Spin Scale       =       0.3333333333333333 [-]
	 SCS Opposite-Spin Scale   =       1.2000000000000000 [-]
	 SCS Same-Spin Energy      =      -0.1229802506303784 [Eh]
	 SCS Opposite-Spin Energy  =      -1.5266999062240025 [Eh]
	 SCS Correlation Energy    =      -1.6496801568543809 [Eh]
	 SCS Total Energy          =    -345.9801071850730523 [Eh]
	-----------------------------------------------------------

  Dipole Moment: [D]
     X:     0.1273      Y:    -0.2279      Z:     0.1422     Total:     0.2973

*** Psi4 exiting successfully. Buy a developer a beer!
