                               Psi4 1.4a3.dev225

  ==> Input File <==

--------------------------------------------------------------------------
#psi4
#
memory 32 gb

molecule  {
0 1
  N       -1.3887980     0.0000000    -0.3392240
  N        1.3887980     0.0000000     0.3392250
  C        0.7344320    -1.1908000    -0.1932070
  C       -0.7344320    -1.1907990     0.1932070
  C        0.7344330     1.1908010    -0.1932060
  C       -0.7344330     1.1908010     0.1932070
  C       -2.8075490    -0.0000010    -0.0148730
  C        2.8075480    -0.0000010     0.0148720
  H        0.8178840    -1.2446340    -1.2957380
  H        1.2273880    -2.0759070     0.2263630
  H        1.2273890     2.0759080     0.2263640
  H        0.8178840     1.2446360    -1.2957370
  H       -1.2273880    -2.0759070    -0.2263610
  H       -0.8178840    -1.2446340     1.2957380
  H       -0.8178830     1.2446350     1.2957380
  H       -1.2273890     2.0759080    -0.2263620
  H       -3.2785690     0.8871010    -0.4480200
  H       -2.9984770    -0.0000010     1.0736860
  H       -3.2785690    -0.8871030    -0.4480190
  H        2.9984750    -0.0000010    -1.0736880
  H        3.2785690    -0.8871030     0.4480170
  H        3.2355076     0.8059992     0.4084174
units angstrom
no_reorient  #important for SAPT in psi4, default
symmetry c1  #important for SAPT in psi4, default
}

set PROPERTIES_ORIGIN ["COM"]
properties('MP2/aug-cc-pvtz', properties = ['dipole'])
--------------------------------------------------------------------------

    Molecular point group: c1
  Charge       = 0
  Multiplicity = 1
  Basis Set: AUG-CC-PVTZ
    Blend: AUG-CC-PVTZ
  Basis Set: (AUG-CC-PVTZ AUX)
    Blend: AUG-CC-PVTZ-JKFIT

    Orbital Energies [Eh]
    ---------------------

    Doubly Occupied:

       1A    -15.544775     2A    -15.544053     3A    -11.242903
       4A    -11.242260     5A    -11.242253     6A    -11.241522
       7A    -11.239899     8A    -11.227567     9A     -1.254200
      10A     -1.202738    11A     -1.021985    12A     -0.992246
      13A     -0.913165    14A     -0.861791    15A     -0.835847
      16A     -0.756375    17A     -0.663906    18A     -0.634984
      19A     -0.630453    20A     -0.625385    21A     -0.621557
      22A     -0.579105    23A     -0.555758    24A     -0.541924
      25A     -0.540694    26A     -0.516829    27A     -0.497825
      28A     -0.489407    29A     -0.461387    30A     -0.453965
      31A     -0.358839    32A     -0.357502

  @DF-RHF Final Energy:  -344.34557242650590

   => Energetics <=

    Nuclear Repulsion Energy =            420.8754652436437027
    One-Electron Energy =               -1300.6558736930521718
    Two-Electron Energy =                 535.4348360229025729
    Total Energy =                       -344.3455724265058961
  Basis Set: (AUG-CC-PVTZ AUX)
    Blend: AUG-CC-PVTZ-RI
    Molecular point group: c1

    Geometry (in Angstrom), charge = 0, multiplicity = 1:

       Center              X                  Y                   Z               Mass
    ------------   -----------------  -----------------  -----------------  -----------------
         N           -1.388417584639     0.000716162922    -0.338874376931    14.003074004430
         N            1.389178415361     0.000716162922     0.339574623069    14.003074004430
         C            0.734812415361    -1.190083837078    -0.192857376931    12.000000000000
         C           -0.734051584639    -1.190082837078     0.193556623069    12.000000000000
         C            0.734813415361     1.191517162922    -0.192856376931    12.000000000000
         C           -0.734052584639     1.191517162922     0.193556623069    12.000000000000
         C           -2.807168584639     0.000715162922    -0.014523376931    12.000000000000
         C            2.807928415361     0.000715162922     0.015221623069    12.000000000000
         H            0.818264415361    -1.243917837078    -1.295388376931     1.007825032230
         H            1.227768415361    -2.075190837078     0.226712623069     1.007825032230
         H            1.227769415361     2.076624162922     0.226713623069     1.007825032230
         H            0.818264415361     1.245352162922    -1.295387376931     1.007825032230
         H           -1.227007584639    -2.075190837078    -0.226011376931     1.007825032230
         H           -0.817503584639    -1.243917837078     1.296087623069     1.007825032230
         H           -0.817502584639     1.245351162922     1.296087623069     1.007825032230
         H           -1.227008584639     2.076624162922    -0.226012376931     1.007825032230
         H           -3.278188584639     0.887817162922    -0.447670376931     1.007825032230
         H           -2.998096584639     0.000715162922     1.074035623069     1.007825032230
         H           -3.278188584639    -0.886386837078    -0.447669376931     1.007825032230
         H            2.998855415361     0.000715162922    -1.073338376931     1.007825032230
         H            3.278949415361    -0.886386837078     0.448366623069     1.007825032230
         H            3.235888015361     0.806715362922     0.408767023069     1.007825032230

  Basis Set: AUG-CC-PVTZ
    Blend: AUG-CC-PVTZ
  Basis Set: (AUG-CC-PVTZ AUX)
    Blend: AUG-CC-PVTZ-JKFIT
	 Reference Energy          =    -344.3455724265058961 [Eh]
	 Singles Energy            =      -0.0000000000000000 [Eh]
	 Same-Spin Energy          =      -0.3689070919646132 [Eh]
	 Opposite-Spin Energy      =      -1.2698627401974409 [Eh]
	 Correlation Energy        =      -1.6387698321620543 [Eh]
	 Total Energy              =    -345.9843422586679367 [Eh]

	 ================> DF-SCS-MP2 Energies <==================
	-----------------------------------------------------------
	 SCS Same-Spin Scale       =       0.3333333333333333 [-]
	 SCS Opposite-Spin Scale   =       1.2000000000000000 [-]
	 SCS Same-Spin Energy      =      -0.1229690306548711 [Eh]
	 SCS Opposite-Spin Energy  =      -1.5238352882369290 [Eh]
	 SCS Correlation Energy    =      -1.6468043188918000 [Eh]
	 SCS Total Energy          =    -345.9923767453976780 [Eh]
	-----------------------------------------------------------

  Dipole Moment: [D]
     X:     0.0479      Y:     0.0377      Z:     0.0150     Total:     0.0628

*** Psi4 exiting successfully. Buy a developer a beer!
