                               Psi4 1.4a3.dev225

  ==> Input File <==

--------------------------------------------------------------------------
#psi4
#
memory 32 gb

molecule  {
0 1
  N       -1.3887980     0.0000000    -0.3392240
  N        1.3887980     0.0000000     0.3392250
  C        0.7344320    -1.1908000    -0.1932070
  C       -0.7344320    -1.1907990     0.1932070
  C        0.7344330     1.1908010    -0.1932060
  C       -0.7344330     1.1908010     0.1932070
  C       -2.8075490    -0.0000010    -0.0148730
  C        2.8075480    -0.0000010     0.0148720
  H        0.8178840    -1.2446340    -1.2957380
  H        1.2273880    -2.0759070     0.2263630
  H        1.2184881     2.0634147     0.2614311
  H        0.8178840     1.2446360    -1.2957370
  H       -1.2273880    -2.0759070    -0.2263610
  H       -0.8178840    -1.2446340     1.2957380
  H       -0.8178830     1.2446350     1.2957380
  H       -1.2273890     2.0759080    -0.2263620
  H       -3.2785690     0.8871010    -0.4480200
  H       -2.9984770    -0.0000010     1.0736860
  H       -3.2785690    -0.8871030    -0.4480190
  H        2.9984750    -0.0000010    -1.0736880
  H        3.2785690    -0.8871030     0.4480170
  H        3.2785700     0.8871010     0.4480170
units angstrom
no_reorient  #important for SAPT in psi4, default
symmetry c1  #important for SAPT in psi4, default
}

set PROPERTIES_ORIGIN ["COM"]
properties('MP2/aug-cc-pvtz', properties = ['dipole'])
--------------------------------------------------------------------------

    Molecular point group: c1
  Charge       = 0
  Multiplicity = 1
  Basis Set: AUG-CC-PVTZ
    Blend: AUG-CC-PVTZ
  Basis Set: (AUG-CC-PVTZ AUX)
    Blend: AUG-CC-PVTZ-JKFIT

    Orbital Energies [Eh]
    ---------------------

    Doubly Occupied:

       1A    -15.544957     2A    -15.544786     3A    -11.242902
       4A    -11.242860     5A    -11.242241     6A    -11.242208
       7A    -11.240081     8A    -11.240064     9A     -1.254489
      10A     -1.202712    11A     -1.022454    12A     -0.988881
      13A     -0.906941    14A     -0.861848    15A     -0.833184
      16A     -0.756177    17A     -0.662940    18A     -0.633129
      19A     -0.627675    20A     -0.625580    21A     -0.621143
      22A     -0.579649    23A     -0.547734    24A     -0.541115
      25A     -0.540160    26A     -0.516894    27A     -0.495836
      28A     -0.489423    29A     -0.460846    30A     -0.453934
      31A     -0.359276    32A     -0.357935

  @DF-RHF Final Energy:  -344.35136474631912

   => Energetics <=

    Nuclear Repulsion Energy =            420.4255525691618800
    One-Electron Energy =               -1299.7937327309223292
    Two-Electron Energy =                 535.0168154154413287
    Total Energy =                       -344.3513647463190637
  Basis Set: (AUG-CC-PVTZ AUX)
    Blend: AUG-CC-PVTZ-RI
    Molecular point group: c1

    Geometry (in Angstrom), charge = 0, multiplicity = 1:

       Center              X                  Y                   Z               Mass
    ------------   -----------------  -----------------  -----------------  -----------------
         N           -1.388719285590     0.000110239594    -0.339533803902    14.003074004430
         N            1.388876714410     0.000110239594     0.338915196098    14.003074004430
         C            0.734510714410    -1.190689760406    -0.193516803902    12.000000000000
         C           -0.734353285590    -1.190688760406     0.192897196098    12.000000000000
         C            0.734511714410     1.190911239594    -0.193515803902    12.000000000000
         C           -0.734354285590     1.190911239594     0.192897196098    12.000000000000
         C           -2.807470285590     0.000109239594    -0.015182803902    12.000000000000
         C            2.807626714410     0.000109239594     0.014562196098    12.000000000000
         H            0.817962714410    -1.244523760406    -1.296047803902     1.007825032230
         H            1.227466714410    -2.075796760406     0.226053196098     1.007825032230
         H            1.218566814410     2.063524939594     0.261121296098     1.007825032230
         H            0.817962714410     1.244746239594    -1.296046803902     1.007825032230
         H           -1.227309285590    -2.075796760406    -0.226670803902     1.007825032230
         H           -0.817805285590    -1.244523760406     1.295428196098     1.007825032230
         H           -0.817804285590     1.244745239594     1.295428196098     1.007825032230
         H           -1.227310285590     2.076018239594    -0.226671803902     1.007825032230
         H           -3.278490285590     0.887211239594    -0.448329803902     1.007825032230
         H           -2.998398285590     0.000109239594     1.073376196098     1.007825032230
         H           -3.278490285590    -0.886992760406    -0.448328803902     1.007825032230
         H            2.998553714410     0.000109239594    -1.073997803902     1.007825032230
         H            3.278647714410    -0.886992760406     0.447707196098     1.007825032230
         H            3.278648714410     0.887211239594     0.447707196098     1.007825032230

  Basis Set: AUG-CC-PVTZ
    Blend: AUG-CC-PVTZ
  Basis Set: (AUG-CC-PVTZ AUX)
    Blend: AUG-CC-PVTZ-JKFIT
	 Reference Energy          =    -344.3513647463191205 [Eh]
	 Singles Energy            =      -0.0000000000000000 [Eh]
	 Same-Spin Energy          =      -0.3689588788716177 [Eh]
	 Opposite-Spin Energy      =      -1.2704446433265910 [Eh]
	 Correlation Energy        =      -1.6394035221982088 [Eh]
	 Total Energy              =    -345.9907682685173427 [Eh]

	 ================> DF-SCS-MP2 Energies <==================
	-----------------------------------------------------------
	 SCS Same-Spin Scale       =       0.3333333333333333 [-]
	 SCS Opposite-Spin Scale   =       1.2000000000000000 [-]
	 SCS Same-Spin Energy      =      -0.1229862929572059 [Eh]
	 SCS Opposite-Spin Energy  =      -1.5245335719919091 [Eh]
	 SCS Correlation Energy    =      -1.6475198649491150 [Eh]
	 SCS Total Energy          =    -345.9988846112682381 [Eh]
	-----------------------------------------------------------

  Dipole Moment: [D]
     X:    -0.0045      Y:    -0.0027      Z:     0.0068     Total:     0.0085

*** Psi4 exiting successfully. Buy a developer a beer!
