                               Psi4 1.4a3.dev225

  ==> Input File <==

--------------------------------------------------------------------------
#psi4
#
memory 32 gb

molecule  {
0 1
  N       -1.3887980     0.0000000    -0.3392240
  N        1.3887980     0.0000000     0.3392250
  C        0.7344320    -1.1908000    -0.1932070
  C       -0.7344320    -1.1907990     0.1932070
  C        0.7344330     1.1908010    -0.1932060
  C       -0.7344330     1.1908010     0.1932070
  C       -2.8562914    -0.0000010    -0.0037296
  C        2.8075480    -0.0000010     0.0148720
  H        0.8178840    -1.2446340    -1.2957380
  H        1.2273880    -2.0759070     0.2263630
  H        1.2273890     2.0759080     0.2263640
  H        0.8178840     1.2446360    -1.2957370
  H       -1.2273880    -2.0759070    -0.2263610
  H       -0.8178840    -1.2446340     1.2957380
  H       -0.8178830     1.2446350     1.2957380
  H       -1.2273890     2.0759080    -0.2263620
  H       -3.2785690     0.8871010    -0.4480200
  H       -2.9984770    -0.0000010     1.0736860
  H       -3.2785690    -0.8871030    -0.4480190
  H        2.9984750    -0.0000010    -1.0736880
  H        3.2785690    -0.8871030     0.4480170
  H        3.2785700     0.8871010     0.4480170
units angstrom
no_reorient  #important for SAPT in psi4, default
symmetry c1  #important for SAPT in psi4, default
}

set PROPERTIES_ORIGIN ["COM"]
properties('MP2/aug-cc-pvtz', properties = ['dipole'])
--------------------------------------------------------------------------

    Molecular point group: c1
  Charge       = 0
  Multiplicity = 1
  Basis Set: AUG-CC-PVTZ
    Blend: AUG-CC-PVTZ
  Basis Set: (AUG-CC-PVTZ AUX)
    Blend: AUG-CC-PVTZ-JKFIT

    Orbital Energies [Eh]
    ---------------------

    Doubly Occupied:

       1A    -15.544589     2A    -15.544311     3A    -11.242034
       4A    -11.242018     5A    -11.241248     6A    -11.241237
       7A    -11.239545     8A    -11.239292     9A     -1.250240
      10A     -1.195762    11A     -1.021024    12A     -0.986091
      13A     -0.909470    14A     -0.860073    15A     -0.833744
      16A     -0.754779    17A     -0.659938    18A     -0.630371
      19A     -0.626443    20A     -0.624151    21A     -0.620325
      22A     -0.575779    23A     -0.552431    24A     -0.541493
      25A     -0.540350    26A     -0.518770    27A     -0.498345
      28A     -0.488841    29A     -0.460928    30A     -0.449299
      31A     -0.358560    32A     -0.356543

  @DF-RHF Final Energy:  -344.34931195982489

   => Energetics <=

    Nuclear Repulsion Energy =            419.4379831185394210
    One-Electron Energy =               -1297.8785396573196067
    Two-Electron Energy =                 534.0912445789551839
    Total Energy =                       -344.3493119598249450
  Basis Set: (AUG-CC-PVTZ AUX)
    Blend: AUG-CC-PVTZ-RI
    Molecular point group: c1

    Geometry (in Angstrom), charge = 0, multiplicity = 1:

       Center              X                  Y                   Z               Mass
    ------------   -----------------  -----------------  -----------------  -----------------
         N           -1.383672317838    -0.000000096325    -0.340395905261    14.003074004430
         N            1.393923682162    -0.000000096325     0.338053094739    14.003074004430
         C            0.739557682162    -1.190800096325    -0.194378905261    12.000000000000
         C           -0.729306317838    -1.190799096325     0.192035094739    12.000000000000
         C            0.739558682162     1.190800903675    -0.194377905261    12.000000000000
         C           -0.729307317838     1.190800903675     0.192035094739    12.000000000000
         C           -2.851165717838    -0.000001096325    -0.004901505261    12.000000000000
         C            2.812673682162    -0.000001096325     0.013700094739    12.000000000000
         H            0.823009682162    -1.244634096325    -1.296909905261     1.007825032230
         H            1.232513682162    -2.075907096325     0.225191094739     1.007825032230
         H            1.232514682162     2.075907903675     0.225192094739     1.007825032230
         H            0.823009682162     1.244635903675    -1.296908905261     1.007825032230
         H           -1.222262317838    -2.075907096325    -0.227532905261     1.007825032230
         H           -0.812758317838    -1.244634096325     1.294566094739     1.007825032230
         H           -0.812757317838     1.244634903675     1.294566094739     1.007825032230
         H           -1.222263317838     2.075907903675    -0.227533905261     1.007825032230
         H           -3.273443317838     0.887100903675    -0.449191905261     1.007825032230
         H           -2.993351317838    -0.000001096325     1.072514094739     1.007825032230
         H           -3.273443317838    -0.887103096325    -0.449190905261     1.007825032230
         H            3.003600682162    -0.000001096325    -1.074859905261     1.007825032230
         H            3.283694682162    -0.887103096325     0.446845094739     1.007825032230
         H            3.283695682162     0.887100903675     0.446845094739     1.007825032230

  Basis Set: AUG-CC-PVTZ
    Blend: AUG-CC-PVTZ
  Basis Set: (AUG-CC-PVTZ AUX)
    Blend: AUG-CC-PVTZ-JKFIT
	 Reference Energy          =    -344.3493119598248882 [Eh]
	 Singles Energy            =      -0.0000000000000000 [Eh]
	 Same-Spin Energy          =      -0.3687684191309023 [Eh]
	 Opposite-Spin Energy      =      -1.2707051581657560 [Eh]
	 Correlation Energy        =      -1.6394735772966582 [Eh]
	 Total Energy              =    -345.9887855371215437 [Eh]

	 ================> DF-SCS-MP2 Energies <==================
	-----------------------------------------------------------
	 SCS Same-Spin Scale       =       0.3333333333333333 [-]
	 SCS Opposite-Spin Scale   =       1.2000000000000000 [-]
	 SCS Same-Spin Energy      =      -0.1229228063769674 [Eh]
	 SCS Opposite-Spin Energy  =      -1.5248461897989072 [Eh]
	 SCS Correlation Energy    =      -1.6477689961758746 [Eh]
	 SCS Total Energy          =    -345.9970809560007865 [Eh]
	-----------------------------------------------------------

  Dipole Moment: [D]
     X:    -0.1164      Y:     0.0000      Z:     0.0391     Total:     0.1227

*** Psi4 exiting successfully. Buy a developer a beer!
