                               Psi4 1.4a3.dev225

  ==> Input File <==

--------------------------------------------------------------------------
#psi4
#
memory 32 gb

molecule  {
0 1
  N       -1.3887980     0.0000000    -0.3392240
  N        1.3887980     0.0000000     0.3392250
  C        0.7344320    -1.1908000    -0.1932070
  C       -0.7307381    -1.2135276     0.2063395
  C        0.7344330     1.1908010    -0.1932060
  C       -0.7344330     1.1908010     0.1932070
  C       -2.8075490    -0.0000010    -0.0148730
  C        2.8075480    -0.0000010     0.0148720
  H        0.8178840    -1.2446340    -1.2957380
  H        1.2273880    -2.0759070     0.2263630
  H        1.2273890     2.0759080     0.2263640
  H        0.8178840     1.2446360    -1.2957370
  H       -1.2273880    -2.0759070    -0.2263610
  H       -0.8178840    -1.2446340     1.2957380
  H       -0.8178830     1.2446350     1.2957380
  H       -1.2273890     2.0759080    -0.2263620
  H       -3.2785690     0.8871010    -0.4480200
  H       -2.9984770    -0.0000010     1.0736860
  H       -3.2785690    -0.8871030    -0.4480190
  H        2.9984750    -0.0000010    -1.0736880
  H        3.2785690    -0.8871030     0.4480170
  H        3.2785700     0.8871010     0.4480170
units angstrom
no_reorient  #important for SAPT in psi4, default
symmetry c1  #important for SAPT in psi4, default
}

set PROPERTIES_ORIGIN ["COM"]
properties('MP2/aug-cc-pvtz', properties = ['dipole'])
--------------------------------------------------------------------------

    Molecular point group: c1
  Charge       = 0
  Multiplicity = 1
  Basis Set: AUG-CC-PVTZ
    Blend: AUG-CC-PVTZ
  Basis Set: (AUG-CC-PVTZ AUX)
    Blend: AUG-CC-PVTZ-JKFIT

    Orbital Energies [Eh]
    ---------------------

    Doubly Occupied:

       1A    -15.545284     2A    -15.544561     3A    -11.243003
       4A    -11.242507     5A    -11.241994     6A    -11.241805
       7A    -11.240243     8A    -11.239224     9A     -1.251715
      10A     -1.199832    11A     -1.022485    12A     -0.988437
      13A     -0.905808    14A     -0.861556    15A     -0.832781
      16A     -0.757455    17A     -0.662029    18A     -0.633093
      19A     -0.626858    20A     -0.625250    21A     -0.620464
      22A     -0.578368    23A     -0.547869    24A     -0.540781
      25A     -0.540439    26A     -0.517374    27A     -0.495647
      28A     -0.490535    29A     -0.461058    30A     -0.452638
      31A     -0.359001    32A     -0.358006

  @DF-RHF Final Energy:  -344.35093563357634

   => Energetics <=

    Nuclear Repulsion Energy =            419.9629844358160540
    One-Electron Energy =               -1298.8916393712213448
    Two-Electron Energy =                 534.5777193018290063
    Total Energy =                       -344.3509356335763414
  Basis Set: (AUG-CC-PVTZ AUX)
    Blend: AUG-CC-PVTZ-RI
    Molecular point group: c1

    Geometry (in Angstrom), charge = 0, multiplicity = 1:

       Center              X                  Y                   Z               Mass
    ------------   -----------------  -----------------  -----------------  -----------------
         N           -1.389186332198     0.002389962218    -0.340605071926    14.003074004430
         N            1.388409667802     0.002389962218     0.337843928074    14.003074004430
         C            0.734043667802    -1.188410037782    -0.194588071926    12.000000000000
         C           -0.731126432198    -1.211137637782     0.204958428074    12.000000000000
         C            0.734044667802     1.193190962218    -0.194587071926    12.000000000000
         C           -0.734821332198     1.193190962218     0.191825928074    12.000000000000
         C           -2.807937332198     0.002388962218    -0.016254071926    12.000000000000
         C            2.807159667802     0.002388962218     0.013490928074    12.000000000000
         H            0.817495667802    -1.242244037782    -1.297119071926     1.007825032230
         H            1.226999667802    -2.073517037782     0.224981928074     1.007825032230
         H            1.227000667802     2.078297962218     0.224982928074     1.007825032230
         H            0.817495667802     1.247025962218    -1.297118071926     1.007825032230
         H           -1.227776332198    -2.073517037782    -0.227742071926     1.007825032230
         H           -0.818272332198    -1.242244037782     1.294356928074     1.007825032230
         H           -0.818271332198     1.247024962218     1.294356928074     1.007825032230
         H           -1.227777332198     2.078297962218    -0.227743071926     1.007825032230
         H           -3.278957332198     0.889490962218    -0.449401071926     1.007825032230
         H           -2.998865332198     0.002388962218     1.072304928074     1.007825032230
         H           -3.278957332198    -0.884713037782    -0.449400071926     1.007825032230
         H            2.998086667802     0.002388962218    -1.075069071926     1.007825032230
         H            3.278180667802    -0.884713037782     0.446635928074     1.007825032230
         H            3.278181667802     0.889490962218     0.446635928074     1.007825032230

  Basis Set: AUG-CC-PVTZ
    Blend: AUG-CC-PVTZ
  Basis Set: (AUG-CC-PVTZ AUX)
    Blend: AUG-CC-PVTZ-JKFIT
	 Reference Energy          =    -344.3509356335763414 [Eh]
	 Singles Energy            =      -0.0000000000000000 [Eh]
	 Same-Spin Energy          =      -0.3687950426303599 [Eh]
	 Opposite-Spin Energy      =      -1.2704394597465698 [Eh]
	 Correlation Energy        =      -1.6392345023769297 [Eh]
	 Total Energy              =    -345.9901701359532922 [Eh]

	 ================> DF-SCS-MP2 Energies <==================
	-----------------------------------------------------------
	 SCS Same-Spin Scale       =       0.3333333333333333 [-]
	 SCS Opposite-Spin Scale   =       1.2000000000000000 [-]
	 SCS Same-Spin Energy      =      -0.1229316808767866 [Eh]
	 SCS Opposite-Spin Energy  =      -1.5245273516958837 [Eh]
	 SCS Correlation Energy    =      -1.6474590325726703 [Eh]
	 SCS Total Energy          =    -345.9983946661490108 [Eh]
	-----------------------------------------------------------

  Dipole Moment: [D]
     X:     0.0225      Y:    -0.0473      Z:     0.0303     Total:     0.0605

*** Psi4 exiting successfully. Buy a developer a beer!
