                               Psi4 1.4a3.dev225

  ==> Input File <==

--------------------------------------------------------------------------
#psi4
#
memory 32 gb

molecule  {
0 1
  N       -1.3887980     0.0000000    -0.3392240
  N        1.3887980     0.0000000     0.3392250
  C        0.7344320    -1.1908000    -0.1932070
  C       -0.7344320    -1.1907990     0.1932070
  C        0.7344330     1.1908010    -0.1932060
  C       -0.7344330     1.1908010     0.1932070
  C       -2.8075490    -0.0000010    -0.0148730
  C        2.8075480    -0.0000010     0.0148720
  H        0.8178840    -1.2446340    -1.2957380
  H        1.2273880    -2.0759070     0.2263630
  H        1.2273890     2.0759080     0.2263640
  H        0.8178840     1.2446360    -1.2957370
  H       -1.2273880    -2.0759070    -0.2263610
  H       -0.8178840    -1.2446340     1.2957380
  H       -0.8178830     1.2446350     1.2957380
  H       -1.2273890     2.0759080    -0.2263620
  H       -3.2785690     0.8871010    -0.4480200
  H       -2.9984770    -0.0000010     1.0736860
  H       -3.3001001    -0.9276539    -0.4678188
  H        2.9984750    -0.0000010    -1.0736880
  H        3.2785690    -0.8871030     0.4480170
  H        3.2785700     0.8871010     0.4480170
units angstrom
no_reorient  #important for SAPT in psi4, default
symmetry c1  #important for SAPT in psi4, default
}

set PROPERTIES_ORIGIN ["COM"]
properties('MP2/aug-cc-pvtz', properties = ['dipole'])
--------------------------------------------------------------------------

    Molecular point group: c1
  Charge       = 0
  Multiplicity = 1
  Basis Set: AUG-CC-PVTZ
    Blend: AUG-CC-PVTZ
  Basis Set: (AUG-CC-PVTZ AUX)
    Blend: AUG-CC-PVTZ-JKFIT

    Orbital Energies [Eh]
    ---------------------

    Doubly Occupied:

       1A    -15.545650     2A    -15.545208     3A    -11.246203
       4A    -11.243443     5A    -11.243031     6A    -11.242761
       7A    -11.242385     8A    -11.240246     9A     -1.254728
      10A     -1.202888    11A     -1.022565    12A     -0.987829
      13A     -0.904643    14A     -0.862147    15A     -0.832265
      16A     -0.756890    17A     -0.663158    18A     -0.632579
      19A     -0.626798    20A     -0.625092    21A     -0.620241
      22A     -0.580177    23A     -0.545511    24A     -0.541348
      25A     -0.538768    26A     -0.516255    27A     -0.493940
      28A     -0.488676    29A     -0.461382    30A     -0.454437
      31A     -0.359399    32A     -0.358109

  @DF-RHF Final Energy:  -344.34941765435462

   => Energetics <=

    Nuclear Repulsion Energy =            420.1740272643239109
    One-Electron Energy =               -1299.2893870584412070
    Two-Electron Energy =                 534.7659421397626147
    Total Energy =                       -344.3494176543546246
  Basis Set: (AUG-CC-PVTZ AUX)
    Blend: AUG-CC-PVTZ-RI
    Molecular point group: c1

    Geometry (in Angstrom), charge = 0, multiplicity = 1:

       Center              X                  Y                   Z               Mass
    ------------   -----------------  -----------------  -----------------  -----------------
         N           -1.388607740624     0.000358033298    -0.339049240989    14.003074004430
         N            1.388988259376     0.000358033298     0.339399759011    14.003074004430
         C            0.734622259376    -1.190441966702    -0.193032240989    12.000000000000
         C           -0.734241740624    -1.190440966702     0.193381759011    12.000000000000
         C            0.734623259376     1.191159033298    -0.193031240989    12.000000000000
         C           -0.734242740624     1.191159033298     0.193381759011    12.000000000000
         C           -2.807358740624     0.000357033298    -0.014698240989    12.000000000000
         C            2.807738259376     0.000357033298     0.015046759011    12.000000000000
         H            0.818074259376    -1.244275966702    -1.295563240989     1.007825032230
         H            1.227578259376    -2.075548966702     0.226537759011     1.007825032230
         H            1.227579259376     2.076266033298     0.226538759011     1.007825032230
         H            0.818074259376     1.244994033298    -1.295562240989     1.007825032230
         H           -1.227197740624    -2.075548966702    -0.226186240989     1.007825032230
         H           -0.817693740624    -1.244275966702     1.295912759011     1.007825032230
         H           -0.817692740624     1.244993033298     1.295912759011     1.007825032230
         H           -1.227198740624     2.076266033298    -0.226187240989     1.007825032230
         H           -3.278378740624     0.887459033298    -0.447845240989     1.007825032230
         H           -2.998286740624     0.000357033298     1.073860759011     1.007825032230
         H           -3.299909840624    -0.927295866702    -0.467644040989     1.007825032230
         H            2.998665259376     0.000357033298    -1.073513240989     1.007825032230
         H            3.278759259376    -0.886744966702     0.448191759011     1.007825032230
         H            3.278760259376     0.887459033298     0.448191759011     1.007825032230

  Basis Set: AUG-CC-PVTZ
    Blend: AUG-CC-PVTZ
  Basis Set: (AUG-CC-PVTZ AUX)
    Blend: AUG-CC-PVTZ-JKFIT
	 Reference Energy          =    -344.3494176543546246 [Eh]
	 Singles Energy            =      -0.0000000000000000 [Eh]
	 Same-Spin Energy          =      -0.3689574642948784 [Eh]
	 Opposite-Spin Energy      =      -1.2707270901384122 [Eh]
	 Correlation Energy        =      -1.6396845544332905 [Eh]
	 Total Energy              =    -345.9891022087879264 [Eh]

	 ================> DF-SCS-MP2 Energies <==================
	-----------------------------------------------------------
	 SCS Same-Spin Scale       =       0.3333333333333333 [-]
	 SCS Opposite-Spin Scale   =       1.2000000000000000 [-]
	 SCS Same-Spin Energy      =      -0.1229858214316261 [Eh]
	 SCS Opposite-Spin Energy  =      -1.5248725081660945 [Eh]
	 SCS Correlation Energy    =      -1.6478583295977207 [Eh]
	 SCS Total Energy          =    -345.9972759839523633 [Eh]
	-----------------------------------------------------------

  Dipole Moment: [D]
     X:     0.0292      Y:     0.0237      Z:     0.0100     Total:     0.0390

*** Psi4 exiting successfully. Buy a developer a beer!
