                               Psi4 1.4a3.dev225

  ==> Input File <==

--------------------------------------------------------------------------
#psi4
#
memory 32 gb

molecule  {
0 1
  N       -1.3887980     0.0000000    -0.3392240
  N        1.4753748     0.0330144     0.2969153
  C        0.7344320    -1.1908000    -0.1932070
  C       -0.7344320    -1.1907990     0.1932070
  C        0.7344330     1.1908010    -0.1932060
  C       -0.7344330     1.1908010     0.1932070
  C       -2.8075490    -0.0000010    -0.0148730
  C        2.8075480    -0.0000010     0.0148720
  H        0.8178840    -1.2446340    -1.2957380
  H        1.2273880    -2.0759070     0.2263630
  H        1.2273890     2.0759080     0.2263640
  H        0.8178840     1.2446360    -1.2957370
  H       -1.2273880    -2.0759070    -0.2263610
  H       -0.8178840    -1.2446340     1.2957380
  H       -0.8178830     1.2446350     1.2957380
  H       -1.2273890     2.0759080    -0.2263620
  H       -3.2785690     0.8871010    -0.4480200
  H       -2.9984770    -0.0000010     1.0736860
  H       -3.2785690    -0.8871030    -0.4480190
  H        2.9984750    -0.0000010    -1.0736880
  H        3.2785690    -0.8871030     0.4480170
  H        3.2785700     0.8871010     0.4480170
units angstrom
no_reorient  #important for SAPT in psi4, default
symmetry c1  #important for SAPT in psi4, default
}

set PROPERTIES_ORIGIN ["COM"]
properties('MP2/aug-cc-pvtz', properties = ['dipole'])
--------------------------------------------------------------------------

    Molecular point group: c1
  Charge       = 0
  Multiplicity = 1
  Basis Set: AUG-CC-PVTZ
    Blend: AUG-CC-PVTZ
  Basis Set: (AUG-CC-PVTZ AUX)
    Blend: AUG-CC-PVTZ-JKFIT

    Orbital Energies [Eh]
    ---------------------

    Doubly Occupied:

       1A    -15.547096     2A    -15.539353     3A    -11.247508
       4A    -11.246790     5A    -11.246462     6A    -11.243934
       7A    -11.241864     8A    -11.232770     9A     -1.256190
      10A     -1.212149    11A     -1.021760    12A     -0.999669
      13A     -0.908588    14A     -0.862353    15A     -0.830666
      16A     -0.756887    17A     -0.665527    18A     -0.637918
      19A     -0.633351    20A     -0.625802    21A     -0.624727
      22A     -0.589303    23A     -0.549660    24A     -0.546792
      25A     -0.535972    26A     -0.516034    27A     -0.492933
      28A     -0.491431    29A     -0.469408    30A     -0.451865
      31A     -0.360820    32A     -0.346431

  @DF-RHF Final Energy:  -344.34284688130316

   => Energetics <=

    Nuclear Repulsion Energy =            420.0854711630412339
    One-Electron Energy =               -1298.9926123390364410
    Two-Electron Energy =                 534.5642942946921039
    Total Energy =                       -344.3428468813031031
  Basis Set: (AUG-CC-PVTZ AUX)
    Blend: AUG-CC-PVTZ-RI
    Molecular point group: c1

    Geometry (in Angstrom), charge = 0, multiplicity = 1:

       Center              X                  Y                   Z               Mass
    ------------   -----------------  -----------------  -----------------  -----------------
         N           -1.399421685907    -0.004051275020    -0.334032305248    14.003074004430
         N            1.464751114093     0.028963124980     0.302106994752    14.003074004430
         C            0.723808314093    -1.194851275020    -0.188015305248    12.000000000000
         C           -0.745055685907    -1.194850275020     0.198398694752    12.000000000000
         C            0.723809314093     1.186749724980    -0.188014305248    12.000000000000
         C           -0.745056685907     1.186749724980     0.198398694752    12.000000000000
         C           -2.818172685907    -0.004052275020    -0.009681305248    12.000000000000
         C            2.796924314093    -0.004052275020     0.020063694752    12.000000000000
         H            0.807260314093    -1.248685275020    -1.290546305248     1.007825032230
         H            1.216764314093    -2.079958275020     0.231554694752     1.007825032230
         H            1.216765314093     2.071856724980     0.231555694752     1.007825032230
         H            0.807260314093     1.240584724980    -1.290545305248     1.007825032230
         H           -1.238011685907    -2.079958275020    -0.221169305248     1.007825032230
         H           -0.828507685907    -1.248685275020     1.300929694752     1.007825032230
         H           -0.828506685907     1.240583724980     1.300929694752     1.007825032230
         H           -1.238012685907     2.071856724980    -0.221170305248     1.007825032230
         H           -3.289192685907     0.883049724980    -0.442828305248     1.007825032230
         H           -3.009100685907    -0.004052275020     1.078877694752     1.007825032230
         H           -3.289192685907    -0.891154275020    -0.442827305248     1.007825032230
         H            2.987851314093    -0.004052275020    -1.068496305248     1.007825032230
         H            3.267945314093    -0.891154275020     0.453208694752     1.007825032230
         H            3.267946314093     0.883049724980     0.453208694752     1.007825032230

  Basis Set: AUG-CC-PVTZ
    Blend: AUG-CC-PVTZ
  Basis Set: (AUG-CC-PVTZ AUX)
    Blend: AUG-CC-PVTZ-JKFIT
	 Reference Energy          =    -344.3428468813031600 [Eh]
	 Singles Energy            =      -0.0000000000000000 [Eh]
	 Same-Spin Energy          =      -0.3690474343329655 [Eh]
	 Opposite-Spin Energy      =      -1.2698703959486881 [Eh]
	 Correlation Energy        =      -1.6389178302816536 [Eh]
	 Total Energy              =    -345.9817647115847876 [Eh]

	 ================> DF-SCS-MP2 Energies <==================
	-----------------------------------------------------------
	 SCS Same-Spin Scale       =       0.3333333333333333 [-]
	 SCS Opposite-Spin Scale   =       1.2000000000000000 [-]
	 SCS Same-Spin Energy      =      -0.1230158114443218 [Eh]
	 SCS Opposite-Spin Energy  =      -1.5238444751384257 [Eh]
	 SCS Correlation Energy    =      -1.6468602865827475 [Eh]
	 SCS Total Energy          =    -345.9897071678859106 [Eh]
	-----------------------------------------------------------

  Dipole Moment: [D]
     X:    -0.3444      Y:    -0.0882      Z:     0.1599     Total:     0.3898

*** Psi4 exiting successfully. Buy a developer a beer!
