                               Psi4 1.4a3.dev225

  ==> Input File <==

--------------------------------------------------------------------------
#psi4
#
memory 32 gb

molecule  {
0 1
  N       -1.3946748    -0.0000000    -0.3639352
  N        1.3887980     0.0000000     0.3392250
  C        0.7344320    -1.1908000    -0.1932070
  C       -0.7344320    -1.1907990     0.1932070
  C        0.7344330     1.1908010    -0.1932060
  C       -0.7344330     1.1908010     0.1932070
  C       -2.8075490    -0.0000010    -0.0148730
  C        2.8075480    -0.0000010     0.0148720
  H        0.8178840    -1.2446340    -1.2957380
  H        1.2273880    -2.0759070     0.2263630
  H        1.2273890     2.0759080     0.2263640
  H        0.8178840     1.2446360    -1.2957370
  H       -1.2273880    -2.0759070    -0.2263610
  H       -0.8178840    -1.2446340     1.2957380
  H       -0.8178830     1.2446350     1.2957380
  H       -1.2273890     2.0759080    -0.2263620
  H       -3.2785690     0.8871010    -0.4480200
  H       -2.9984770    -0.0000010     1.0736860
  H       -3.2785690    -0.8871030    -0.4480190
  H        2.9984750    -0.0000010    -1.0736880
  H        3.2785690    -0.8871030     0.4480170
  H        3.2785700     0.8871010     0.4480170
units angstrom
no_reorient  #important for SAPT in psi4, default
symmetry c1  #important for SAPT in psi4, default
}

set PROPERTIES_ORIGIN ["COM"]
properties('MP2/aug-cc-pvtz', properties = ['dipole'])
--------------------------------------------------------------------------

    Molecular point group: c1
  Charge       = 0
  Multiplicity = 1
  Basis Set: AUG-CC-PVTZ
    Blend: AUG-CC-PVTZ
  Basis Set: (AUG-CC-PVTZ AUX)
    Blend: AUG-CC-PVTZ-JKFIT

    Orbital Energies [Eh]
    ---------------------

    Doubly Occupied:

       1A    -15.547588     2A    -15.545051     3A    -11.243355
       4A    -11.243339     5A    -11.242548     6A    -11.242538
       7A    -11.240141     8A    -11.239662     9A     -1.252640
      10A     -1.201227    11A     -1.021543    12A     -0.988867
      13A     -0.906078    14A     -0.860305    15A     -0.833201
      16A     -0.757626    17A     -0.662473    18A     -0.631530
      19A     -0.626536    20A     -0.625754    21A     -0.620096
      22A     -0.580336    23A     -0.547368    24A     -0.539674
      25A     -0.539351    26A     -0.516765    27A     -0.495253
      28A     -0.488892    29A     -0.458326    30A     -0.453852
      31A     -0.363249    32A     -0.358547

  @DF-RHF Final Energy:  -344.35038797074469

   => Energetics <=

    Nuclear Repulsion Energy =            420.0117002596529687
    One-Electron Energy =               -1298.9767557354598466
    Two-Electron Energy =                 534.6146675050621297
    Total Energy =                       -344.3503879707446913
  Basis Set: (AUG-CC-PVTZ AUX)
    Blend: AUG-CC-PVTZ-RI
    Molecular point group: c1

    Geometry (in Angstrom), charge = 0, multiplicity = 1:

       Center              X                  Y                   Z               Mass
    ------------   -----------------  -----------------  -----------------  -----------------
         N           -1.393953555978    -0.000000096325    -0.360903007413    14.003074004430
         N            1.389519244022    -0.000000096325     0.342257192587    14.003074004430
         C            0.735153244022    -1.190800096325    -0.190174807413    12.000000000000
         C           -0.733710755978    -1.190799096325     0.196239192587    12.000000000000
         C            0.735154244022     1.190800903675    -0.190173807413    12.000000000000
         C           -0.733711755978     1.190800903675     0.196239192587    12.000000000000
         C           -2.806827755978    -0.000001096325    -0.011840807413    12.000000000000
         C            2.808269244022    -0.000001096325     0.017904192587    12.000000000000
         H            0.818605244022    -1.244634096325    -1.292705807413     1.007825032230
         H            1.228109244022    -2.075907096325     0.229395192587     1.007825032230
         H            1.228110244022     2.075907903675     0.229396192587     1.007825032230
         H            0.818605244022     1.244635903675    -1.292704807413     1.007825032230
         H           -1.226666755978    -2.075907096325    -0.223328807413     1.007825032230
         H           -0.817162755978    -1.244634096325     1.298770192587     1.007825032230
         H           -0.817161755978     1.244634903675     1.298770192587     1.007825032230
         H           -1.226667755978     2.075907903675    -0.223329807413     1.007825032230
         H           -3.277847755978     0.887100903675    -0.444987807413     1.007825032230
         H           -2.997755755978    -0.000001096325     1.076718192587     1.007825032230
         H           -3.277847755978    -0.887103096325    -0.444986807413     1.007825032230
         H            2.999196244022    -0.000001096325    -1.070655807413     1.007825032230
         H            3.279290244022    -0.887103096325     0.451049192587     1.007825032230
         H            3.279291244022     0.887100903675     0.451049192587     1.007825032230

  Basis Set: AUG-CC-PVTZ
    Blend: AUG-CC-PVTZ
  Basis Set: (AUG-CC-PVTZ AUX)
    Blend: AUG-CC-PVTZ-JKFIT
	 Reference Energy          =    -344.3503879707446913 [Eh]
	 Singles Energy            =      -0.0000000000000000 [Eh]
	 Same-Spin Energy          =      -0.3689715982232379 [Eh]
	 Opposite-Spin Energy      =      -1.2708522081929936 [Eh]
	 Correlation Energy        =      -1.6398238064162314 [Eh]
	 Total Energy              =    -345.9902117771609369 [Eh]

	 ================> DF-SCS-MP2 Energies <==================
	-----------------------------------------------------------
	 SCS Same-Spin Scale       =       0.3333333333333333 [-]
	 SCS Opposite-Spin Scale   =       1.2000000000000000 [-]
	 SCS Same-Spin Energy      =      -0.1229905327410793 [Eh]
	 SCS Opposite-Spin Energy  =      -1.5250226498315922 [Eh]
	 SCS Correlation Energy    =      -1.6480131825726714 [Eh]
	 SCS Total Energy          =    -345.9984011533173884 [Eh]
	-----------------------------------------------------------

  Dipole Moment: [D]
     X:     0.0179      Y:     0.0000      Z:     0.0734     Total:     0.0755

*** Psi4 exiting successfully. Buy a developer a beer!
