                               Psi4 1.4a3.dev225

  ==> Input File <==

--------------------------------------------------------------------------
#psi4
#
memory 32 gb

molecule  {
0 1
  N       -1.3887980     0.0000000    -0.3392240
  N        1.3887980     0.0000000     0.3392250
  C        0.7344320    -1.1908000    -0.1932070
  C       -0.7344320    -1.1907990     0.1932070
  C        0.7344330     1.1908010    -0.1932060
  C       -0.7344330     1.1908010     0.1932070
  C       -2.8075490    -0.0000010    -0.0148730
  C        2.8075480    -0.0000010     0.0148720
  H        0.8178840    -1.2446340    -1.2957380
  H        1.2273880    -2.0759070     0.2263630
  H        1.2363799     2.0920512     0.2340164
  H        0.8178840     1.2446360    -1.2957370
  H       -1.2273880    -2.0759070    -0.2263610
  H       -0.8178840    -1.2446340     1.2957380
  H       -0.8178830     1.2446350     1.2957380
  H       -1.2273890     2.0759080    -0.2263620
  H       -3.2785690     0.8871010    -0.4480200
  H       -2.9984770    -0.0000010     1.0736860
  H       -3.2785690    -0.8871030    -0.4480190
  H        2.9984750    -0.0000010    -1.0736880
  H        3.2785690    -0.8871030     0.4480170
  H        3.2785700     0.8871010     0.4480170
units angstrom
no_reorient  #important for SAPT in psi4, default
symmetry c1  #important for SAPT in psi4, default
}

set PROPERTIES_ORIGIN ["COM"]
properties('MP2/aug-cc-pvtz', properties = ['dipole'])
--------------------------------------------------------------------------

    Molecular point group: c1
  Charge       = 0
  Multiplicity = 1
  Basis Set: AUG-CC-PVTZ
    Blend: AUG-CC-PVTZ
  Basis Set: (AUG-CC-PVTZ AUX)
    Blend: AUG-CC-PVTZ-JKFIT

    Orbital Energies [Eh]
    ---------------------

    Doubly Occupied:

       1A    -15.545266     2A    -15.545190     3A    -11.245159
       4A    -11.243138     5A    -11.242768     6A    -11.242488
       7A    -11.240226     8A    -11.240112     9A     -1.254590
      10A     -1.202845    11A     -1.021894    12A     -0.988844
      13A     -0.906991    14A     -0.861290    15A     -0.833025
      16A     -0.756535    17A     -0.662660    18A     -0.631413
      19A     -0.627778    20A     -0.625496    21A     -0.621245
      22A     -0.579869    23A     -0.547236    24A     -0.541178
      25A     -0.540159    26A     -0.516394    27A     -0.495168
      28A     -0.489381    29A     -0.460889    30A     -0.454197
      31A     -0.359298    32A     -0.357995

  @DF-RHF Final Energy:  -344.35098095136533

   => Energetics <=

    Nuclear Repulsion Energy =            420.2895861501031618
    One-Electron Energy =               -1299.5196953383824621
    Two-Electron Energy =                 534.8791282369140845
    Total Energy =                       -344.3509809513652726
  Basis Set: (AUG-CC-PVTZ AUX)
    Blend: AUG-CC-PVTZ-RI
    Molecular point group: c1

    Geometry (in Angstrom), charge = 0, multiplicity = 1:

       Center              X                  Y                   Z               Mass
    ------------   -----------------  -----------------  -----------------  -----------------
         N           -1.388877298941    -0.000142666727    -0.339291688038    14.003074004430
         N            1.388718701059    -0.000142666727     0.339157311962    14.003074004430
         C            0.734352701059    -1.190942666727    -0.193274688038    12.000000000000
         C           -0.734511298941    -1.190941666727     0.193139311962    12.000000000000
         C            0.734353701059     1.190658333273    -0.193273688038    12.000000000000
         C           -0.734512298941     1.190658333273     0.193139311962    12.000000000000
         C           -2.807628298941    -0.000143666727    -0.014940688038    12.000000000000
         C            2.807468701059    -0.000143666727     0.014804311962    12.000000000000
         H            0.817804701059    -1.244776666727    -1.295805688038     1.007825032230
         H            1.227308701059    -2.076049666727     0.226295311962     1.007825032230
         H            1.236300601059     2.091908533273     0.233948711962     1.007825032230
         H            0.817804701059     1.244493333273    -1.295804688038     1.007825032230
         H           -1.227467298941    -2.076049666727    -0.226428688038     1.007825032230
         H           -0.817963298941    -1.244776666727     1.295670311962     1.007825032230
         H           -0.817962298941     1.244492333273     1.295670311962     1.007825032230
         H           -1.227468298941     2.075765333273    -0.226429688038     1.007825032230
         H           -3.278648298941     0.886958333273    -0.448087688038     1.007825032230
         H           -2.998556298941    -0.000143666727     1.073618311962     1.007825032230
         H           -3.278648298941    -0.887245666727    -0.448086688038     1.007825032230
         H            2.998395701059    -0.000143666727    -1.073755688038     1.007825032230
         H            3.278489701059    -0.887245666727     0.447949311962     1.007825032230
         H            3.278490701059     0.886958333273     0.447949311962     1.007825032230

  Basis Set: AUG-CC-PVTZ
    Blend: AUG-CC-PVTZ
  Basis Set: (AUG-CC-PVTZ AUX)
    Blend: AUG-CC-PVTZ-JKFIT
	 Reference Energy          =    -344.3509809513653295 [Eh]
	 Singles Energy            =      -0.0000000000000000 [Eh]
	 Same-Spin Energy          =      -0.3689546499109618 [Eh]
	 Opposite-Spin Energy      =      -1.2705218801878546 [Eh]
	 Correlation Energy        =      -1.6394765300988166 [Eh]
	 Total Energy              =    -345.9904574814641478 [Eh]

	 ================> DF-SCS-MP2 Energies <==================
	-----------------------------------------------------------
	 SCS Same-Spin Scale       =       0.3333333333333333 [-]
	 SCS Opposite-Spin Scale   =       1.2000000000000000 [-]
	 SCS Same-Spin Energy      =      -0.1229848833036539 [Eh]
	 SCS Opposite-Spin Energy  =      -1.5246262562254256 [Eh]
	 SCS Correlation Energy    =      -1.6476111395290796 [Eh]
	 SCS Total Energy          =    -345.9985920908944195 [Eh]
	-----------------------------------------------------------

  Dipole Moment: [D]
     X:    -0.0073      Y:    -0.0138      Z:    -0.0023     Total:     0.0158

*** Psi4 exiting successfully. Buy a developer a beer!
