                               Psi4 1.4a3.dev225

  ==> Input File <==

--------------------------------------------------------------------------
#psi4
#
memory 32 gb

molecule  {
0 1
  N       -1.3887980     0.0000000    -0.3392240
  N        1.3887980     0.0000000     0.3392250
  C        0.7344320    -1.1908000    -0.1932070
  C       -0.7344320    -1.1907990     0.1932070
  C        0.7344330     1.1908010    -0.1932060
  C       -0.7344330     1.1908010     0.1932070
  C       -2.8075490    -0.0000010    -0.0148730
  C        2.8075480    -0.0000010     0.0148720
  H        0.8178840    -1.2446340    -1.2957380
  H        1.2273880    -2.0759070     0.2263630
  H        1.2273890     2.0759080     0.2263640
  H        0.8178840     1.2446360    -1.2957370
  H       -1.2049108    -2.0355489    -0.2072300
  H       -0.8178840    -1.2446340     1.2957380
  H       -0.8178830     1.2446350     1.2957380
  H       -1.2273890     2.0759080    -0.2263620
  H       -3.2785690     0.8871010    -0.4480200
  H       -2.9984770    -0.0000010     1.0736860
  H       -3.2785690    -0.8871030    -0.4480190
  H        2.9984750    -0.0000010    -1.0736880
  H        3.2785690    -0.8871030     0.4480170
  H        3.2785700     0.8871010     0.4480170
units angstrom
no_reorient  #important for SAPT in psi4, default
symmetry c1  #important for SAPT in psi4, default
}

set PROPERTIES_ORIGIN ["COM"]
properties('MP2/aug-cc-pvtz', properties = ['dipole'])
--------------------------------------------------------------------------

    Molecular point group: c1
  Charge       = 0
  Multiplicity = 1
  Basis Set: AUG-CC-PVTZ
    Blend: AUG-CC-PVTZ
  Basis Set: (AUG-CC-PVTZ AUX)
    Blend: AUG-CC-PVTZ-JKFIT

    Orbital Energies [Eh]
    ---------------------

    Doubly Occupied:

       1A    -15.544708     2A    -15.544529     3A    -11.242606
       4A    -11.242294     5A    -11.241934     6A    -11.240122
       7A    -11.239853     8A    -11.236359     9A     -1.254305
      10A     -1.202548    11A     -1.023719    12A     -0.988993
      13A     -0.906979    14A     -0.864123    15A     -0.834132
      16A     -0.757152    17A     -0.664920    18A     -0.635356
      19A     -0.627470    20A     -0.625044    21A     -0.620825
      22A     -0.579498    23A     -0.548673    24A     -0.542903
      25A     -0.540835    26A     -0.516665    27A     -0.496001
      28A     -0.488877    29A     -0.462671    30A     -0.454348
      31A     -0.358906    32A     -0.357609

  @DF-RHF Final Energy:  -344.35073398549247

   => Energetics <=

    Nuclear Repulsion Energy =            420.6645588927863173
    One-Electron Energy =               -1300.2606710953773472
    Two-Electron Energy =                 535.2453782170985050
    Total Energy =                       -344.3507339854925249
  Basis Set: (AUG-CC-PVTZ AUX)
    Blend: AUG-CC-PVTZ-RI
    Molecular point group: c1

    Geometry (in Angstrom), charge = 0, multiplicity = 1:

       Center              X                  Y                   Z               Mass
    ------------   -----------------  -----------------  -----------------  -----------------
         N           -1.388996404647    -0.000356523214    -0.339393062525    14.003074004430
         N            1.388599595353    -0.000356523214     0.339055937475    14.003074004430
         C            0.734233595353    -1.191156523214    -0.193376062525    12.000000000000
         C           -0.734630404647    -1.191155523214     0.193037937475    12.000000000000
         C            0.734234595353     1.190444476786    -0.193375062525    12.000000000000
         C           -0.734631404647     1.190444476786     0.193037937475    12.000000000000
         C           -2.807747404647    -0.000357523214    -0.015042062525    12.000000000000
         C            2.807349595353    -0.000357523214     0.014702937475    12.000000000000
         H            0.817685595353    -1.244990523214    -1.295907062525     1.007825032230
         H            1.227189595353    -2.076263523214     0.226193937475     1.007825032230
         H            1.227190595353     2.075551476786     0.226194937475     1.007825032230
         H            0.817685595353     1.244279476786    -1.295906062525     1.007825032230
         H           -1.205109204647    -2.035905423214    -0.207399062525     1.007825032230
         H           -0.818082404647    -1.244990523214     1.295568937475     1.007825032230
         H           -0.818081404647     1.244278476786     1.295568937475     1.007825032230
         H           -1.227587404647     2.075551476786    -0.226531062525     1.007825032230
         H           -3.278767404647     0.886744476786    -0.448189062525     1.007825032230
         H           -2.998675404647    -0.000357523214     1.073516937475     1.007825032230
         H           -3.278767404647    -0.887459523214    -0.448188062525     1.007825032230
         H            2.998276595353    -0.000357523214    -1.073857062525     1.007825032230
         H            3.278370595353    -0.887459523214     0.447847937475     1.007825032230
         H            3.278371595353     0.886744476786     0.447847937475     1.007825032230

  Basis Set: AUG-CC-PVTZ
    Blend: AUG-CC-PVTZ
  Basis Set: (AUG-CC-PVTZ AUX)
    Blend: AUG-CC-PVTZ-JKFIT
	 Reference Energy          =    -344.3507339854924680 [Eh]
	 Singles Energy            =      -0.0000000000000000 [Eh]
	 Same-Spin Energy          =      -0.3688809315866090 [Eh]
	 Opposite-Spin Energy      =      -1.2700418250778311 [Eh]
	 Correlation Energy        =      -1.6389227566644400 [Eh]
	 Total Energy              =    -345.9896567421569102 [Eh]

	 ================> DF-SCS-MP2 Energies <==================
	-----------------------------------------------------------
	 SCS Same-Spin Scale       =       0.3333333333333333 [-]
	 SCS Opposite-Spin Scale   =       1.2000000000000000 [-]
	 SCS Same-Spin Energy      =      -0.1229603105288696 [Eh]
	 SCS Opposite-Spin Energy  =      -1.5240501900933974 [Eh]
	 SCS Correlation Energy    =      -1.6470105006222671 [Eh]
	 SCS Total Energy          =    -345.9977444861147546 [Eh]
	-----------------------------------------------------------

  Dipole Moment: [D]
     X:    -0.0166      Y:    -0.0311      Z:    -0.0049     Total:     0.0356

*** Psi4 exiting successfully. Buy a developer a beer!
