                               Psi4 1.4a3.dev225

  ==> Input File <==

--------------------------------------------------------------------------
#psi4
#
memory 32 gb

molecule  {
0 1
  N       -1.5173350    -0.0516480    -0.2748505
  N        1.3887980     0.0000000     0.3392250
  C        0.7344320    -1.1908000    -0.1932070
  C       -0.7344320    -1.1907990     0.1932070
  C        0.7344330     1.1908010    -0.1932060
  C       -0.7344330     1.1908010     0.1932070
  C       -2.8075490    -0.0000010    -0.0148730
  C        2.8075480    -0.0000010     0.0148720
  H        0.8178840    -1.2446340    -1.2957380
  H        1.2273880    -2.0759070     0.2263630
  H        1.2273890     2.0759080     0.2263640
  H        0.8178840     1.2446360    -1.2957370
  H       -1.2273880    -2.0759070    -0.2263610
  H       -0.8178840    -1.2446340     1.2957380
  H       -0.8178830     1.2446350     1.2957380
  H       -1.2273890     2.0759080    -0.2263620
  H       -3.2785690     0.8871010    -0.4480200
  H       -2.9984770    -0.0000010     1.0736860
  H       -3.2785690    -0.8871030    -0.4480190
  H        2.9984750    -0.0000010    -1.0736880
  H        3.2785690    -0.8871030     0.4480170
  H        3.2785700     0.8871010     0.4480170
units angstrom
no_reorient  #important for SAPT in psi4, default
symmetry c1  #important for SAPT in psi4, default
}

set PROPERTIES_ORIGIN ["COM"]
properties('MP2/aug-cc-pvtz', properties = ['dipole'])
--------------------------------------------------------------------------

    Molecular point group: c1
  Charge       = 0
  Multiplicity = 1
  Basis Set: AUG-CC-PVTZ
    Blend: AUG-CC-PVTZ
  Basis Set: (AUG-CC-PVTZ AUX)
    Blend: AUG-CC-PVTZ-JKFIT

    Orbital Energies [Eh]
    ---------------------

    Doubly Occupied:

       1A    -15.548272     2A    -15.536609     3A    -11.249901
       4A    -11.249069     5A    -11.248564     6A    -11.245234
       7A    -11.242849     8A    -11.228948     9A     -1.258962
      10A     -1.218010    11A     -1.022000    12A     -1.004990
      13A     -0.909902    14A     -0.862738    15A     -0.828824
      16A     -0.757152    17A     -0.667093    18A     -0.641520
      19A     -0.636507    20A     -0.627741    21A     -0.625605
      22A     -0.594166    23A     -0.551915    24A     -0.549211
      25A     -0.534701    26A     -0.516062    27A     -0.492702
      28A     -0.492101    29A     -0.475226    30A     -0.444537
      31A     -0.362055    32A     -0.339560

  @DF-RHF Final Energy:  -344.32947858652489

   => Energetics <=

    Nuclear Repulsion Energy =            419.9833187379136916
    One-Electron Energy =               -1298.7001392977588239
    Two-Electron Energy =                 534.3873419733203036
    Total Energy =                       -344.3294785865248286
  Basis Set: (AUG-CC-PVTZ AUX)
    Blend: AUG-CC-PVTZ-RI
    Molecular point group: c1

    Geometry (in Angstrom), charge = 0, multiplicity = 1:

       Center              X                  Y                   Z               Mass
    ------------   -----------------  -----------------  -----------------  -----------------
         N           -1.501562190933    -0.045310398918    -0.282749841493    14.003074004430
         N            1.404570809067     0.006337601082     0.331325658507    14.003074004430
         C            0.750204809067    -1.184462398918    -0.201106341493    12.000000000000
         C           -0.718659190933    -1.184461398918     0.185307658507    12.000000000000
         C            0.750205809067     1.197138601082    -0.201105341493    12.000000000000
         C           -0.718660190933     1.197138601082     0.185307658507    12.000000000000
         C           -2.791776190933     0.006336601082    -0.022772341493    12.000000000000
         C            2.823320809067     0.006336601082     0.006972658507    12.000000000000
         H            0.833656809067    -1.238296398918    -1.303637341493     1.007825032230
         H            1.243160809067    -2.069569398918     0.218463658507     1.007825032230
         H            1.243161809067     2.082245601082     0.218464658507     1.007825032230
         H            0.833656809067     1.250973601082    -1.303636341493     1.007825032230
         H           -1.211615190933    -2.069569398918    -0.234260341493     1.007825032230
         H           -0.802111190933    -1.238296398918     1.287838658507     1.007825032230
         H           -0.802110190933     1.250972601082     1.287838658507     1.007825032230
         H           -1.211616190933     2.082245601082    -0.234261341493     1.007825032230
         H           -3.262796190933     0.893438601082    -0.455919341493     1.007825032230
         H           -2.982704190933     0.006336601082     1.065786658507     1.007825032230
         H           -3.262796190933    -0.880765398918    -0.455918341493     1.007825032230
         H            3.014247809067     0.006336601082    -1.081587341493     1.007825032230
         H            3.294341809067    -0.880765398918     0.440117658507     1.007825032230
         H            3.294342809067     0.893438601082     0.440117658507     1.007825032230

  Basis Set: AUG-CC-PVTZ
    Blend: AUG-CC-PVTZ
  Basis Set: (AUG-CC-PVTZ AUX)
    Blend: AUG-CC-PVTZ-JKFIT
	 Reference Energy          =    -344.3294785865248855 [Eh]
	 Singles Energy            =      -0.0000000000000000 [Eh]
	 Same-Spin Energy          =      -0.3694305576244536 [Eh]
	 Opposite-Spin Energy      =      -1.2702392818287906 [Eh]
	 Correlation Energy        =      -1.6396698394532443 [Eh]
	 Total Energy              =    -345.9691484259781191 [Eh]

	 ================> DF-SCS-MP2 Energies <==================
	-----------------------------------------------------------
	 SCS Same-Spin Scale       =       0.3333333333333333 [-]
	 SCS Opposite-Spin Scale   =       1.2000000000000000 [-]
	 SCS Same-Spin Energy      =      -0.1231435192081512 [Eh]
	 SCS Opposite-Spin Energy  =      -1.5242871381945486 [Eh]
	 SCS Correlation Energy    =      -1.6474306574026998 [Eh]
	 SCS Total Energy          =    -345.9769092439275937 [Eh]
	-----------------------------------------------------------

  Dipole Moment: [D]
     X:     0.5410      Y:     0.1312      Z:    -0.2532     Total:     0.6116

*** Psi4 exiting successfully. Buy a developer a beer!
