                               Psi4 1.4a3.dev225

  ==> Input File <==

--------------------------------------------------------------------------
#psi4
#
memory 32 gb

molecule  {
0 1
  N       -1.3887980     0.0000000    -0.3392240
  N        1.3887980     0.0000000     0.3392250
  C        0.7344320    -1.1908000    -0.1932070
  C       -0.7344320    -1.1907990     0.1932070
  C        0.7344330     1.1908010    -0.1932060
  C       -0.7344330     1.1908010     0.1932070
  C       -2.8075490    -0.0000010    -0.0148730
  C        2.8075480    -0.0000010     0.0148720
  H        0.8178840    -1.2446340    -1.2957380
  H        1.2273880    -2.0759070     0.2263630
  H        1.2356893     2.0873229     0.1907857
  H        0.8178840     1.2446360    -1.2957370
  H       -1.2273880    -2.0759070    -0.2263610
  H       -0.8178840    -1.2446340     1.2957380
  H       -0.8178830     1.2446350     1.2957380
  H       -1.2273890     2.0759080    -0.2263620
  H       -3.2785690     0.8871010    -0.4480200
  H       -2.9984770    -0.0000010     1.0736860
  H       -3.2785690    -0.8871030    -0.4480190
  H        2.9984750    -0.0000010    -1.0736880
  H        3.2785690    -0.8871030     0.4480170
  H        3.2785700     0.8871010     0.4480170
units angstrom
no_reorient  #important for SAPT in psi4, default
symmetry c1  #important for SAPT in psi4, default
}

set PROPERTIES_ORIGIN ["COM"]
properties('MP2/aug-cc-pvtz', properties = ['dipole'])
--------------------------------------------------------------------------

    Molecular point group: c1
  Charge       = 0
  Multiplicity = 1
  Basis Set: AUG-CC-PVTZ
    Blend: AUG-CC-PVTZ
  Basis Set: (AUG-CC-PVTZ AUX)
    Blend: AUG-CC-PVTZ-JKFIT

    Orbital Energies [Eh]
    ---------------------

    Doubly Occupied:

       1A    -15.545302     2A    -15.545118     3A    -11.243083
       4A    -11.243057     5A    -11.242429     6A    -11.242396
       7A    -11.240158     8A    -11.240146     9A     -1.254494
      10A     -1.202779    11A     -1.022237    12A     -0.988862
      13A     -0.907002    14A     -0.862148    15A     -0.833494
      16A     -0.757212    17A     -0.663460    18A     -0.632207
      19A     -0.627686    20A     -0.624980    21A     -0.621047
      22A     -0.579874    23A     -0.547231    24A     -0.541995
      25A     -0.540993    26A     -0.516071    27A     -0.495033
      28A     -0.488953    29A     -0.461885    30A     -0.454585
      31A     -0.359085    32A     -0.357796

  @DF-RHF Final Energy:  -344.35142020745627

   => Energetics <=

    Nuclear Repulsion Energy =            420.3641630534677347
    One-Electron Energy =               -1299.6655738975152872
    Two-Electron Energy =                 534.9499906365912238
    Total Energy =                       -344.3514202074562718
  Basis Set: (AUG-CC-PVTZ AUX)
    Blend: AUG-CC-PVTZ-RI
    Molecular point group: c1

    Geometry (in Angstrom), charge = 0, multiplicity = 1:

       Center              X                  Y                   Z               Mass
    ------------   -----------------  -----------------  -----------------  -----------------
         N           -1.388871199833    -0.000100908239    -0.338909891473    14.003074004430
         N            1.388724800167    -0.000100908239     0.339539108527    14.003074004430
         C            0.734358800167    -1.190900908239    -0.192892891473    12.000000000000
         C           -0.734505199833    -1.190899908239     0.193521108527    12.000000000000
         C            0.734359800167     1.190700091761    -0.192891891473    12.000000000000
         C           -0.734506199833     1.190700091761     0.193521108527    12.000000000000
         C           -2.807622199833    -0.000101908239    -0.014558891473    12.000000000000
         C            2.807474800167    -0.000101908239     0.015186108527    12.000000000000
         H            0.817810800167    -1.244734908239    -1.295423891473     1.007825032230
         H            1.227314800167    -2.076007908239     0.226677108527     1.007825032230
         H            1.235616100167     2.087221991761     0.191099808527     1.007825032230
         H            0.817810800167     1.244535091761    -1.295422891473     1.007825032230
         H           -1.227461199833    -2.076007908239    -0.226046891473     1.007825032230
         H           -0.817957199833    -1.244734908239     1.296052108527     1.007825032230
         H           -0.817956199833     1.244534091761     1.296052108527     1.007825032230
         H           -1.227462199833     2.075807091761    -0.226047891473     1.007825032230
         H           -3.278642199833     0.887000091761    -0.447705891473     1.007825032230
         H           -2.998550199833    -0.000101908239     1.074000108527     1.007825032230
         H           -3.278642199833    -0.887203908239    -0.447704891473     1.007825032230
         H            2.998401800167    -0.000101908239    -1.073373891473     1.007825032230
         H            3.278495800167    -0.887203908239     0.448331108527     1.007825032230
         H            3.278496800167     0.887000091761     0.448331108527     1.007825032230

  Basis Set: AUG-CC-PVTZ
    Blend: AUG-CC-PVTZ
  Basis Set: (AUG-CC-PVTZ AUX)
    Blend: AUG-CC-PVTZ-JKFIT
	 Reference Energy          =    -344.3514202074562718 [Eh]
	 Singles Energy            =      -0.0000000000000000 [Eh]
	 Same-Spin Energy          =      -0.3689207912269546 [Eh]
	 Opposite-Spin Energy      =      -1.2703257698544532 [Eh]
	 Correlation Energy        =      -1.6392465610814080 [Eh]
	 Total Energy              =    -345.9906667685376647 [Eh]

	 ================> DF-SCS-MP2 Energies <==================
	-----------------------------------------------------------
	 SCS Same-Spin Scale       =       0.3333333333333333 [-]
	 SCS Opposite-Spin Scale   =       1.2000000000000000 [-]
	 SCS Same-Spin Energy      =      -0.1229735970756515 [Eh]
	 SCS Opposite-Spin Energy  =      -1.5243909238253439 [Eh]
	 SCS Correlation Energy    =      -1.6473645209009955 [Eh]
	 SCS Total Energy          =    -345.9987847283572933 [Eh]
	-----------------------------------------------------------

  Dipole Moment: [D]
     X:     0.0044      Y:     0.0025      Z:    -0.0075     Total:     0.0090

*** Psi4 exiting successfully. Buy a developer a beer!
