                               Psi4 1.4a3.dev225

  ==> Input File <==

--------------------------------------------------------------------------
#psi4
#
memory 32 gb

molecule  {
0 1
  N       -1.3887980     0.0000000    -0.3392240
  N        1.3887980     0.0000000     0.3392250
  C        0.7344320    -1.1908000    -0.1932070
  C       -0.7150901    -1.1907990     0.1881187
  C        0.7344330     1.1908010    -0.1932060
  C       -0.7344330     1.1908010     0.1932070
  C       -2.8075490    -0.0000010    -0.0148730
  C        2.8075480    -0.0000010     0.0148720
  H        0.8178840    -1.2446340    -1.2957380
  H        1.2273880    -2.0759070     0.2263630
  H        1.2273890     2.0759080     0.2263640
  H        0.8178840     1.2446360    -1.2957370
  H       -1.2273880    -2.0759070    -0.2263610
  H       -0.8178840    -1.2446340     1.2957380
  H       -0.8178830     1.2446350     1.2957380
  H       -1.2273890     2.0759080    -0.2263620
  H       -3.2785690     0.8871010    -0.4480200
  H       -2.9984770    -0.0000010     1.0736860
  H       -3.2785690    -0.8871030    -0.4480190
  H        2.9984750    -0.0000010    -1.0736880
  H        3.2785690    -0.8871030     0.4480170
  H        3.2785700     0.8871010     0.4480170
units angstrom
no_reorient  #important for SAPT in psi4, default
symmetry c1  #important for SAPT in psi4, default
}

set PROPERTIES_ORIGIN ["COM"]
properties('MP2/aug-cc-pvtz', properties = ['dipole'])
--------------------------------------------------------------------------

    Molecular point group: c1
  Charge       = 0
  Multiplicity = 1
  Basis Set: AUG-CC-PVTZ
    Blend: AUG-CC-PVTZ
  Basis Set: (AUG-CC-PVTZ AUX)
    Blend: AUG-CC-PVTZ-JKFIT

    Orbital Energies [Eh]
    ---------------------

    Doubly Occupied:

       1A    -15.545221     2A    -15.544861     3A    -11.243477
       4A    -11.242848     5A    -11.242171     6A    -11.242071
       7A    -11.240281     8A    -11.240279     9A     -1.254479
      10A     -1.201828    11A     -1.024232    12A     -0.990105
      13A     -0.906904    14A     -0.860870    15A     -0.833963
      16A     -0.756182    17A     -0.663714    18A     -0.631991
      19A     -0.628331    20A     -0.625070    21A     -0.620924
      22A     -0.579797    23A     -0.547547    24A     -0.542070
      25A     -0.540565    26A     -0.515881    27A     -0.495338
      28A     -0.490050    29A     -0.459578    30A     -0.456519
      31A     -0.359130    32A     -0.357443

  @DF-RHF Final Energy:  -344.35098958267275

   => Energetics <=

    Nuclear Repulsion Energy =            420.5315115279697125
    One-Electron Energy =               -1299.9975583090692908
    Two-Electron Energy =                 535.1150571984268254
    Total Energy =                       -344.3509895826726961
  Basis Set: (AUG-CC-PVTZ AUX)
    Blend: AUG-CC-PVTZ-RI
    Molecular point group: c1

    Geometry (in Angstrom), charge = 0, multiplicity = 1:

       Center              X                  Y                   Z               Mass
    ------------   -----------------  -----------------  -----------------  -----------------
         N           -1.390831820089    -0.000000096325    -0.338689037559    14.003074004430
         N            1.386764179911    -0.000000096325     0.339759962441    14.003074004430
         C            0.732398179911    -1.190800096325    -0.192672037559    12.000000000000
         C           -0.717123920089    -1.190799096325     0.188653662441    12.000000000000
         C            0.732399179911     1.190800903675    -0.192671037559    12.000000000000
         C           -0.736466820089     1.190800903675     0.193741962441    12.000000000000
         C           -2.809582820089    -0.000001096325    -0.014338037559    12.000000000000
         C            2.805514179911    -0.000001096325     0.015406962441    12.000000000000
         H            0.815850179911    -1.244634096325    -1.295203037559     1.007825032230
         H            1.225354179911    -2.075907096325     0.226897962441     1.007825032230
         H            1.225355179911     2.075907903675     0.226898962441     1.007825032230
         H            0.815850179911     1.244635903675    -1.295202037559     1.007825032230
         H           -1.229421820089    -2.075907096325    -0.225826037559     1.007825032230
         H           -0.819917820089    -1.244634096325     1.296272962441     1.007825032230
         H           -0.819916820089     1.244634903675     1.296272962441     1.007825032230
         H           -1.229422820089     2.075907903675    -0.225827037559     1.007825032230
         H           -3.280602820089     0.887100903675    -0.447485037559     1.007825032230
         H           -3.000510820089    -0.000001096325     1.074220962441     1.007825032230
         H           -3.280602820089    -0.887103096325    -0.447484037559     1.007825032230
         H            2.996441179911    -0.000001096325    -1.073153037559     1.007825032230
         H            3.276535179911    -0.887103096325     0.448551962441     1.007825032230
         H            3.276536179911     0.887100903675     0.448551962441     1.007825032230

  Basis Set: AUG-CC-PVTZ
    Blend: AUG-CC-PVTZ
  Basis Set: (AUG-CC-PVTZ AUX)
    Blend: AUG-CC-PVTZ-JKFIT
	 Reference Energy          =    -344.3509895826727529 [Eh]
	 Singles Energy            =      -0.0000000000000000 [Eh]
	 Same-Spin Energy          =      -0.3690287028414487 [Eh]
	 Opposite-Spin Energy      =      -1.2704728083512378 [Eh]
	 Correlation Energy        =      -1.6395015111926865 [Eh]
	 Total Energy              =    -345.9904910938654439 [Eh]

	 ================> DF-SCS-MP2 Energies <==================
	-----------------------------------------------------------
	 SCS Same-Spin Scale       =       0.3333333333333333 [-]
	 SCS Opposite-Spin Scale   =       1.2000000000000000 [-]
	 SCS Same-Spin Energy      =      -0.1230095676138162 [Eh]
	 SCS Opposite-Spin Energy  =      -1.5245673700214852 [Eh]
	 SCS Correlation Energy    =      -1.6475769376353016 [Eh]
	 SCS Total Energy          =    -345.9985665203080316 [Eh]
	-----------------------------------------------------------

  Dipole Moment: [D]
     X:     0.0158      Y:    -0.0099      Z:    -0.0068     Total:     0.0198

*** Psi4 exiting successfully. Buy a developer a beer!
