                               Psi4 1.4a3.dev225

  ==> Input File <==

--------------------------------------------------------------------------
#psi4
#
memory 32 gb

molecule  {
0 1
  N       -1.3887980     0.0000000    -0.3392240
  N        1.3887980     0.0000000     0.3392250
  C        0.7344320    -1.1908000    -0.1932070
  C       -0.7344320    -1.1907990     0.1932070
  C        0.7344330     1.1908010    -0.1932060
  C       -0.7344330     1.1908010     0.1932070
  C       -2.8075490    -0.0000010    -0.0148730
  C        2.8075480    -0.0000010     0.0148720
  H        0.8178840    -1.2446340    -1.2957380
  H        1.2273880    -2.0759070     0.2263630
  H        1.2273890     2.0759080     0.2263640
  H        0.8028070     1.2349097    -1.0965434
  H       -1.2273880    -2.0759070    -0.2263610
  H       -0.8178840    -1.2446340     1.2957380
  H       -0.8178830     1.2446350     1.2957380
  H       -1.2273890     2.0759080    -0.2263620
  H       -3.2785690     0.8871010    -0.4480200
  H       -2.9984770    -0.0000010     1.0736860
  H       -3.2785690    -0.8871030    -0.4480190
  H        2.9984750    -0.0000010    -1.0736880
  H        3.2785690    -0.8871030     0.4480170
  H        3.2785700     0.8871010     0.4480170
units angstrom
no_reorient  #important for SAPT in psi4, default
symmetry c1  #important for SAPT in psi4, default
}

set PROPERTIES_ORIGIN ["COM"]
properties('MP2/aug-cc-pvtz', properties = ['dipole'])
--------------------------------------------------------------------------

    Molecular point group: c1
  Charge       = 0
  Multiplicity = 1
  Basis Set: AUG-CC-PVTZ
    Blend: AUG-CC-PVTZ
  Basis Set: (AUG-CC-PVTZ AUX)
    Blend: AUG-CC-PVTZ-JKFIT

    Orbital Energies [Eh]
    ---------------------

    Doubly Occupied:

       1A    -15.544909     2A    -15.541287     3A    -11.242360
       4A    -11.241694     5A    -11.240866     6A    -11.239876
       7A    -11.239434     8A    -11.217552     9A     -1.254944
      10A     -1.202294    11A     -1.028975    12A     -0.990411
      13A     -0.907707    14A     -0.869942    15A     -0.835259
      16A     -0.770820    17A     -0.662255    18A     -0.643492
      19A     -0.631356    20A     -0.626568    21A     -0.621236
      22A     -0.580091    23A     -0.547751    24A     -0.541744
      25A     -0.539856    26A     -0.523119    27A     -0.500142
      28A     -0.491501    29A     -0.460297    30A     -0.453060
      31A     -0.359570    32A     -0.357077

  @DF-RHF Final Energy:  -344.32135196103826

   => Energetics <=

    Nuclear Repulsion Energy =            421.5030855622987360
    One-Electron Energy =               -1301.8339830556737979
    Two-Electron Energy =                 536.0095455323368014
    Total Energy =                       -344.3213519610382036
  Basis Set: (AUG-CC-PVTZ AUX)
    Blend: AUG-CC-PVTZ-RI
    Molecular point group: c1

    Geometry (in Angstrom), charge = 0, multiplicity = 1:

       Center              X                  Y                   Z               Mass
    ------------   -----------------  -----------------  -----------------  -----------------
         N           -1.388664740701     0.000085802537    -0.340983304692    14.003074004430
         N            1.388931259299     0.000085802537     0.337465695308    14.003074004430
         C            0.734565259299    -1.190714197463    -0.194966304692    12.000000000000
         C           -0.734298740701    -1.190713197463     0.191447695308    12.000000000000
         C            0.734566259299     1.190886802537    -0.194965304692    12.000000000000
         C           -0.734299740701     1.190886802537     0.191447695308    12.000000000000
         C           -2.807415740701     0.000084802537    -0.016632304692    12.000000000000
         C            2.807681259299     0.000084802537     0.013112695308    12.000000000000
         H            0.818017259299    -1.244548197463    -1.297497304692     1.007825032230
         H            1.227521259299    -2.075821197463     0.224603695308     1.007825032230
         H            1.227522259299     2.075993802537     0.224604695308     1.007825032230
         H            0.802940259299     1.234995502537    -1.098302704692     1.007825032230
         H           -1.227254740701    -2.075821197463    -0.228120304692     1.007825032230
         H           -0.817750740701    -1.244548197463     1.293978695308     1.007825032230
         H           -0.817749740701     1.244720802537     1.293978695308     1.007825032230
         H           -1.227255740701     2.075993802537    -0.228121304692     1.007825032230
         H           -3.278435740701     0.887186802537    -0.449779304692     1.007825032230
         H           -2.998343740701     0.000084802537     1.071926695308     1.007825032230
         H           -3.278435740701    -0.887017197463    -0.449778304692     1.007825032230
         H            2.998608259299     0.000084802537    -1.075447304692     1.007825032230
         H            3.278702259299    -0.887017197463     0.446257695308     1.007825032230
         H            3.278703259299     0.887186802537     0.446257695308     1.007825032230

  Basis Set: AUG-CC-PVTZ
    Blend: AUG-CC-PVTZ
  Basis Set: (AUG-CC-PVTZ AUX)
    Blend: AUG-CC-PVTZ-JKFIT
	 Reference Energy          =    -344.3213519610382605 [Eh]
	 Singles Energy            =      -0.0000000000000000 [Eh]
	 Same-Spin Energy          =      -0.3686147669554986 [Eh]
	 Opposite-Spin Energy      =      -1.2693764646038734 [Eh]
	 Correlation Energy        =      -1.6379912315593721 [Eh]
	 Total Energy              =    -345.9593431925976574 [Eh]

	 ================> DF-SCS-MP2 Energies <==================
	-----------------------------------------------------------
	 SCS Same-Spin Scale       =       0.3333333333333333 [-]
	 SCS Opposite-Spin Scale   =       1.2000000000000000 [-]
	 SCS Same-Spin Energy      =      -0.1228715889851662 [Eh]
	 SCS Opposite-Spin Energy  =      -1.5232517575246480 [Eh]
	 SCS Correlation Energy    =      -1.6461233465098142 [Eh]
	 SCS Total Energy          =    -345.9674753075480567 [Eh]
	-----------------------------------------------------------

  Dipole Moment: [D]
     X:     0.0066      Y:     0.0749      Z:    -0.1504     Total:     0.1681

*** Psi4 exiting successfully. Buy a developer a beer!
