                               Psi4 1.4a3.dev225

  ==> Input File <==

--------------------------------------------------------------------------
#psi4
#
memory 32 gb

molecule  {
0 1
  N       -1.3887980     0.0000000    -0.3392240
  N        1.3696283     0.0000000     0.2394679
  C        0.7344320    -1.1908000    -0.1932070
  C       -0.7344320    -1.1907990     0.1932070
  C        0.7344330     1.1908010    -0.1932060
  C       -0.7344330     1.1908010     0.1932070
  C       -2.8075490    -0.0000010    -0.0148730
  C        2.8075480    -0.0000010     0.0148720
  H        0.8178840    -1.2446340    -1.2957380
  H        1.2273880    -2.0759070     0.2263630
  H        1.2273890     2.0759080     0.2263640
  H        0.8178840     1.2446360    -1.2957370
  H       -1.2273880    -2.0759070    -0.2263610
  H       -0.8178840    -1.2446340     1.2957380
  H       -0.8178830     1.2446350     1.2957380
  H       -1.2273890     2.0759080    -0.2263620
  H       -3.2785690     0.8871010    -0.4480200
  H       -2.9984770    -0.0000010     1.0736860
  H       -3.2785690    -0.8871030    -0.4480190
  H        2.9984750    -0.0000010    -1.0736880
  H        3.2785690    -0.8871030     0.4480170
  H        3.2785700     0.8871010     0.4480170
units angstrom
no_reorient  #important for SAPT in psi4, default
symmetry c1  #important for SAPT in psi4, default
}

set PROPERTIES_ORIGIN ["COM"]
properties('MP2/aug-cc-pvtz', properties = ['dipole'])
--------------------------------------------------------------------------

    Molecular point group: c1
  Charge       = 0
  Multiplicity = 1
  Basis Set: AUG-CC-PVTZ
    Blend: AUG-CC-PVTZ
  Basis Set: (AUG-CC-PVTZ AUX)
    Blend: AUG-CC-PVTZ-JKFIT

    Orbital Energies [Eh]
    ---------------------

    Doubly Occupied:

       1A    -15.545106     2A    -15.535593     3A    -11.242692
       4A    -11.242677     5A    -11.242115     6A    -11.240951
       7A    -11.240937     8A    -11.240073     9A     -1.262425
      10A     -1.207639    11A     -1.025729    12A     -0.989126
      13A     -0.910417    14A     -0.868961    15A     -0.834035
      16A     -0.752822    17A     -0.666275    18A     -0.638686
      19A     -0.632845    20A     -0.623269    21A     -0.623204
      22A     -0.577728    23A     -0.548019    24A     -0.547498
      25A     -0.547274    26A     -0.515382    27A     -0.497912
      28A     -0.489704    29A     -0.470112    30A     -0.455427
      31A     -0.358766    32A     -0.339233

  @DF-RHF Final Energy:  -344.34876035575894

   => Energetics <=

    Nuclear Repulsion Energy =            421.7705717966645693
    One-Electron Energy =               -1302.4133957674453086
    Two-Electron Energy =                 536.2940636150217415
    Total Energy =                       -344.3487603557589409
  Basis Set: (AUG-CC-PVTZ AUX)
    Blend: AUG-CC-PVTZ-RI
    Molecular point group: c1

    Geometry (in Angstrom), charge = 0, multiplicity = 1:

       Center              X                  Y                   Z               Mass
    ------------   -----------------  -----------------  -----------------  -----------------
         N           -1.386445591599    -0.000000096325    -0.326982966687    14.003074004430
         N            1.371980708401    -0.000000096325     0.251708933313    14.003074004430
         C            0.736784408401    -1.190800096325    -0.180965966687    12.000000000000
         C           -0.732079591599    -1.190799096325     0.205448033313    12.000000000000
         C            0.736785408401     1.190800903675    -0.180964966687    12.000000000000
         C           -0.732080591599     1.190800903675     0.205448033313    12.000000000000
         C           -2.805196591599    -0.000001096325    -0.002631966687    12.000000000000
         C            2.809900408401    -0.000001096325     0.027113033313    12.000000000000
         H            0.820236408401    -1.244634096325    -1.283496966687     1.007825032230
         H            1.229740408401    -2.075907096325     0.238604033313     1.007825032230
         H            1.229741408401     2.075907903675     0.238605033313     1.007825032230
         H            0.820236408401     1.244635903675    -1.283495966687     1.007825032230
         H           -1.225035591599    -2.075907096325    -0.214119966687     1.007825032230
         H           -0.815531591599    -1.244634096325     1.307979033313     1.007825032230
         H           -0.815530591599     1.244634903675     1.307979033313     1.007825032230
         H           -1.225036591599     2.075907903675    -0.214120966687     1.007825032230
         H           -3.276216591599     0.887100903675    -0.435778966687     1.007825032230
         H           -2.996124591599    -0.000001096325     1.085927033313     1.007825032230
         H           -3.276216591599    -0.887103096325    -0.435777966687     1.007825032230
         H            3.000827408401    -0.000001096325    -1.061446966687     1.007825032230
         H            3.280921408401    -0.887103096325     0.460258033313     1.007825032230
         H            3.280922408401     0.887100903675     0.460258033313     1.007825032230

  Basis Set: AUG-CC-PVTZ
    Blend: AUG-CC-PVTZ
  Basis Set: (AUG-CC-PVTZ AUX)
    Blend: AUG-CC-PVTZ-JKFIT
	 Reference Energy          =    -344.3487603557589409 [Eh]
	 Singles Energy            =      -0.0000000000000000 [Eh]
	 Same-Spin Energy          =      -0.3690847770726221 [Eh]
	 Opposite-Spin Energy      =      -1.2691842013559116 [Eh]
	 Correlation Energy        =      -1.6382689784285338 [Eh]
	 Total Energy              =    -345.9870293341874685 [Eh]

	 ================> DF-SCS-MP2 Energies <==================
	-----------------------------------------------------------
	 SCS Same-Spin Scale       =       0.3333333333333333 [-]
	 SCS Opposite-Spin Scale   =       1.2000000000000000 [-]
	 SCS Same-Spin Energy      =      -0.1230282590242074 [Eh]
	 SCS Opposite-Spin Energy  =      -1.5230210416270940 [Eh]
	 SCS Correlation Energy    =      -1.6460493006513013 [Eh]
	 SCS Total Energy          =    -345.9948096564102684 [Eh]
	-----------------------------------------------------------

  Dipole Moment: [D]
     X:     0.0644      Y:     0.0000      Z:     0.3187     Total:     0.3252

*** Psi4 exiting successfully. Buy a developer a beer!
