                               Psi4 1.4a3.dev225

  ==> Input File <==

--------------------------------------------------------------------------
#psi4
#
memory 32 gb

molecule  {
0 1
  N       -1.2899990     0.0816496    -0.2561258
  N        1.3887980     0.0000000     0.3392250
  C        0.7344320    -1.1908000    -0.1932070
  C       -0.7344320    -1.1907990     0.1932070
  C        0.7344330     1.1908010    -0.1932060
  C       -0.7344330     1.1908010     0.1932070
  C       -2.8075490    -0.0000010    -0.0148730
  C        2.8075480    -0.0000010     0.0148720
  H        0.8178840    -1.2446340    -1.2957380
  H        1.2273880    -2.0759070     0.2263630
  H        1.2273890     2.0759080     0.2263640
  H        0.8178840     1.2446360    -1.2957370
  H       -1.2273880    -2.0759070    -0.2263610
  H       -0.8178840    -1.2446340     1.2957380
  H       -0.8178830     1.2446350     1.2957380
  H       -1.2273890     2.0759080    -0.2263620
  H       -3.2785690     0.8871010    -0.4480200
  H       -2.9984770    -0.0000010     1.0736860
  H       -3.2785690    -0.8871030    -0.4480190
  H        2.9984750    -0.0000010    -1.0736880
  H        3.2785690    -0.8871030     0.4480170
  H        3.2785700     0.8871010     0.4480170
units angstrom
no_reorient  #important for SAPT in psi4, default
symmetry c1  #important for SAPT in psi4, default
}

set PROPERTIES_ORIGIN ["COM"]
properties('MP2/aug-cc-pvtz', properties = ['dipole'])
--------------------------------------------------------------------------

    Molecular point group: c1
  Charge       = 0
  Multiplicity = 1
  Basis Set: AUG-CC-PVTZ
    Blend: AUG-CC-PVTZ
  Basis Set: (AUG-CC-PVTZ AUX)
    Blend: AUG-CC-PVTZ-JKFIT

    Orbital Energies [Eh]
    ---------------------

    Doubly Occupied:

       1A    -15.543727     2A    -15.538381     3A    -11.248251
       4A    -11.245686     5A    -11.240896     6A    -11.238849
       7A    -11.238196     8A    -11.232047     9A     -1.269407
      10A     -1.205947    11A     -1.028670    12A     -0.980392
      13A     -0.911920    14A     -0.870423    15A     -0.833135
      16A     -0.752851    17A     -0.667069    18A     -0.637770
      19A     -0.630645    20A     -0.624728    21A     -0.620498
      22A     -0.575490    23A     -0.554907    24A     -0.547315
      25A     -0.542698    26A     -0.516373    27A     -0.499860
      28A     -0.489612    29A     -0.474492    30A     -0.435226
      31A     -0.357218    32A     -0.342170

  @DF-RHF Final Energy:  -344.32846325986060

   => Energetics <=

    Nuclear Repulsion Energy =            422.5339032810134086
    One-Electron Energy =               -1303.9350277427522542
    Two-Electron Energy =                 537.0726612018783044
    Total Energy =                       -344.3284632598605413
  Basis Set: (AUG-CC-PVTZ AUX)
    Blend: AUG-CC-PVTZ-RI
    Molecular point group: c1

    Geometry (in Angstrom), charge = 0, multiplicity = 1:

       Center              X                  Y                   Z               Mass
    ------------   -----------------  -----------------  -----------------  -----------------
         N           -1.302122465283     0.071630326589    -0.266322839035    14.003074004430
         N            1.376674534717    -0.010019273411     0.329027960965    14.003074004430
         C            0.722308534717    -1.200819273411    -0.203404039035    12.000000000000
         C           -0.746555465283    -1.200818273411     0.183009960965    12.000000000000
         C            0.722309534717     1.180781726589    -0.203403039035    12.000000000000
         C           -0.746556465283     1.180781726589     0.183009960965    12.000000000000
         C           -2.819672465283    -0.010020273411    -0.025070039035    12.000000000000
         C            2.795424534717    -0.010020273411     0.004674960965    12.000000000000
         H            0.805760534717    -1.254653273411    -1.305935039035     1.007825032230
         H            1.215264534717    -2.085926273411     0.216165960965     1.007825032230
         H            1.215265534717     2.065888726589     0.216166960965     1.007825032230
         H            0.805760534717     1.234616726589    -1.305934039035     1.007825032230
         H           -1.239511465283    -2.085926273411    -0.236558039035     1.007825032230
         H           -0.830007465283    -1.254653273411     1.285540960965     1.007825032230
         H           -0.830006465283     1.234615726589     1.285540960965     1.007825032230
         H           -1.239512465283     2.065888726589    -0.236559039035     1.007825032230
         H           -3.290692465283     0.877081726589    -0.458217039035     1.007825032230
         H           -3.010600465283    -0.010020273411     1.063488960965     1.007825032230
         H           -3.290692465283    -0.897122273411    -0.458216039035     1.007825032230
         H            2.986351534717    -0.010020273411    -1.083885039035     1.007825032230
         H            3.266445534717    -0.897122273411     0.437819960965     1.007825032230
         H            3.266446534717     0.877081726589     0.437819960965     1.007825032230

  Basis Set: AUG-CC-PVTZ
    Blend: AUG-CC-PVTZ
  Basis Set: (AUG-CC-PVTZ AUX)
    Blend: AUG-CC-PVTZ-JKFIT
	 Reference Energy          =    -344.3284632598605981 [Eh]
	 Singles Energy            =      -0.0000000000000000 [Eh]
	 Same-Spin Energy          =      -0.3700470309367382 [Eh]
	 Opposite-Spin Energy      =      -1.2712641889731131 [Eh]
	 Correlation Energy        =      -1.6413112199098512 [Eh]
	 Total Energy              =    -345.9697744797704217 [Eh]

	 ================> DF-SCS-MP2 Energies <==================
	-----------------------------------------------------------
	 SCS Same-Spin Scale       =       0.3333333333333333 [-]
	 SCS Opposite-Spin Scale   =       1.2000000000000000 [-]
	 SCS Same-Spin Energy      =      -0.1233490103122461 [Eh]
	 SCS Opposite-Spin Energy  =      -1.5255170267677356 [Eh]
	 SCS Correlation Energy    =      -1.6488660370799817 [Eh]
	 SCS Total Energy          =    -345.9773292969405816 [Eh]
	-----------------------------------------------------------

  Dipole Moment: [D]
     X:    -0.3291      Y:    -0.2852      Z:    -0.2666     Total:     0.5106

*** Psi4 exiting successfully. Buy a developer a beer!
