                               Psi4 1.4a3.dev225

  ==> Input File <==

--------------------------------------------------------------------------
#psi4
#
memory 32 gb

molecule  {
0 1
  N       -1.4804277    -0.0946962    -0.4164888
  N        1.3887980     0.0000000     0.3392250
  C        0.7344320    -1.1908000    -0.1932070
  C       -0.7344320    -1.1907990     0.1932070
  C        0.7344330     1.1908010    -0.1932060
  C       -0.7344330     1.1908010     0.1932070
  C       -2.8075490    -0.0000010    -0.0148730
  C        2.8075480    -0.0000010     0.0148720
  H        0.8178840    -1.2446340    -1.2957380
  H        1.2273880    -2.0759070     0.2263630
  H        1.2273890     2.0759080     0.2263640
  H        0.8178840     1.2446360    -1.2957370
  H       -1.2273880    -2.0759070    -0.2263610
  H       -0.8178840    -1.2446340     1.2957380
  H       -0.8178830     1.2446350     1.2957380
  H       -1.2273890     2.0759080    -0.2263620
  H       -3.2785690     0.8871010    -0.4480200
  H       -2.9984770    -0.0000010     1.0736860
  H       -3.2785690    -0.8871030    -0.4480190
  H        2.9984750    -0.0000010    -1.0736880
  H        3.2785690    -0.8871030     0.4480170
  H        3.2785700     0.8871010     0.4480170
units angstrom
no_reorient  #important for SAPT in psi4, default
symmetry c1  #important for SAPT in psi4, default
}

set PROPERTIES_ORIGIN ["COM"]
properties('MP2/aug-cc-pvtz', properties = ['dipole'])
--------------------------------------------------------------------------

    Molecular point group: c1
  Charge       = 0
  Multiplicity = 1
  Basis Set: AUG-CC-PVTZ
    Blend: AUG-CC-PVTZ
  Basis Set: (AUG-CC-PVTZ AUX)
    Blend: AUG-CC-PVTZ-JKFIT

    Orbital Energies [Eh]
    ---------------------

    Doubly Occupied:

       1A    -15.552373     2A    -15.546481     3A    -11.250960
       4A    -11.246408     5A    -11.245093     6A    -11.242792
       7A    -11.241440     8A    -11.233889     9A     -1.249335
      10A     -1.205017    11A     -1.019246    12A     -0.996421
      13A     -0.905460    14A     -0.857285    15A     -0.827712
      16A     -0.760841    17A     -0.662507    18A     -0.633865
      19A     -0.628445    20A     -0.625393    21A     -0.619201
      22A     -0.590241    23A     -0.549389    24A     -0.539413
      25A     -0.530639    26A     -0.517983    27A     -0.494707
      28A     -0.489561    29A     -0.466985    30A     -0.430645
      31A     -0.368424    32A     -0.360098

  @DF-RHF Final Energy:  -344.33045619658117

   => Energetics <=

    Nuclear Repulsion Energy =            418.4971785326524127
    One-Electron Energy =               -1295.8787726436889898
    Two-Electron Energy =                 533.0511379144553530
    Total Energy =                       -344.3304561965811672
  Basis Set: (AUG-CC-PVTZ AUX)
    Blend: AUG-CC-PVTZ-RI
    Molecular point group: c1

    Geometry (in Angstrom), charge = 0, multiplicity = 1:

       Center              X                  Y                   Z               Mass
    ------------   -----------------  -----------------  -----------------  -----------------
         N           -1.469183765227    -0.083076178195    -0.407007784333    14.003074004430
         N            1.400041934773     0.011620021805     0.348706015667    14.003074004430
         C            0.745675934773    -1.179179978195    -0.183725984333    12.000000000000
         C           -0.723188065227    -1.179178978195     0.202688015667    12.000000000000
         C            0.745676934773     1.202421021805    -0.183724984333    12.000000000000
         C           -0.723189065227     1.202421021805     0.202688015667    12.000000000000
         C           -2.796305065227     0.011619021805    -0.005391984333    12.000000000000
         C            2.818791934773     0.011619021805     0.024353015667    12.000000000000
         H            0.829127934773    -1.233013978195    -1.286256984333     1.007825032230
         H            1.238631934773    -2.064286978195     0.235844015667     1.007825032230
         H            1.238632934773     2.087528021805     0.235845015667     1.007825032230
         H            0.829127934773     1.256256021805    -1.286255984333     1.007825032230
         H           -1.216144065227    -2.064286978195    -0.216879984333     1.007825032230
         H           -0.806640065227    -1.233013978195     1.305219015667     1.007825032230
         H           -0.806639065227     1.256255021805     1.305219015667     1.007825032230
         H           -1.216145065227     2.087528021805    -0.216880984333     1.007825032230
         H           -3.267325065227     0.898721021805    -0.438538984333     1.007825032230
         H           -2.987233065227     0.011619021805     1.083167015667     1.007825032230
         H           -3.267325065227    -0.875482978195    -0.438537984333     1.007825032230
         H            3.009718934773     0.011619021805    -1.064206984333     1.007825032230
         H            3.289812934773    -0.875482978195     0.457498015667     1.007825032230
         H            3.289813934773     0.898721021805     0.457498015667     1.007825032230

  Basis Set: AUG-CC-PVTZ
    Blend: AUG-CC-PVTZ
  Basis Set: (AUG-CC-PVTZ AUX)
    Blend: AUG-CC-PVTZ-JKFIT
	 Reference Energy          =    -344.3304561965811672 [Eh]
	 Singles Energy            =      -0.0000000000000000 [Eh]
	 Same-Spin Energy          =      -0.3696661867962873 [Eh]
	 Opposite-Spin Energy      =      -1.2730919167418253 [Eh]
	 Correlation Energy        =      -1.6427581035381125 [Eh]
	 Total Energy              =    -345.9732143001192526 [Eh]

	 ================> DF-SCS-MP2 Energies <==================
	-----------------------------------------------------------
	 SCS Same-Spin Scale       =       0.3333333333333333 [-]
	 SCS Opposite-Spin Scale   =       1.2000000000000000 [-]
	 SCS Same-Spin Energy      =      -0.1232220622654291 [Eh]
	 SCS Opposite-Spin Energy  =      -1.5277103000901904 [Eh]
	 SCS Correlation Energy    =      -1.6509323623556194 [Eh]
	 SCS Total Energy          =    -345.9813885589367715 [Eh]
	-----------------------------------------------------------

  Dipole Moment: [D]
     X:     0.2910      Y:     0.2149      Z:     0.1961     Total:     0.4115

*** Psi4 exiting successfully. Buy a developer a beer!
