                               Psi4 1.4a3.dev225

  ==> Input File <==

--------------------------------------------------------------------------
#psi4
#
memory 32 gb

molecule  {
0 1
  N       -1.3887980     0.0000000    -0.3392240
  N        1.3887980     0.0000000     0.3392250
  C        0.7344320    -1.1908000    -0.1932070
  C       -0.7344320    -1.1907990     0.1932070
  C        0.7344330     1.1908010    -0.1932060
  C       -0.7344330     1.1908010     0.1932070
  C       -2.8075490    -0.0000010    -0.0148730
  C        2.8075480    -0.0000010     0.0148720
  H        0.8178840    -1.2446340    -1.2957380
  H        1.2273880    -2.0759070     0.2263630
  H        1.2273890     2.0759080     0.2263640
  H        0.8178840     1.2446360    -1.2957370
  H       -1.2273880    -2.0759070    -0.2263610
  H       -0.8178840    -1.2446340     1.2957380
  H       -0.8178830     1.2446350     1.2957380
  H       -1.2273890     2.0759080    -0.2263620
  H       -3.2785690     0.8871010    -0.4480200
  H       -2.9984770    -0.0000010     1.0736860
  H       -3.3216312    -0.9682049    -0.4876187
  H        2.9984750    -0.0000010    -1.0736880
  H        3.2785690    -0.8871030     0.4480170
  H        3.2785700     0.8871010     0.4480170
units angstrom
no_reorient  #important for SAPT in psi4, default
symmetry c1  #important for SAPT in psi4, default
}

set PROPERTIES_ORIGIN ["COM"]
properties('MP2/aug-cc-pvtz', properties = ['dipole'])
--------------------------------------------------------------------------

    Molecular point group: c1
  Charge       = 0
  Multiplicity = 1
  Basis Set: AUG-CC-PVTZ
    Blend: AUG-CC-PVTZ
  Basis Set: (AUG-CC-PVTZ AUX)
    Blend: AUG-CC-PVTZ-JKFIT

    Orbital Energies [Eh]
    ---------------------

    Doubly Occupied:

       1A    -15.546336     2A    -15.545399     3A    -11.252122
       4A    -11.244006     5A    -11.243208     6A    -11.243114
       7A    -11.242464     8A    -11.240398     9A     -1.255027
      10A     -1.203116    11A     -1.022827    12A     -0.987106
      13A     -0.902783    14A     -0.862344    15A     -0.831349
      16A     -0.757146    17A     -0.663264    18A     -0.632809
      19A     -0.626670    20A     -0.624926    21A     -0.618920
      22A     -0.580664    23A     -0.545155    24A     -0.541627
      25A     -0.535481    26A     -0.515988    27A     -0.492775
      28A     -0.487172    29A     -0.461314    30A     -0.454497
      31A     -0.359659    32A     -0.358368

  @DF-RHF Final Energy:  -344.34498065835959

   => Energetics <=

    Nuclear Repulsion Energy =            419.9661399054759272
    One-Electron Energy =               -1298.8661693154713248
    Two-Electron Energy =                 534.5550487516356952
    Total Energy =                       -344.3449806583596455
  Basis Set: (AUG-CC-PVTZ AUX)
    Blend: AUG-CC-PVTZ-RI
    Molecular point group: c1

    Geometry (in Angstrom), charge = 0, multiplicity = 1:

       Center              X                  Y                   Z               Mass
    ------------   -----------------  -----------------  -----------------  -----------------
         N           -1.388417586405     0.000716163805    -0.338874376048    14.003074004430
         N            1.389178413595     0.000716163805     0.339574623952    14.003074004430
         C            0.734812413595    -1.190083836195    -0.192857376048    12.000000000000
         C           -0.734051586405    -1.190082836195     0.193556623952    12.000000000000
         C            0.734813413595     1.191517163805    -0.192856376048    12.000000000000
         C           -0.734052586405     1.191517163805     0.193556623952    12.000000000000
         C           -2.807168586405     0.000715163805    -0.014523376048    12.000000000000
         C            2.807928413595     0.000715163805     0.015221623952    12.000000000000
         H            0.818264413595    -1.243917836195    -1.295388376048     1.007825032230
         H            1.227768413595    -2.075190836195     0.226712623952     1.007825032230
         H            1.227769413595     2.076624163805     0.226713623952     1.007825032230
         H            0.818264413595     1.245352163805    -1.295387376048     1.007825032230
         H           -1.227007586405    -2.075190836195    -0.226011376048     1.007825032230
         H           -0.817503586405    -1.243917836195     1.296087623952     1.007825032230
         H           -0.817502586405     1.245351163805     1.296087623952     1.007825032230
         H           -1.227008586405     2.076624163805    -0.226012376048     1.007825032230
         H           -3.278188586405     0.887817163805    -0.447670376048     1.007825032230
         H           -2.998096586405     0.000715163805     1.074035623952     1.007825032230
         H           -3.321250786405    -0.967488736195    -0.487269076048     1.007825032230
         H            2.998855413595     0.000715163805    -1.073338376048     1.007825032230
         H            3.278949413595    -0.886386836195     0.448366623952     1.007825032230
         H            3.278950413595     0.887817163805     0.448366623952     1.007825032230

  Basis Set: AUG-CC-PVTZ
    Blend: AUG-CC-PVTZ
  Basis Set: (AUG-CC-PVTZ AUX)
    Blend: AUG-CC-PVTZ-JKFIT
	 Reference Energy          =    -344.3449806583595887 [Eh]
	 Singles Energy            =      -0.0000000000000000 [Eh]
	 Same-Spin Energy          =      -0.3689856383864106 [Eh]
	 Opposite-Spin Energy      =      -1.2711289426729961 [Eh]
	 Correlation Energy        =      -1.6401145810594069 [Eh]
	 Total Energy              =    -345.9850952394189676 [Eh]

	 ================> DF-SCS-MP2 Energies <==================
	-----------------------------------------------------------
	 SCS Same-Spin Scale       =       0.3333333333333333 [-]
	 SCS Opposite-Spin Scale   =       1.2000000000000000 [-]
	 SCS Same-Spin Energy      =      -0.1229952127954702 [Eh]
	 SCS Opposite-Spin Energy  =      -1.5253547312075952 [Eh]
	 SCS Correlation Energy    =      -1.6483499440030653 [Eh]
	 SCS Total Energy          =    -345.9933306023626756 [Eh]
	-----------------------------------------------------------

  Dipole Moment: [D]
     X:     0.0620      Y:     0.0506      Z:     0.0217     Total:     0.0829

*** Psi4 exiting successfully. Buy a developer a beer!
