                               Psi4 1.4a3.dev225

  ==> Input File <==

--------------------------------------------------------------------------
#psi4
#
memory 32 gb

molecule  {
0 1
  N       -1.4304740    -0.0000000    -0.4857470
  N        1.3887980     0.0000000     0.3392250
  C        0.7344320    -1.1908000    -0.1932070
  C       -0.7344320    -1.1907990     0.1932070
  C        0.7344330     1.1908010    -0.1932060
  C       -0.7344330     1.1908010     0.1932070
  C       -2.8075490    -0.0000010    -0.0148730
  C        2.8075480    -0.0000010     0.0148720
  H        0.8178840    -1.2446340    -1.2957380
  H        1.2273880    -2.0759070     0.2263630
  H        1.2273890     2.0759080     0.2263640
  H        0.8178840     1.2446360    -1.2957370
  H       -1.2273880    -2.0759070    -0.2263610
  H       -0.8178840    -1.2446340     1.2957380
  H       -0.8178830     1.2446350     1.2957380
  H       -1.2273890     2.0759080    -0.2263620
  H       -3.2785690     0.8871010    -0.4480200
  H       -2.9984770    -0.0000010     1.0736860
  H       -3.2785690    -0.8871030    -0.4480190
  H        2.9984750    -0.0000010    -1.0736880
  H        3.2785690    -0.8871030     0.4480170
  H        3.2785700     0.8871010     0.4480170
units angstrom
no_reorient  #important for SAPT in psi4, default
symmetry c1  #important for SAPT in psi4, default
}

set PROPERTIES_ORIGIN ["COM"]
properties('MP2/aug-cc-pvtz', properties = ['dipole'])
--------------------------------------------------------------------------

    Molecular point group: c1
  Charge       = 0
  Multiplicity = 1
  Basis Set: AUG-CC-PVTZ
    Blend: AUG-CC-PVTZ
  Basis Set: (AUG-CC-PVTZ AUX)
    Blend: AUG-CC-PVTZ-JKFIT

    Orbital Energies [Eh]
    ---------------------

    Doubly Occupied:

       1A    -15.560878     2A    -15.545256     3A    -11.246640
       4A    -11.246630     5A    -11.243267     6A    -11.243255
       7A    -11.240399     8A    -11.237804     9A     -1.244951
      10A     -1.191746    11A     -1.018062    12A     -0.989260
      13A     -0.901520    14A     -0.852543    15A     -0.832724
      16A     -0.762167    17A     -0.659299    18A     -0.629743
      19A     -0.627472    20A     -0.621284    21A     -0.612288
      22A     -0.583091    23A     -0.546969    24A     -0.533915
      25A     -0.530638    26A     -0.518082    27A     -0.495562
      28A     -0.487291    29A     -0.450876    30A     -0.438386
      31A     -0.385333    32A     -0.358854

  @DF-RHF Final Energy:  -344.33342586257749

   => Energetics <=

    Nuclear Repulsion Energy =            417.9213346552640473
    One-Electron Energy =               -1294.8371521344593020
    Two-Electron Energy =                 532.5823916166177696
    Total Energy =                       -344.3334258625775419
  Basis Set: (AUG-CC-PVTZ AUX)
    Blend: AUG-CC-PVTZ-RI
    Molecular point group: c1

    Geometry (in Angstrom), charge = 0, multiplicity = 1:

       Center              X                  Y                   Z               Mass
    ------------   -----------------  -----------------  -----------------  -----------------
         N           -1.425359856021    -0.000000096325    -0.467767349061    14.003074004430
         N            1.393912143979    -0.000000096325     0.357204650939    14.003074004430
         C            0.739546143979    -1.190800096325    -0.175227349061    12.000000000000
         C           -0.729317856021    -1.190799096325     0.211186650939    12.000000000000
         C            0.739547143979     1.190800903675    -0.175226349061    12.000000000000
         C           -0.729318856021     1.190800903675     0.211186650939    12.000000000000
         C           -2.802434856021    -0.000001096325     0.003106650939    12.000000000000
         C            2.812662143979    -0.000001096325     0.032851650939    12.000000000000
         H            0.822998143979    -1.244634096325    -1.277758349061     1.007825032230
         H            1.232502143979    -2.075907096325     0.244342650939     1.007825032230
         H            1.232503143979     2.075907903675     0.244343650939     1.007825032230
         H            0.822998143979     1.244635903675    -1.277757349061     1.007825032230
         H           -1.222273856021    -2.075907096325    -0.208381349061     1.007825032230
         H           -0.812769856021    -1.244634096325     1.313717650939     1.007825032230
         H           -0.812768856021     1.244634903675     1.313717650939     1.007825032230
         H           -1.222274856021     2.075907903675    -0.208382349061     1.007825032230
         H           -3.273454856021     0.887100903675    -0.430040349061     1.007825032230
         H           -2.993362856021    -0.000001096325     1.091665650939     1.007825032230
         H           -3.273454856021    -0.887103096325    -0.430039349061     1.007825032230
         H            3.003589143979    -0.000001096325    -1.055708349061     1.007825032230
         H            3.283683143979    -0.887103096325     0.465996650939     1.007825032230
         H            3.283684143979     0.887100903675     0.465996650939     1.007825032230

  Basis Set: AUG-CC-PVTZ
    Blend: AUG-CC-PVTZ
  Basis Set: (AUG-CC-PVTZ AUX)
    Blend: AUG-CC-PVTZ-JKFIT
	 Reference Energy          =    -344.3334258625774851 [Eh]
	 Singles Energy            =      -0.0000000000000000 [Eh]
	 Same-Spin Energy          =      -0.3697142134673295 [Eh]
	 Opposite-Spin Energy      =      -1.2744431498578577 [Eh]
	 Correlation Energy        =      -1.6441573633251871 [Eh]
	 Total Energy              =    -345.9775832259026629 [Eh]

	 ================> DF-SCS-MP2 Energies <==================
	-----------------------------------------------------------
	 SCS Same-Spin Scale       =       0.3333333333333333 [-]
	 SCS Opposite-Spin Scale   =       1.2000000000000000 [-]
	 SCS Same-Spin Energy      =      -0.1232380711557765 [Eh]
	 SCS Opposite-Spin Energy  =      -1.5293317798294292 [Eh]
	 SCS Correlation Energy    =      -1.6525698509852058 [Eh]
	 SCS Total Energy          =    -345.9859957135627155 [Eh]
	-----------------------------------------------------------

  Dipole Moment: [D]
     X:     0.1163      Y:     0.0000      Z:     0.3923     Total:     0.4092

*** Psi4 exiting successfully. Buy a developer a beer!
