                               Psi4 1.4a3.dev225

  ==> Input File <==

--------------------------------------------------------------------------
#psi4
#
memory 32 gb

molecule  {
0 1
  N       -1.3887980     0.0000000    -0.3392240
  N        1.3887980     0.0000000     0.3392250
  C        0.7344320    -1.1908000    -0.1932070
  C       -0.9278511    -1.1907989     0.2440898
  C        0.7344330     1.1908010    -0.1932060
  C       -0.7344330     1.1908010     0.1932070
  C       -2.8075490    -0.0000010    -0.0148730
  C        2.8075480    -0.0000010     0.0148720
  H        0.8178840    -1.2446340    -1.2957380
  H        1.2273880    -2.0759070     0.2263630
  H        1.2273890     2.0759080     0.2263640
  H        0.8178840     1.2446360    -1.2957370
  H       -1.2273880    -2.0759070    -0.2263610
  H       -0.8178840    -1.2446340     1.2957380
  H       -0.8178830     1.2446350     1.2957380
  H       -1.2273890     2.0759080    -0.2263620
  H       -3.2785690     0.8871010    -0.4480200
  H       -2.9984770    -0.0000010     1.0736860
  H       -3.2785690    -0.8871030    -0.4480190
  H        2.9984750    -0.0000010    -1.0736880
  H        3.2785690    -0.8871030     0.4480170
  H        3.2785700     0.8871010     0.4480170
units angstrom
no_reorient  #important for SAPT in psi4, default
symmetry c1  #important for SAPT in psi4, default
}

set PROPERTIES_ORIGIN ["COM"]
properties('MP2/aug-cc-pvtz', properties = ['dipole'])
--------------------------------------------------------------------------

    Molecular point group: c1
  Charge       = 0
  Multiplicity = 1
  Basis Set: AUG-CC-PVTZ
    Blend: AUG-CC-PVTZ
  Basis Set: (AUG-CC-PVTZ AUX)
    Blend: AUG-CC-PVTZ-JKFIT

    Orbital Energies [Eh]
    ---------------------

    Doubly Occupied:

       1A    -15.548026     2A    -15.543630     3A    -11.246944
       4A    -11.243220     5A    -11.242544     6A    -11.242220
       7A    -11.239506     8A    -11.238513     9A     -1.259112
      10A     -1.209701    11A     -1.016127    12A     -0.973387
      13A     -0.907183    14A     -0.871440    15A     -0.829425
      16A     -0.760894    17A     -0.662111    18A     -0.641818
      19A     -0.637785    20A     -0.620169    21A     -0.618517
      22A     -0.578815    23A     -0.549442    24A     -0.544450
      25A     -0.536630    26A     -0.521631    27A     -0.502713
      28A     -0.481023    29A     -0.472874    30A     -0.414267
      31A     -0.364843    32A     -0.350369

  @DF-RHF Final Energy:  -344.31865670016759

   => Energetics <=

    Nuclear Repulsion Energy =            419.1010924298528835
    One-Electron Energy =               -1297.1008414788241225
    Two-Electron Energy =                 533.6810923488036451
    Total Energy =                       -344.3186567001675940
  Basis Set: (AUG-CC-PVTZ AUX)
    Blend: AUG-CC-PVTZ-RI
    Molecular point group: c1

    Geometry (in Angstrom), charge = 0, multiplicity = 1:

       Center              X                  Y                   Z               Mass
    ------------   -----------------  -----------------  -----------------  -----------------
         N           -1.368458631873    -0.000000106840    -0.344574758885    14.003074004430
         N            1.409137368127    -0.000000106840     0.333874241115    14.003074004430
         C            0.754771368127    -1.190800106840    -0.198557758885    12.000000000000
         C           -0.907511731873    -1.190799006840     0.238739041115    12.000000000000
         C            0.754772368127     1.190800893160    -0.198556758885    12.000000000000
         C           -0.714093631873     1.190800893160     0.187856241115    12.000000000000
         C           -2.787209631873    -0.000001106840    -0.020223758885    12.000000000000
         C            2.827887368127    -0.000001106840     0.009521241115    12.000000000000
         H            0.838223368127    -1.244634106840    -1.301088758885     1.007825032230
         H            1.247727368127    -2.075907106840     0.221012241115     1.007825032230
         H            1.247728368127     2.075907893160     0.221013241115     1.007825032230
         H            0.838223368127     1.244635893160    -1.301087758885     1.007825032230
         H           -1.207048631873    -2.075907106840    -0.231711758885     1.007825032230
         H           -0.797544631873    -1.244634106840     1.290387241115     1.007825032230
         H           -0.797543631873     1.244634893160     1.290387241115     1.007825032230
         H           -1.207049631873     2.075907893160    -0.231712758885     1.007825032230
         H           -3.258229631873     0.887100893160    -0.453370758885     1.007825032230
         H           -2.978137631873    -0.000001106840     1.068335241115     1.007825032230
         H           -3.258229631873    -0.887103106840    -0.453369758885     1.007825032230
         H            3.018814368127    -0.000001106840    -1.079038758885     1.007825032230
         H            3.298908368127    -0.887103106840     0.442666241115     1.007825032230
         H            3.298909368127     0.887100893160     0.442666241115     1.007825032230

  Basis Set: AUG-CC-PVTZ
    Blend: AUG-CC-PVTZ
  Basis Set: (AUG-CC-PVTZ AUX)
    Blend: AUG-CC-PVTZ-JKFIT
	 Reference Energy          =    -344.3186567001675940 [Eh]
	 Singles Energy            =      -0.0000000000000000 [Eh]
	 Same-Spin Energy          =      -0.3700291366596736 [Eh]
	 Opposite-Spin Energy      =      -1.2730708229697003 [Eh]
	 Correlation Energy        =      -1.6430999596293741 [Eh]
	 Total Energy              =    -345.9617566597969471 [Eh]

	 ================> DF-SCS-MP2 Energies <==================
	-----------------------------------------------------------
	 SCS Same-Spin Scale       =       0.3333333333333333 [-]
	 SCS Opposite-Spin Scale   =       1.2000000000000000 [-]
	 SCS Same-Spin Energy      =      -0.1233430455532245 [Eh]
	 SCS Opposite-Spin Energy  =      -1.5276849875636402 [Eh]
	 SCS Correlation Energy    =      -1.6510280331168647 [Eh]
	 SCS Total Energy          =    -345.9696847332844527 [Eh]
	-----------------------------------------------------------

  Dipole Moment: [D]
     X:    -0.1275      Y:     0.1149      Z:     0.0550     Total:     0.1802

*** Psi4 exiting successfully. Buy a developer a beer!
