                               Psi4 1.4a3.dev225

  ==> Input File <==

--------------------------------------------------------------------------
#psi4
#
memory 32 gb

molecule  {
0 1
  N       -1.3887980     0.0000000    -0.3392240
  N        1.3887980     0.0000000     0.3392250
  C        0.7344320    -1.1908000    -0.1932070
  C       -0.7344320    -1.1907990     0.1932070
  C        0.7344330     1.1908010    -0.1932060
  C       -0.7344330     1.1908010     0.1932070
  C       -2.8075490    -0.0000010    -0.0148730
  C        2.8075480    -0.0000010     0.0148720
  H        0.8178840    -1.2446340    -1.2957380
  H        1.2273880    -2.0759070     0.2263630
  H        1.2273890     2.0759080     0.2263640
  H        0.8178840     1.2446360    -1.2957370
  H       -1.2273880    -2.0759070    -0.2263610
  H       -0.8178840    -1.2446340     1.2957380
  H       -0.8193907     1.2456076     1.3156574
  H       -1.2273890     2.0759080    -0.2263620
  H       -3.2785690     0.8871010    -0.4480200
  H       -2.9984770    -0.0000010     1.0736860
  H       -3.2785690    -0.8871030    -0.4480190
  H        2.9984750    -0.0000010    -1.0736880
  H        3.2785690    -0.8871030     0.4480170
  H        3.2785700     0.8871010     0.4480170
units angstrom
no_reorient  #important for SAPT in psi4, default
symmetry c1  #important for SAPT in psi4, default
}

set PROPERTIES_ORIGIN ["COM"]
properties('MP2/aug-cc-pvtz', properties = ['dipole'])
--------------------------------------------------------------------------

    Molecular point group: c1
  Charge       = 0
  Multiplicity = 1
  Basis Set: AUG-CC-PVTZ
    Blend: AUG-CC-PVTZ
  Basis Set: (AUG-CC-PVTZ AUX)
    Blend: AUG-CC-PVTZ-JKFIT

    Orbital Energies [Eh]
    ---------------------

    Doubly Occupied:

       1A    -15.545528     2A    -15.545075     3A    -11.245118
       4A    -11.243058     5A    -11.242843     6A    -11.242412
       7A    -11.240206     8A    -11.240153     9A     -1.254542
      10A     -1.202860    11A     -1.022027    12A     -0.988807
      13A     -0.906991    14A     -0.861611    15A     -0.833223
      16A     -0.755551    17A     -0.663341    18A     -0.632636
      19A     -0.627795    20A     -0.624234    21A     -0.620724
      22A     -0.579735    23A     -0.547491    24A     -0.541285
      25A     -0.541039    26A     -0.515924    27A     -0.495165
      28A     -0.488291    29A     -0.461556    30A     -0.454476
      31A     -0.359143    32A     -0.357958

  @DF-RHF Final Energy:  -344.35097563359994

   => Energetics <=

    Nuclear Repulsion Energy =            420.2957471113912788
    One-Electron Energy =               -1299.5318505778134295
    Two-Electron Energy =                 534.8851278328221497
    Total Energy =                       -344.3509756336000009
  Basis Set: (AUG-CC-PVTZ AUX)
    Blend: AUG-CC-PVTZ-RI
    Molecular point group: c1

    Geometry (in Angstrom), charge = 0, multiplicity = 1:

       Center              X                  Y                   Z               Mass
    ------------   -----------------  -----------------  -----------------  -----------------
         N           -1.388784579429    -0.000008685946    -0.339400025364    14.003074004430
         N            1.388811420571    -0.000008685946     0.339048974636    14.003074004430
         C            0.734445420571    -1.190808685946    -0.193383025364    12.000000000000
         C           -0.734418579429    -1.190807685946     0.193030974636    12.000000000000
         C            0.734446420571     1.190792314054    -0.193382025364    12.000000000000
         C           -0.734419579429     1.190792314054     0.193030974636    12.000000000000
         C           -2.807535579429    -0.000009685946    -0.015049025364    12.000000000000
         C            2.807561420571    -0.000009685946     0.014695974636    12.000000000000
         H            0.817897420571    -1.244642685946    -1.295914025364     1.007825032230
         H            1.227401420571    -2.075915685946     0.226186974636     1.007825032230
         H            1.227402420571     2.075899314054     0.226187974636     1.007825032230
         H            0.817897420571     1.244627314054    -1.295913025364     1.007825032230
         H           -1.227374579429    -2.075915685946    -0.226537025364     1.007825032230
         H           -0.817870579429    -1.244642685946     1.295561974636     1.007825032230
         H           -0.819377279429     1.245598914054     1.315481374636     1.007825032230
         H           -1.227375579429     2.075899314054    -0.226538025364     1.007825032230
         H           -3.278555579429     0.887092314054    -0.448196025364     1.007825032230
         H           -2.998463579429    -0.000009685946     1.073509974636     1.007825032230
         H           -3.278555579429    -0.887111685946    -0.448195025364     1.007825032230
         H            2.998488420571    -0.000009685946    -1.073864025364     1.007825032230
         H            3.278582420571    -0.887111685946     0.447840974636     1.007825032230
         H            3.278583420571     0.887092314054     0.447840974636     1.007825032230

  Basis Set: AUG-CC-PVTZ
    Blend: AUG-CC-PVTZ
  Basis Set: (AUG-CC-PVTZ AUX)
    Blend: AUG-CC-PVTZ-JKFIT
	 Reference Energy          =    -344.3509756335999441 [Eh]
	 Singles Energy            =      -0.0000000000000000 [Eh]
	 Same-Spin Energy          =      -0.3689780477460426 [Eh]
	 Opposite-Spin Energy      =      -1.2705400313026103 [Eh]
	 Correlation Energy        =      -1.6395180790486530 [Eh]
	 Total Energy              =    -345.9904937126485720 [Eh]

	 ================> DF-SCS-MP2 Energies <==================
	-----------------------------------------------------------
	 SCS Same-Spin Scale       =       0.3333333333333333 [-]
	 SCS Opposite-Spin Scale   =       1.2000000000000000 [-]
	 SCS Same-Spin Energy      =      -0.1229926825820142 [Eh]
	 SCS Opposite-Spin Energy  =      -1.5246480375631324 [Eh]
	 SCS Correlation Energy    =      -1.6476407201451466 [Eh]
	 SCS Total Energy          =    -345.9986163537450921 [Eh]
	-----------------------------------------------------------

  Dipole Moment: [D]
     X:     0.0010      Y:    -0.0096      Z:    -0.0201     Total:     0.0223

*** Psi4 exiting successfully. Buy a developer a beer!
