                               Psi4 1.4a3.dev225

  ==> Input File <==

--------------------------------------------------------------------------
#psi4
#
memory 32 gb

molecule  {
0 1
  N       -1.3887980     0.0000000    -0.3392240
  N        1.3887980     0.0000000     0.3392250
  C        0.7344320    -1.1908000    -0.1932070
  C       -0.7344320    -1.1907990     0.1932070
  C        0.7344330     1.1908010    -0.1932060
  C       -0.8241124     1.0276042     0.1202384
  C       -2.8075490    -0.0000010    -0.0148730
  C        2.8075480    -0.0000010     0.0148720
  H        0.8178840    -1.2446340    -1.2957380
  H        1.2273880    -2.0759070     0.2263630
  H        1.2273890     2.0759080     0.2263640
  H        0.8178840     1.2446360    -1.2957370
  H       -1.2273880    -2.0759070    -0.2263610
  H       -0.8178840    -1.2446340     1.2957380
  H       -0.8178830     1.2446350     1.2957380
  H       -1.2273890     2.0759080    -0.2263620
  H       -3.2785690     0.8871010    -0.4480200
  H       -2.9984770    -0.0000010     1.0736860
  H       -3.2785690    -0.8871030    -0.4480190
  H        2.9984750    -0.0000010    -1.0736880
  H        3.2785690    -0.8871030     0.4480170
  H        3.2785700     0.8871010     0.4480170
units angstrom
no_reorient  #important for SAPT in psi4, default
symmetry c1  #important for SAPT in psi4, default
}

set PROPERTIES_ORIGIN ["COM"]
properties('MP2/aug-cc-pvtz', properties = ['dipole'])
--------------------------------------------------------------------------

    Molecular point group: c1
  Charge       = 0
  Multiplicity = 1
  Basis Set: AUG-CC-PVTZ
    Blend: AUG-CC-PVTZ
  Basis Set: (AUG-CC-PVTZ AUX)
    Blend: AUG-CC-PVTZ-JKFIT

    Orbital Energies [Eh]
    ---------------------

    Doubly Occupied:

       1A    -15.548578     2A    -15.543104     3A    -11.250844
       4A    -11.249621     5A    -11.247962     6A    -11.246080
       7A    -11.243190     8A    -11.238734     9A     -1.300427
      10A     -1.219528    11A     -1.021706    12A     -0.987152
      13A     -0.920394    14A     -0.876422    15A     -0.828108
      16A     -0.752780    17A     -0.673943    18A     -0.648149
      19A     -0.641443    20A     -0.622396    21A     -0.619475
      22A     -0.594001    23A     -0.553584    24A     -0.543680
      25A     -0.537661    26A     -0.517281    27A     -0.504108
      28A     -0.478577    29A     -0.471989    30A     -0.426412
      31A     -0.357628    32A     -0.348977

  @DF-RHF Final Energy:  -344.30224409755897

   => Energetics <=

    Nuclear Repulsion Energy =            423.2724137596149490
    One-Electron Energy =               -1305.1214527934032503
    Two-Electron Energy =                 537.5467949362293894
    Total Energy =                       -344.3022440975589689
  Basis Set: (AUG-CC-PVTZ AUX)
    Blend: AUG-CC-PVTZ-RI
    Molecular point group: c1

    Geometry (in Angstrom), charge = 0, multiplicity = 1:

       Center              X                  Y                   Z               Mass
    ------------   -----------------  -----------------  -----------------  -----------------
         N           -1.379367528868     0.017161097327    -0.331550987221    14.003074004430
         N            1.398228471132     0.017161097327     0.346898012779    14.003074004430
         C            0.743862471132    -1.173638902673    -0.185533987221    12.000000000000
         C           -0.725001528868    -1.173637902673     0.200880012779    12.000000000000
         C            0.743863471132     1.207962097327    -0.185532987221    12.000000000000
         C           -0.814681928868     1.044765297327     0.127911412779    12.000000000000
         C           -2.798118528868     0.017160097327    -0.007199987221    12.000000000000
         C            2.816978471132     0.017160097327     0.022545012779    12.000000000000
         H            0.827314471132    -1.227472902673    -1.288064987221     1.007825032230
         H            1.236818471132    -2.058745902673     0.234036012779     1.007825032230
         H            1.236819471132     2.093069097327     0.234037012779     1.007825032230
         H            0.827314471132     1.261797097327    -1.288063987221     1.007825032230
         H           -1.217957528868    -2.058745902673    -0.218687987221     1.007825032230
         H           -0.808453528868    -1.227472902673     1.303411012779     1.007825032230
         H           -0.808452528868     1.261796097327     1.303411012779     1.007825032230
         H           -1.217958528868     2.093069097327    -0.218688987221     1.007825032230
         H           -3.269138528868     0.904262097327    -0.440346987221     1.007825032230
         H           -2.989046528868     0.017160097327     1.081359012779     1.007825032230
         H           -3.269138528868    -0.869941902673    -0.440345987221     1.007825032230
         H            3.007905471132     0.017160097327    -1.066014987221     1.007825032230
         H            3.287999471132    -0.869941902673     0.455690012779     1.007825032230
         H            3.288000471132     0.904262097327     0.455690012779     1.007825032230

  Basis Set: AUG-CC-PVTZ
    Blend: AUG-CC-PVTZ
  Basis Set: (AUG-CC-PVTZ AUX)
    Blend: AUG-CC-PVTZ-JKFIT
	 Reference Energy          =    -344.3022440975589689 [Eh]
	 Singles Energy            =      -0.0000000000000000 [Eh]
	 Same-Spin Energy          =      -0.3717765919315457 [Eh]
	 Opposite-Spin Energy      =      -1.2732018161727026 [Eh]
	 Correlation Energy        =      -1.6449784081042482 [Eh]
	 Total Energy              =    -345.9472225056632055 [Eh]

	 ================> DF-SCS-MP2 Energies <==================
	-----------------------------------------------------------
	 SCS Same-Spin Scale       =       0.3333333333333333 [-]
	 SCS Opposite-Spin Scale   =       1.2000000000000000 [-]
	 SCS Same-Spin Energy      =      -0.1239255306438485 [Eh]
	 SCS Opposite-Spin Energy  =      -1.5278421794072430 [Eh]
	 SCS Correlation Energy    =      -1.6517677100510915 [Eh]
	 SCS Total Energy          =    -345.9540118076100725 [Eh]
	-----------------------------------------------------------

  Dipole Moment: [D]
     X:    -0.2503      Y:    -0.5299      Z:    -0.2807     Total:     0.6498

*** Psi4 exiting successfully. Buy a developer a beer!
