                               Psi4 1.4a3.dev225

  ==> Input File <==

--------------------------------------------------------------------------
#psi4
#
memory 32 gb

molecule  {
0 1
  N       -1.3887980     0.0000000    -0.3392240
  N        1.3887980     0.0000000     0.3392250
  C        0.7344320    -1.1908000    -0.1932070
  C       -0.7344320    -1.1907990     0.1932070
  C        0.7344330     1.1908010    -0.1932060
  C       -0.7344330     1.1908010     0.1932070
  C       -2.8075490    -0.0000010    -0.0148730
  C        2.8075480    -0.0000010     0.0148720
  H        0.8178840    -1.2446340    -1.2957380
  H        1.2273880    -2.0759070     0.2263630
  H        1.2273890     2.0759080     0.2263640
  H        0.8178840     1.2446360    -1.2957370
  H       -1.1824335    -1.9951907    -0.1880990
  H       -0.8178840    -1.2446340     1.2957380
  H       -0.8178830     1.2446350     1.2957380
  H       -1.2273890     2.0759080    -0.2263620
  H       -3.2785690     0.8871010    -0.4480200
  H       -2.9984770    -0.0000010     1.0736860
  H       -3.2785690    -0.8871030    -0.4480190
  H        2.9984750    -0.0000010    -1.0736880
  H        3.2785690    -0.8871030     0.4480170
  H        3.2785700     0.8871010     0.4480170
units angstrom
no_reorient  #important for SAPT in psi4, default
symmetry c1  #important for SAPT in psi4, default
}

set PROPERTIES_ORIGIN ["COM"]
properties('MP2/aug-cc-pvtz', properties = ['dipole'])
--------------------------------------------------------------------------

    Molecular point group: c1
  Charge       = 0
  Multiplicity = 1
  Basis Set: AUG-CC-PVTZ
    Blend: AUG-CC-PVTZ
  Basis Set: (AUG-CC-PVTZ AUX)
    Blend: AUG-CC-PVTZ-JKFIT

    Orbital Energies [Eh]
    ---------------------

    Doubly Occupied:

       1A    -15.544430     2A    -15.544090     3A    -11.242313
       4A    -11.241975     5A    -11.241577     6A    -11.240142
       7A    -11.239631     8A    -11.230001     9A     -1.254224
      10A     -1.202435    11A     -1.025553    12A     -0.989201
      13A     -0.907087    14A     -0.866837    15A     -0.834924
      16A     -0.757798    17A     -0.667257    18A     -0.638054
      19A     -0.627301    20A     -0.624763    21A     -0.620578
      22A     -0.579280    23A     -0.550761    24A     -0.543806
      25A     -0.540633    26A     -0.516811    27A     -0.496515
      28A     -0.488590    29A     -0.463809    30A     -0.454269
      31A     -0.358681    32A     -0.357384

  @DF-RHF Final Energy:  -344.34592481452387

   => Energetics <=

    Nuclear Repulsion Energy =            420.9512815403533637
    One-Electron Energy =               -1300.8129893979812550
    Two-Electron Energy =                 535.5157830431039656
    Total Energy =                       -344.3459248145238689
  Basis Set: (AUG-CC-PVTZ AUX)
    Blend: AUG-CC-PVTZ-RI
    Molecular point group: c1

    Geometry (in Angstrom), charge = 0, multiplicity = 1:

       Center              X                  Y                   Z               Mass
    ------------   -----------------  -----------------  -----------------  -----------------
         N           -1.389194915333    -0.000712950987    -0.339562020004    14.003074004430
         N            1.388401084667    -0.000712950987     0.338886979996    14.003074004430
         C            0.734035084667    -1.191512950987    -0.193545020004    12.000000000000
         C           -0.734828915333    -1.191511950987     0.192868979996    12.000000000000
         C            0.734036084667     1.190088049013    -0.193544020004    12.000000000000
         C           -0.734829915333     1.190088049013     0.192868979996    12.000000000000
         C           -2.807945915333    -0.000713950987    -0.015211020004    12.000000000000
         C            2.807151084667    -0.000713950987     0.014533979996    12.000000000000
         H            0.817487084667    -1.245346950987    -1.296076020004     1.007825032230
         H            1.226991084667    -2.076619950987     0.226024979996     1.007825032230
         H            1.226992084667     2.075195049013     0.226025979996     1.007825032230
         H            0.817487084667     1.243923049013    -1.296075020004     1.007825032230
         H           -1.182830415333    -1.995903650987    -0.188437020004     1.007825032230
         H           -0.818280915333    -1.245346950987     1.295399979996     1.007825032230
         H           -0.818279915333     1.243922049013     1.295399979996     1.007825032230
         H           -1.227785915333     2.075195049013    -0.226700020004     1.007825032230
         H           -3.278965915333     0.886388049013    -0.448358020004     1.007825032230
         H           -2.998873915333    -0.000713950987     1.073347979996     1.007825032230
         H           -3.278965915333    -0.887815950987    -0.448357020004     1.007825032230
         H            2.998078084667    -0.000713950987    -1.074026020004     1.007825032230
         H            3.278172084667    -0.887815950987     0.447678979996     1.007825032230
         H            3.278173084667     0.886388049013     0.447678979996     1.007825032230

  Basis Set: AUG-CC-PVTZ
    Blend: AUG-CC-PVTZ
  Basis Set: (AUG-CC-PVTZ AUX)
    Blend: AUG-CC-PVTZ-JKFIT
	 Reference Energy          =    -344.3459248145238689 [Eh]
	 Singles Energy            =      -0.0000000000000000 [Eh]
	 Same-Spin Energy          =      -0.3688416954273772 [Eh]
	 Opposite-Spin Energy      =      -1.2697854693722925 [Eh]
	 Correlation Energy        =      -1.6386271647996697 [Eh]
	 Total Energy              =    -345.9845519793235553 [Eh]

	 ================> DF-SCS-MP2 Energies <==================
	-----------------------------------------------------------
	 SCS Same-Spin Scale       =       0.3333333333333333 [-]
	 SCS Opposite-Spin Scale   =       1.2000000000000000 [-]
	 SCS Same-Spin Energy      =      -0.1229472318091257 [Eh]
	 SCS Opposite-Spin Energy  =      -1.5237425632467509 [Eh]
	 SCS Correlation Energy    =      -1.6466897950558768 [Eh]
	 SCS Total Energy          =    -345.9926146095797321 [Eh]
	-----------------------------------------------------------

  Dipole Moment: [D]
     X:    -0.0306      Y:    -0.0573      Z:    -0.0085     Total:     0.0656

*** Psi4 exiting successfully. Buy a developer a beer!
