                               Psi4 1.4a3.dev225

  ==> Input File <==

--------------------------------------------------------------------------
#psi4
#
memory 32 gb

molecule  {
0 1
  N       -1.3887980     0.0000000    -0.3392240
  N        1.3887980     0.0000000     0.3392250
  C        0.7344320    -1.1908000    -0.1932070
  C       -0.7537739    -1.1907990     0.1982953
  C        0.7344330     1.1908010    -0.1932060
  C       -0.7344330     1.1908010     0.1932070
  C       -2.8075490    -0.0000010    -0.0148730
  C        2.8075480    -0.0000010     0.0148720
  H        0.8178840    -1.2446340    -1.2957380
  H        1.2273880    -2.0759070     0.2263630
  H        1.2273890     2.0759080     0.2263640
  H        0.8178840     1.2446360    -1.2957370
  H       -1.2273880    -2.0759070    -0.2263610
  H       -0.8178840    -1.2446340     1.2957380
  H       -0.8178830     1.2446350     1.2957380
  H       -1.2273890     2.0759080    -0.2263620
  H       -3.2785690     0.8871010    -0.4480200
  H       -2.9984770    -0.0000010     1.0736860
  H       -3.2785690    -0.8871030    -0.4480190
  H        2.9984750    -0.0000010    -1.0736880
  H        3.2785690    -0.8871030     0.4480170
  H        3.2785700     0.8871010     0.4480170
units angstrom
no_reorient  #important for SAPT in psi4, default
symmetry c1  #important for SAPT in psi4, default
}

set PROPERTIES_ORIGIN ["COM"]
properties('MP2/aug-cc-pvtz', properties = ['dipole'])
--------------------------------------------------------------------------

    Molecular point group: c1
  Charge       = 0
  Multiplicity = 1
  Basis Set: AUG-CC-PVTZ
    Blend: AUG-CC-PVTZ
  Basis Set: (AUG-CC-PVTZ AUX)
    Blend: AUG-CC-PVTZ-JKFIT

    Orbital Energies [Eh]
    ---------------------

    Doubly Occupied:

       1A    -15.545238     2A    -15.544870     3A    -11.243229
       4A    -11.243050     5A    -11.242451     6A    -11.241944
       7A    -11.239959     8A    -11.239946     9A     -1.254591
      10A     -1.203623    11A     -1.020767    12A     -0.987514
      13A     -0.907027    14A     -0.863077    15A     -0.832755
      16A     -0.757164    17A     -0.662752    18A     -0.633200
      19A     -0.627772    20A     -0.625250    21A     -0.621050
      22A     -0.579710    23A     -0.547447    24A     -0.541557
      25A     -0.540246    26A     -0.517107    27A     -0.496207
      28A     -0.487790    29A     -0.463115    30A     -0.451567
      31A     -0.359813    32A     -0.357652

  @DF-RHF Final Energy:  -344.35125976130763

   => Energetics <=

    Nuclear Repulsion Energy =            420.2586494553979719
    One-Electron Energy =               -1299.4609478303191281
    Two-Electron Energy =                 534.8510386136135821
    Total Energy =                       -344.3512597613075741
  Basis Set: (AUG-CC-PVTZ AUX)
    Blend: AUG-CC-PVTZ-RI
    Molecular point group: c1

    Geometry (in Angstrom), charge = 0, multiplicity = 1:

       Center              X                  Y                   Z               Mass
    ------------   -----------------  -----------------  -----------------  -----------------
         N           -1.386763969598    -0.000000096325    -0.339759172533    14.003074004430
         N            1.390832030402    -0.000000096325     0.338689827467    14.003074004430
         C            0.736466030402    -1.190800096325    -0.193742172533    12.000000000000
         C           -0.751739869598    -1.190799096325     0.197760127467    12.000000000000
         C            0.736467030402     1.190800903675    -0.193741172533    12.000000000000
         C           -0.732398969598     1.190800903675     0.192671827467    12.000000000000
         C           -2.805514969598    -0.000001096325    -0.015408172533    12.000000000000
         C            2.809582030402    -0.000001096325     0.014336827467    12.000000000000
         H            0.819918030402    -1.244634096325    -1.296273172533     1.007825032230
         H            1.229422030402    -2.075907096325     0.225827827467     1.007825032230
         H            1.229423030402     2.075907903675     0.225828827467     1.007825032230
         H            0.819918030402     1.244635903675    -1.296272172533     1.007825032230
         H           -1.225353969598    -2.075907096325    -0.226896172533     1.007825032230
         H           -0.815849969598    -1.244634096325     1.295202827467     1.007825032230
         H           -0.815848969598     1.244634903675     1.295202827467     1.007825032230
         H           -1.225354969598     2.075907903675    -0.226897172533     1.007825032230
         H           -3.276534969598     0.887100903675    -0.448555172533     1.007825032230
         H           -2.996442969598    -0.000001096325     1.073150827467     1.007825032230
         H           -3.276534969598    -0.887103096325    -0.448554172533     1.007825032230
         H            3.000509030402    -0.000001096325    -1.074223172533     1.007825032230
         H            3.280603030402    -0.887103096325     0.447481827467     1.007825032230
         H            3.280604030402     0.887100903675     0.447481827467     1.007825032230

  Basis Set: AUG-CC-PVTZ
    Blend: AUG-CC-PVTZ
  Basis Set: (AUG-CC-PVTZ AUX)
    Blend: AUG-CC-PVTZ-JKFIT
	 Reference Energy          =    -344.3512597613076309 [Eh]
	 Singles Energy            =      -0.0000000000000000 [Eh]
	 Same-Spin Energy          =      -0.3688751492954921 [Eh]
	 Opposite-Spin Energy      =      -1.2703434320712192 [Eh]
	 Correlation Energy        =      -1.6392185813667113 [Eh]
	 Total Energy              =    -345.9904783426743506 [Eh]

	 ================> DF-SCS-MP2 Energies <==================
	-----------------------------------------------------------
	 SCS Same-Spin Scale       =       0.3333333333333333 [-]
	 SCS Opposite-Spin Scale   =       1.2000000000000000 [-]
	 SCS Same-Spin Energy      =      -0.1229583830984974 [Eh]
	 SCS Opposite-Spin Energy  =      -1.5244121184854631 [Eh]
	 SCS Correlation Energy    =      -1.6473705015839604 [Eh]
	 SCS Total Energy          =    -345.9986302628915951 [Eh]
	-----------------------------------------------------------

  Dipole Moment: [D]
     X:    -0.0152      Y:     0.0102      Z:     0.0065     Total:     0.0194

*** Psi4 exiting successfully. Buy a developer a beer!
