                               Psi4 1.4a3.dev225

  ==> Input File <==

--------------------------------------------------------------------------
#psi4
#
memory 32 gb

molecule  {
0 1
  N       -1.3666389     0.0073528    -0.3494039
  N        1.3887980     0.0000000     0.3392250
  C        0.7344320    -1.1908000    -0.1932070
  C       -0.7344320    -1.1907990     0.1932070
  C        0.7344330     1.1908010    -0.1932060
  C       -0.7344330     1.1908010     0.1932070
  C       -2.8075490    -0.0000010    -0.0148730
  C        2.8075480    -0.0000010     0.0148720
  H        0.8178840    -1.2446340    -1.2957380
  H        1.2273880    -2.0759070     0.2263630
  H        1.2273890     2.0759080     0.2263640
  H        0.8178840     1.2446360    -1.2957370
  H       -1.2273880    -2.0759070    -0.2263610
  H       -0.8178840    -1.2446340     1.2957380
  H       -0.8178830     1.2446350     1.2957380
  H       -1.2273890     2.0759080    -0.2263620
  H       -3.2785690     0.8871010    -0.4480200
  H       -2.9984770    -0.0000010     1.0736860
  H       -3.2785690    -0.8871030    -0.4480190
  H        2.9984750    -0.0000010    -1.0736880
  H        3.2785690    -0.8871030     0.4480170
  H        3.2785700     0.8871010     0.4480170
units angstrom
no_reorient  #important for SAPT in psi4, default
symmetry c1  #important for SAPT in psi4, default
}

set PROPERTIES_ORIGIN ["COM"]
properties('MP2/aug-cc-pvtz', properties = ['dipole'])
--------------------------------------------------------------------------

    Molecular point group: c1
  Charge       = 0
  Multiplicity = 1
  Basis Set: AUG-CC-PVTZ
    Blend: AUG-CC-PVTZ
  Basis Set: (AUG-CC-PVTZ AUX)
    Blend: AUG-CC-PVTZ-JKFIT

    Orbital Energies [Eh]
    ---------------------

    Doubly Occupied:

       1A    -15.546483     2A    -15.544595     3A    -11.242666
       4A    -11.241921     5A    -11.241799     6A    -11.241679
       7A    -11.241274     8A    -11.239725     9A     -1.254658
      10A     -1.200984    11A     -1.022669    12A     -0.986244
      13A     -0.906761    14A     -0.861941    15A     -0.833769
      16A     -0.756751    17A     -0.662793    18A     -0.631477
      19A     -0.626435    20A     -0.625578    21A     -0.620178
      22A     -0.577540    23A     -0.547409    24A     -0.542664
      25A     -0.539706    26A     -0.516621    27A     -0.495978
      28A     -0.488733    29A     -0.462603    30A     -0.450151
      31A     -0.361307    32A     -0.357882

  @DF-RHF Final Energy:  -344.35040615178343

   => Energetics <=

    Nuclear Repulsion Energy =            420.4915108195353923
    One-Electron Energy =               -1299.9418833559182076
    Two-Electron Energy =                 535.0999663845993837
    Total Energy =                       -344.3504061517834316
  Basis Set: (AUG-CC-PVTZ AUX)
    Blend: AUG-CC-PVTZ-RI
    Molecular point group: c1

    Geometry (in Angstrom), charge = 0, multiplicity = 1:

       Center              X                  Y                   Z               Mass
    ------------   -----------------  -----------------  -----------------  -----------------
         N           -1.369357925702     0.006450445669    -0.348154835169    14.003074004430
         N            1.386078974298    -0.000902354331     0.340474064831    14.003074004430
         C            0.731712974298    -1.191702354331    -0.191957935169    12.000000000000
         C           -0.737151025702    -1.191701354331     0.194456064831    12.000000000000
         C            0.731713974298     1.189898645669    -0.191956935169    12.000000000000
         C           -0.737152025702     1.189898645669     0.194456064831    12.000000000000
         C           -2.810268025702    -0.000903354331    -0.013623935169    12.000000000000
         C            2.804828974298    -0.000903354331     0.016121064831    12.000000000000
         H            0.815164974298    -1.245536354331    -1.294488935169     1.007825032230
         H            1.224668974298    -2.076809354331     0.227612064831     1.007825032230
         H            1.224669974298     2.075005645669     0.227613064831     1.007825032230
         H            0.815164974298     1.243733645669    -1.294487935169     1.007825032230
         H           -1.230107025702    -2.076809354331    -0.225111935169     1.007825032230
         H           -0.820603025702    -1.245536354331     1.296987064831     1.007825032230
         H           -0.820602025702     1.243732645669     1.296987064831     1.007825032230
         H           -1.230108025702     2.075005645669    -0.225112935169     1.007825032230
         H           -3.281288025702     0.886198645669    -0.446770935169     1.007825032230
         H           -3.001196025702    -0.000903354331     1.074935064831     1.007825032230
         H           -3.281288025702    -0.888005354331    -0.446769935169     1.007825032230
         H            2.995755974298    -0.000903354331    -1.072438935169     1.007825032230
         H            3.275849974298    -0.888005354331     0.449266064831     1.007825032230
         H            3.275850974298     0.886198645669     0.449266064831     1.007825032230

  Basis Set: AUG-CC-PVTZ
    Blend: AUG-CC-PVTZ
  Basis Set: (AUG-CC-PVTZ AUX)
    Blend: AUG-CC-PVTZ-JKFIT
	 Reference Energy          =    -344.3504061517834316 [Eh]
	 Singles Energy            =      -0.0000000000000000 [Eh]
	 Same-Spin Energy          =      -0.3690352621413460 [Eh]
	 Opposite-Spin Energy      =      -1.2707500213700964 [Eh]
	 Correlation Energy        =      -1.6397852835114424 [Eh]
	 Total Energy              =    -345.9901914352948893 [Eh]

	 ================> DF-SCS-MP2 Energies <==================
	-----------------------------------------------------------
	 SCS Same-Spin Scale       =       0.3333333333333333 [-]
	 SCS Opposite-Spin Scale   =       1.2000000000000000 [-]
	 SCS Same-Spin Energy      =      -0.1230117540471153 [Eh]
	 SCS Opposite-Spin Energy  =      -1.5249000256441156 [Eh]
	 SCS Correlation Energy    =      -1.6479117796912310 [Eh]
	 SCS Total Energy          =    -345.9983179314746735 [Eh]
	-----------------------------------------------------------

  Dipole Moment: [D]
     X:    -0.0749      Y:    -0.0210      Z:     0.0349     Total:     0.0853

*** Psi4 exiting successfully. Buy a developer a beer!
