                               Psi4 1.4a3.dev225

  ==> Input File <==

--------------------------------------------------------------------------
#psi4
#
memory 32 gb

molecule  {
0 1
  N       -1.3887980     0.0000000    -0.3392240
  N        1.3887980     0.0000000     0.3392250
  C        0.7344320    -1.1908000    -0.1932070
  C       -0.7344320    -1.1907990     0.1932070
  C        0.7344330     1.1908010    -0.1932060
  C       -0.7344330     1.1908010     0.1932070
  C       -2.8075490    -0.0000010    -0.0148730
  C        2.8075480    -0.0000010     0.0148720
  H        0.8178840    -1.2446340    -1.2957380
  H        1.2273880    -2.0759070     0.2263630
  H        1.3172980     2.2373404     0.3028883
  H        0.8178840     1.2446360    -1.2957370
  H       -1.2273880    -2.0759070    -0.2263610
  H       -0.8178840    -1.2446340     1.2957380
  H       -0.8178830     1.2446350     1.2957380
  H       -1.2273890     2.0759080    -0.2263620
  H       -3.2785690     0.8871010    -0.4480200
  H       -2.9984770    -0.0000010     1.0736860
  H       -3.2785690    -0.8871030    -0.4480190
  H        2.9984750    -0.0000010    -1.0736880
  H        3.2785690    -0.8871030     0.4480170
  H        3.2785700     0.8871010     0.4480170
units angstrom
no_reorient  #important for SAPT in psi4, default
symmetry c1  #important for SAPT in psi4, default
}

set PROPERTIES_ORIGIN ["COM"]
properties('MP2/aug-cc-pvtz', properties = ['dipole'])
--------------------------------------------------------------------------

    Molecular point group: c1
  Charge       = 0
  Multiplicity = 1
  Basis Set: AUG-CC-PVTZ
    Blend: AUG-CC-PVTZ
  Basis Set: (AUG-CC-PVTZ AUX)
    Blend: AUG-CC-PVTZ-JKFIT

    Orbital Energies [Eh]
    ---------------------

    Doubly Occupied:

       1A    -15.547820     2A    -15.546936     3A    -11.265976
       4A    -11.245267     5A    -11.244721     6A    -11.244109
       7A    -11.241523     8A    -11.240222     9A     -1.256150
      10A     -1.204308    11A     -1.020030    12A     -0.989252
      13A     -0.907654    14A     -0.858018    15A     -0.830825
      16A     -0.756382    17A     -0.660506    18A     -0.629035
      19A     -0.627672    20A     -0.623115    21A     -0.622007
      22A     -0.581200    23A     -0.547279    24A     -0.542404
      25A     -0.532148    26A     -0.515193    27A     -0.492786
      28A     -0.490999    29A     -0.459114    30A     -0.447074
      31A     -0.360712    32A     -0.359351

  @DF-RHF Final Energy:  -344.33142066806255

   => Energetics <=

    Nuclear Repulsion Energy =            419.4389400864087065
    One-Electron Energy =               -1297.7611468067925671
    Two-Electron Energy =                 533.9907860523212548
    Total Energy =                       -344.3314206680626057
  Basis Set: (AUG-CC-PVTZ AUX)
    Blend: AUG-CC-PVTZ-RI
    Molecular point group: c1

    Geometry (in Angstrom), charge = 0, multiplicity = 1:

       Center              X                  Y                   Z               Mass
    ------------   -----------------  -----------------  -----------------  -----------------
         N           -1.389591935822    -0.001425803882    -0.339899937611    14.003074004430
         N            1.388004064178    -0.001425803882     0.338549062389    14.003074004430
         C            0.733638064178    -1.192225803882    -0.193882937611    12.000000000000
         C           -0.735225935822    -1.192224803882     0.192531062389    12.000000000000
         C            0.733639064178     1.189375196118    -0.193881937611    12.000000000000
         C           -0.735226935822     1.189375196118     0.192531062389    12.000000000000
         C           -2.808342935822    -0.001426803882    -0.015548937611    12.000000000000
         C            2.806754064178    -0.001426803882     0.014196062389    12.000000000000
         H            0.817090064178    -1.246059803882    -1.296413937611     1.007825032230
         H            1.226594064178    -2.077332803882     0.225687062389     1.007825032230
         H            1.316504064178     2.235914596118     0.302212362389     1.007825032230
         H            0.817090064178     1.243210196118    -1.296412937611     1.007825032230
         H           -1.228181935822    -2.077332803882    -0.227036937611     1.007825032230
         H           -0.818677935822    -1.246059803882     1.295062062389     1.007825032230
         H           -0.818676935822     1.243209196118     1.295062062389     1.007825032230
         H           -1.228182935822     2.074482196118    -0.227037937611     1.007825032230
         H           -3.279362935822     0.885675196118    -0.448695937611     1.007825032230
         H           -2.999270935822    -0.001426803882     1.073010062389     1.007825032230
         H           -3.279362935822    -0.888528803882    -0.448694937611     1.007825032230
         H            2.997681064178    -0.001426803882    -1.074363937611     1.007825032230
         H            3.277775064178    -0.888528803882     0.447341062389     1.007825032230
         H            3.277776064178     0.885675196118     0.447341062389     1.007825032230

  Basis Set: AUG-CC-PVTZ
    Blend: AUG-CC-PVTZ
  Basis Set: (AUG-CC-PVTZ AUX)
    Blend: AUG-CC-PVTZ-JKFIT
	 Reference Energy          =    -344.3314206680625489 [Eh]
	 Singles Energy            =      -0.0000000000000000 [Eh]
	 Same-Spin Energy          =      -0.3691734337486586 [Eh]
	 Opposite-Spin Energy      =      -1.2721654881037254 [Eh]
	 Correlation Energy        =      -1.6413389218523839 [Eh]
	 Total Energy              =    -345.9727595899149151 [Eh]

	 ================> DF-SCS-MP2 Energies <==================
	-----------------------------------------------------------
	 SCS Same-Spin Scale       =       0.3333333333333333 [-]
	 SCS Opposite-Spin Scale   =       1.2000000000000000 [-]
	 SCS Same-Spin Energy      =      -0.1230578112495529 [Eh]
	 SCS Opposite-Spin Energy  =      -1.5265985857244704 [Eh]
	 SCS Correlation Energy    =      -1.6496563969740232 [Eh]
	 SCS Total Energy          =    -345.9810770650365725 [Eh]
	-----------------------------------------------------------

  Dipole Moment: [D]
     X:    -0.0899      Y:    -0.1719      Z:    -0.0324     Total:     0.1967

*** Psi4 exiting successfully. Buy a developer a beer!
