                               Psi4 1.4a3.dev225

  ==> Input File <==

--------------------------------------------------------------------------
#psi4
#
memory 32 gb

molecule  {
0 1
  N       -1.3887980     0.0000000    -0.3392240
  N        1.3887980     0.0000000     0.3392250
  C        0.7344320    -1.1908000    -0.1932070
  C       -0.6377225    -1.1907991     0.1677656
  C        0.7344330     1.1908010    -0.1932060
  C       -0.7344330     1.1908010     0.1932070
  C       -2.8075490    -0.0000010    -0.0148730
  C        2.8075480    -0.0000010     0.0148720
  H        0.8178840    -1.2446340    -1.2957380
  H        1.2273880    -2.0759070     0.2263630
  H        1.2273890     2.0759080     0.2263640
  H        0.8178840     1.2446360    -1.2957370
  H       -1.2273880    -2.0759070    -0.2263610
  H       -0.8178840    -1.2446340     1.2957380
  H       -0.8178830     1.2446350     1.2957380
  H       -1.2273890     2.0759080    -0.2263620
  H       -3.2785690     0.8871010    -0.4480200
  H       -2.9984770    -0.0000010     1.0736860
  H       -3.2785690    -0.8871030    -0.4480190
  H        2.9984750    -0.0000010    -1.0736880
  H        3.2785690    -0.8871030     0.4480170
  H        3.2785700     0.8871010     0.4480170
units angstrom
no_reorient  #important for SAPT in psi4, default
symmetry c1  #important for SAPT in psi4, default
}

set PROPERTIES_ORIGIN ["COM"]
properties('MP2/aug-cc-pvtz', properties = ['dipole'])
--------------------------------------------------------------------------

    Molecular point group: c1
  Charge       = 0
  Multiplicity = 1
  Basis Set: AUG-CC-PVTZ
    Blend: AUG-CC-PVTZ
  Basis Set: (AUG-CC-PVTZ AUX)
    Blend: AUG-CC-PVTZ-JKFIT

    Orbital Energies [Eh]
    ---------------------

    Doubly Occupied:

       1A    -15.546058     2A    -15.544258     3A    -11.247318
       4A    -11.242888     5A    -11.241036     6A    -11.241002
       7A    -11.240626     8A    -11.240161     9A     -1.255423
      10A     -1.197840    11A     -1.035380    12A     -0.993698
      13A     -0.906530    14A     -0.856019    15A     -0.836899
      16A     -0.754131    17A     -0.666500    18A     -0.633445
      19A     -0.631713    20A     -0.624004    21A     -0.617957
      22A     -0.579991    23A     -0.548454    24A     -0.546930
      25A     -0.538497    26A     -0.514118    27A     -0.502829
      28A     -0.485134    29A     -0.461055    30A     -0.450703
      31A     -0.360743    32A     -0.353374

  @DF-RHF Final Energy:  -344.33923842865050

   => Energetics <=

    Nuclear Repulsion Energy =            421.1148534129715699
    One-Electron Energy =               -1301.1187561539911712
    Two-Electron Energy =                 535.6646643123691547
    Total Energy =                       -344.3392384286504466
  Basis Set: (AUG-CC-PVTZ AUX)
    Blend: AUG-CC-PVTZ-RI
    Molecular point group: c1

    Geometry (in Angstrom), charge = 0, multiplicity = 1:

       Center              X                  Y                   Z               Mass
    ------------   -----------------  -----------------  -----------------  -----------------
         N           -1.398967521071    -0.000000085809    -0.336548778127    14.003074004430
         N            1.378628478929    -0.000000085809     0.341900221873    14.003074004430
         C            0.724262478929    -1.190800085809    -0.190531778127    12.000000000000
         C           -0.647892021071    -1.190799185809     0.170440821873    12.000000000000
         C            0.724263478929     1.190800914191    -0.190530778127    12.000000000000
         C           -0.744602521071     1.190800914191     0.195882221873    12.000000000000
         C           -2.817718521071    -0.000001085809    -0.012197778127    12.000000000000
         C            2.797378478929    -0.000001085809     0.017547221873    12.000000000000
         H            0.807714478929    -1.244634085809    -1.293062778127     1.007825032230
         H            1.217218478929    -2.075907085809     0.229038221873     1.007825032230
         H            1.217219478929     2.075907914191     0.229039221873     1.007825032230
         H            0.807714478929     1.244635914191    -1.293061778127     1.007825032230
         H           -1.237557521071    -2.075907085809    -0.223685778127     1.007825032230
         H           -0.828053521071    -1.244634085809     1.298413221873     1.007825032230
         H           -0.828052521071     1.244634914191     1.298413221873     1.007825032230
         H           -1.237558521071     2.075907914191    -0.223686778127     1.007825032230
         H           -3.288738521071     0.887100914191    -0.445344778127     1.007825032230
         H           -3.008646521071    -0.000001085809     1.076361221873     1.007825032230
         H           -3.288738521071    -0.887103085809    -0.445343778127     1.007825032230
         H            2.988305478929    -0.000001085809    -1.071012778127     1.007825032230
         H            3.268399478929    -0.887103085809     0.450692221873     1.007825032230
         H            3.268400478929     0.887100914191     0.450692221873     1.007825032230

  Basis Set: AUG-CC-PVTZ
    Blend: AUG-CC-PVTZ
  Basis Set: (AUG-CC-PVTZ AUX)
    Blend: AUG-CC-PVTZ-JKFIT
	 Reference Energy          =    -344.3392384286505035 [Eh]
	 Singles Energy            =      -0.0000000000000000 [Eh]
	 Same-Spin Energy          =      -0.3698333143216687 [Eh]
	 Opposite-Spin Energy      =      -1.2716056668872866 [Eh]
	 Correlation Energy        =      -1.6414389812089554 [Eh]
	 Total Energy              =    -345.9806774098594815 [Eh]

	 ================> DF-SCS-MP2 Energies <==================
	-----------------------------------------------------------
	 SCS Same-Spin Scale       =       0.3333333333333333 [-]
	 SCS Opposite-Spin Scale   =       1.2000000000000000 [-]
	 SCS Same-Spin Energy      =      -0.1232777714405562 [Eh]
	 SCS Opposite-Spin Energy  =      -1.5259268002647439 [Eh]
	 SCS Correlation Energy    =      -1.6492045717053001 [Eh]
	 SCS Total Energy          =    -345.9884430003558009 [Eh]
	-----------------------------------------------------------

  Dipole Moment: [D]
     X:     0.0867      Y:    -0.0474      Z:    -0.0365     Total:     0.1053

*** Psi4 exiting successfully. Buy a developer a beer!
