                               Psi4 1.4a3.dev225

  ==> Input File <==

--------------------------------------------------------------------------
#psi4
#
memory 32 gb

molecule  {
0 1
  N       -1.4107578    -0.0077155    -0.3288819
  N        1.3887980     0.0000000     0.3392250
  C        0.7344320    -1.1908000    -0.1932070
  C       -0.7344320    -1.1907990     0.1932070
  C        0.7344330     1.1908010    -0.1932060
  C       -0.7344330     1.1908010     0.1932070
  C       -2.8075490    -0.0000010    -0.0148730
  C        2.8075480    -0.0000010     0.0148720
  H        0.8178840    -1.2446340    -1.2957380
  H        1.2273880    -2.0759070     0.2263630
  H        1.2273890     2.0759080     0.2263640
  H        0.8178840     1.2446360    -1.2957370
  H       -1.2273880    -2.0759070    -0.2263610
  H       -0.8178840    -1.2446340     1.2957380
  H       -0.8178830     1.2446350     1.2957380
  H       -1.2273890     2.0759080    -0.2263620
  H       -3.2785690     0.8871010    -0.4480200
  H       -2.9984770    -0.0000010     1.0736860
  H       -3.2785690    -0.8871030    -0.4480190
  H        2.9984750    -0.0000010    -1.0736880
  H        3.2785690    -0.8871030     0.4480170
  H        3.2785700     0.8871010     0.4480170
units angstrom
no_reorient  #important for SAPT in psi4, default
symmetry c1  #important for SAPT in psi4, default
}

set PROPERTIES_ORIGIN ["COM"]
properties('MP2/aug-cc-pvtz', properties = ['dipole'])
--------------------------------------------------------------------------

    Molecular point group: c1
  Charge       = 0
  Multiplicity = 1
  Basis Set: AUG-CC-PVTZ
    Blend: AUG-CC-PVTZ
  Basis Set: (AUG-CC-PVTZ AUX)
    Blend: AUG-CC-PVTZ-JKFIT

    Orbital Energies [Eh]
    ---------------------

    Doubly Occupied:

       1A    -15.545515     2A    -15.543606     3A    -11.244057
       4A    -11.243660     5A    -11.243411     6A    -11.242710
       7A    -11.240521     8A    -11.238353     9A     -1.254534
      10A     -1.204743    11A     -1.022077    12A     -0.991539
      13A     -0.907254    14A     -0.862049    15A     -0.832810
      16A     -0.756663    17A     -0.663675    18A     -0.633687
      19A     -0.629027    20A     -0.625214    21A     -0.622074
      22A     -0.582062    23A     -0.547798    24A     -0.542471
      25A     -0.539552    26A     -0.516339    27A     -0.494799
      28A     -0.489739    29A     -0.460506    30A     -0.457582
      31A     -0.359186    32A     -0.355603

  @DF-RHF Final Energy:  -344.35143601861068

   => Energetics <=

    Nuclear Repulsion Energy =            420.3041197660962780
    One-Electron Energy =               -1299.5254807807243651
    Two-Electron Energy =                 534.8699249960174029
    Total Energy =                       -344.3514360186106842
  Basis Set: (AUG-CC-PVTZ AUX)
    Blend: AUG-CC-PVTZ-RI
    Molecular point group: c1

    Geometry (in Angstrom), charge = 0, multiplicity = 1:

       Center              X                  Y                   Z               Mass
    ------------   -----------------  -----------------  -----------------  -----------------
         N           -1.408063019977    -0.006768831603    -0.330151078396    14.003074004430
         N            1.391492780023     0.000946668397     0.337955821604    14.003074004430
         C            0.737126780023    -1.189853331603    -0.194476178396    12.000000000000
         C           -0.731737219977    -1.189852331603     0.191937821604    12.000000000000
         C            0.737127780023     1.191747668397    -0.194475178396    12.000000000000
         C           -0.731738219977     1.191747668397     0.191937821604    12.000000000000
         C           -2.804854219977     0.000945668397    -0.016142178396    12.000000000000
         C            2.810242780023     0.000945668397     0.013602821604    12.000000000000
         H            0.820578780023    -1.243687331603    -1.297007178396     1.007825032230
         H            1.230082780023    -2.074960331603     0.225093821604     1.007825032230
         H            1.230083780023     2.076854668397     0.225094821604     1.007825032230
         H            0.820578780023     1.245582668397    -1.297006178396     1.007825032230
         H           -1.224693219977    -2.074960331603    -0.227630178396     1.007825032230
         H           -0.815189219977    -1.243687331603     1.294468821604     1.007825032230
         H           -0.815188219977     1.245581668397     1.294468821604     1.007825032230
         H           -1.224694219977     2.076854668397    -0.227631178396     1.007825032230
         H           -3.275874219977     0.888047668397    -0.449289178396     1.007825032230
         H           -2.995782219977     0.000945668397     1.072416821604     1.007825032230
         H           -3.275874219977    -0.886156331603    -0.449288178396     1.007825032230
         H            3.001169780023     0.000945668397    -1.074957178396     1.007825032230
         H            3.281263780023    -0.886156331603     0.446747821604     1.007825032230
         H            3.281264780023     0.888047668397     0.446747821604     1.007825032230

  Basis Set: AUG-CC-PVTZ
    Blend: AUG-CC-PVTZ
  Basis Set: (AUG-CC-PVTZ AUX)
    Blend: AUG-CC-PVTZ-JKFIT
	 Reference Energy          =    -344.3514360186106842 [Eh]
	 Singles Energy            =      -0.0000000000000000 [Eh]
	 Same-Spin Energy          =      -0.3688809025165071 [Eh]
	 Opposite-Spin Energy      =      -1.2700943067653805 [Eh]
	 Correlation Energy        =      -1.6389752092818877 [Eh]
	 Total Energy              =    -345.9904112278925936 [Eh]

	 ================> DF-SCS-MP2 Energies <==================
	-----------------------------------------------------------
	 SCS Same-Spin Scale       =       0.3333333333333333 [-]
	 SCS Opposite-Spin Scale   =       1.2000000000000000 [-]
	 SCS Same-Spin Energy      =      -0.1229603008388357 [Eh]
	 SCS Opposite-Spin Energy  =      -1.5241131681184565 [Eh]
	 SCS Correlation Energy    =      -1.6470734689572921 [Eh]
	 SCS Total Energy          =    -345.9985094875679579 [Eh]
	-----------------------------------------------------------

  Dipole Moment: [D]
     X:     0.0795      Y:     0.0216      Z:    -0.0368     Total:     0.0903

*** Psi4 exiting successfully. Buy a developer a beer!
