                               Psi4 1.4a3.dev225

  ==> Input File <==

--------------------------------------------------------------------------
#psi4
#
memory 32 gb

molecule  {
0 1
  N       -1.3887980     0.0000000    -0.3392240
  N        1.3887980     0.0000000     0.3392250
  C        0.7344320    -1.1908000    -0.1932070
  C       -0.7344320    -1.1907990     0.1932070
  C        0.7344330     1.1908010    -0.1932060
  C       -0.7344330     1.1908010     0.1932070
  C       -2.8075490    -0.0000010    -0.0148730
  C        2.8075480    -0.0000010     0.0148720
  H        0.8178840    -1.2446340    -1.2957380
  H        1.2273880    -2.0759070     0.2263630
  H        1.2273890     2.0759080     0.2263640
  H        0.8178840     1.2446360    -1.2957370
  H       -1.2273880    -2.0759070    -0.2263610
  H       -0.8028068    -1.2349077     1.0965444
  H       -0.8178830     1.2446350     1.2957380
  H       -1.2273890     2.0759080    -0.2263620
  H       -3.2785690     0.8871010    -0.4480200
  H       -2.9984770    -0.0000010     1.0736860
  H       -3.2785690    -0.8871030    -0.4480190
  H        2.9984750    -0.0000010    -1.0736880
  H        3.2785690    -0.8871030     0.4480170
  H        3.2785700     0.8871010     0.4480170
units angstrom
no_reorient  #important for SAPT in psi4, default
symmetry c1  #important for SAPT in psi4, default
}

set PROPERTIES_ORIGIN ["COM"]
properties('MP2/aug-cc-pvtz', properties = ['dipole'])
--------------------------------------------------------------------------

    Molecular point group: c1
  Charge       = 0
  Multiplicity = 1
  Basis Set: AUG-CC-PVTZ
    Blend: AUG-CC-PVTZ
  Basis Set: (AUG-CC-PVTZ AUX)
    Blend: AUG-CC-PVTZ-JKFIT

    Orbital Energies [Eh]
    ---------------------

    Doubly Occupied:

       1A    -15.544909     2A    -15.541286     3A    -11.242360
       4A    -11.241694     5A    -11.240866     6A    -11.239876
       7A    -11.239434     8A    -11.217552     9A     -1.254944
      10A     -1.202294    11A     -1.028975    12A     -0.990411
      13A     -0.907707    14A     -0.869942    15A     -0.835259
      16A     -0.770820    17A     -0.662255    18A     -0.643492
      19A     -0.631356    20A     -0.626568    21A     -0.621236
      22A     -0.580091    23A     -0.547751    24A     -0.541744
      25A     -0.539856    26A     -0.523119    27A     -0.500142
      28A     -0.491501    29A     -0.460297    30A     -0.453060
      31A     -0.359570    32A     -0.357077

  @DF-RHF Final Energy:  -344.32135196381671

   => Energetics <=

    Nuclear Repulsion Energy =            421.5030862482233260
    One-Electron Energy =               -1301.8339846049263997
    Two-Electron Energy =                 536.0095463928863637
    Total Energy =                       -344.3213519638167099
  Basis Set: (AUG-CC-PVTZ AUX)
    Blend: AUG-CC-PVTZ-RI
    Molecular point group: c1

    Geometry (in Angstrom), charge = 0, multiplicity = 1:

       Center              X                  Y                   Z               Mass
    ------------   -----------------  -----------------  -----------------  -----------------
         N           -1.388931050753    -0.000085995187    -0.337464905400    14.003074004430
         N            1.388664949247    -0.000085995187     0.340984094600    14.003074004430
         C            0.734298949247    -1.190885995187    -0.191447905400    12.000000000000
         C           -0.734565050753    -1.190884995187     0.194966094600    12.000000000000
         C            0.734299949247     1.190715004813    -0.191446905400    12.000000000000
         C           -0.734566050753     1.190715004813     0.194966094600    12.000000000000
         C           -2.807682050753    -0.000086995187    -0.013113905400    12.000000000000
         C            2.807414949247    -0.000086995187     0.016631094600    12.000000000000
         H            0.817750949247    -1.244719995187    -1.293978905400     1.007825032230
         H            1.227254949247    -2.075992995187     0.228122094600     1.007825032230
         H            1.227255949247     2.075822004813     0.228123094600     1.007825032230
         H            0.817750949247     1.244550004813    -1.293977905400     1.007825032230
         H           -1.227521050753    -2.075992995187    -0.224601905400     1.007825032230
         H           -0.802939850753    -1.234993695187     1.098303494600     1.007825032230
         H           -0.818016050753     1.244549004813     1.297497094600     1.007825032230
         H           -1.227522050753     2.075822004813    -0.224602905400     1.007825032230
         H           -3.278702050753     0.887015004813    -0.446260905400     1.007825032230
         H           -2.998610050753    -0.000086995187     1.075445094600     1.007825032230
         H           -3.278702050753    -0.887188995187    -0.446259905400     1.007825032230
         H            2.998341949247    -0.000086995187    -1.071928905400     1.007825032230
         H            3.278435949247    -0.887188995187     0.449776094600     1.007825032230
         H            3.278436949247     0.887015004813     0.449776094600     1.007825032230

  Basis Set: AUG-CC-PVTZ
    Blend: AUG-CC-PVTZ
  Basis Set: (AUG-CC-PVTZ AUX)
    Blend: AUG-CC-PVTZ-JKFIT
	 Reference Energy          =    -344.3213519638167099 [Eh]
	 Singles Energy            =      -0.0000000000000000 [Eh]
	 Same-Spin Energy          =      -0.3686147668052975 [Eh]
	 Opposite-Spin Energy      =      -1.2693764632722293 [Eh]
	 Correlation Energy        =      -1.6379912300775268 [Eh]
	 Total Energy              =    -345.9593431938942558 [Eh]

	 ================> DF-SCS-MP2 Energies <==================
	-----------------------------------------------------------
	 SCS Same-Spin Scale       =       0.3333333333333333 [-]
	 SCS Opposite-Spin Scale   =       1.2000000000000000 [-]
	 SCS Same-Spin Energy      =      -0.1228715889350992 [Eh]
	 SCS Opposite-Spin Energy  =      -1.5232517559266752 [Eh]
	 SCS Correlation Energy    =      -1.6461233448617743 [Eh]
	 SCS Total Energy          =    -345.9674753086785017 [Eh]
	-----------------------------------------------------------

  Dipole Moment: [D]
     X:    -0.0066      Y:    -0.0749      Z:     0.1504     Total:     0.1681

*** Psi4 exiting successfully. Buy a developer a beer!
