                               Psi4 1.4a3.dev225

  ==> Input File <==

--------------------------------------------------------------------------
#psi4
#
memory 32 gb

molecule  {
0 1
  N       -1.3887980     0.0000000    -0.3392240
  N        1.3887980     0.0000000     0.3392250
  C        0.7344320    -1.1908000    -0.1932070
  C       -0.7344320    -1.1907990     0.1932070
  C        0.7344330     1.1908010    -0.1932060
  C       -0.7120132     1.2316002     0.2114491
  C       -2.8075490    -0.0000010    -0.0148730
  C        2.8075480    -0.0000010     0.0148720
  H        0.8178840    -1.2446340    -1.2957380
  H        1.2273880    -2.0759070     0.2263630
  H        1.2273890     2.0759080     0.2263640
  H        0.8178840     1.2446360    -1.2957370
  H       -1.2273880    -2.0759070    -0.2263610
  H       -0.8178840    -1.2446340     1.2957380
  H       -0.8178830     1.2446350     1.2957380
  H       -1.2273890     2.0759080    -0.2263620
  H       -3.2785690     0.8871010    -0.4480200
  H       -2.9984770    -0.0000010     1.0736860
  H       -3.2785690    -0.8871030    -0.4480190
  H        2.9984750    -0.0000010    -1.0736880
  H        3.2785690    -0.8871030     0.4480170
  H        3.2785700     0.8871010     0.4480170
units angstrom
no_reorient  #important for SAPT in psi4, default
symmetry c1  #important for SAPT in psi4, default
}

set PROPERTIES_ORIGIN ["COM"]
properties('MP2/aug-cc-pvtz', properties = ['dipole'])
--------------------------------------------------------------------------

    Molecular point group: c1
  Charge       = 0
  Multiplicity = 1
  Basis Set: AUG-CC-PVTZ
    Blend: AUG-CC-PVTZ
  Basis Set: (AUG-CC-PVTZ AUX)
    Blend: AUG-CC-PVTZ-JKFIT

    Orbital Energies [Eh]
    ---------------------

    Doubly Occupied:

       1A    -15.545647     2A    -15.543932     3A    -11.243016
       4A    -11.242247     5A    -11.242176     6A    -11.241129
       7A    -11.240494     8A    -11.238686     9A     -1.250048
      10A     -1.196747    11A     -1.024307    12A     -0.989055
      13A     -0.904948    14A     -0.860503    15A     -0.832710
      16A     -0.757590    17A     -0.661601    18A     -0.633526
      19A     -0.628034    20A     -0.623502    21A     -0.619833
      22A     -0.577453    23A     -0.548338    24A     -0.541315
      25A     -0.539502    26A     -0.517654    27A     -0.495325
      28A     -0.492766    29A     -0.461032    30A     -0.450955
      31A     -0.359256    32A     -0.357032

  @DF-RHF Final Energy:  -344.34930925841286

   => Energetics <=

    Nuclear Repulsion Energy =            419.7445014226199760
    One-Electron Energy =               -1298.4669037668418241
    Two-Electron Energy =                 534.3730930858089323
    Total Energy =                       -344.3493092584128590
  Basis Set: (AUG-CC-PVTZ AUX)
    Blend: AUG-CC-PVTZ-RI
    Molecular point group: c1

    Geometry (in Angstrom), charge = 0, multiplicity = 1:

       Center              X                  Y                   Z               Mass
    ------------   -----------------  -----------------  -----------------  -----------------
         N           -1.391155481080    -0.004290394738    -0.341142379245    14.003074004430
         N            1.386440518920    -0.004290394738     0.337306620755    14.003074004430
         C            0.732074518920    -1.195090394738    -0.195125379245    12.000000000000
         C           -0.736789481080    -1.195089394738     0.191288620755    12.000000000000
         C            0.732075518920     1.186510605262    -0.195124379245    12.000000000000
         C           -0.714370681080     1.227309805262     0.209530720755    12.000000000000
         C           -2.809906481080    -0.004291394738    -0.016791379245    12.000000000000
         C            2.805190518920    -0.004291394738     0.012953620755    12.000000000000
         H            0.815526518920    -1.248924394738    -1.297656379245     1.007825032230
         H            1.225030518920    -2.080197394738     0.224444620755     1.007825032230
         H            1.225031518920     2.071617605262     0.224445620755     1.007825032230
         H            0.815526518920     1.240345605262    -1.297655379245     1.007825032230
         H           -1.229745481080    -2.080197394738    -0.228279379245     1.007825032230
         H           -0.820241481080    -1.248924394738     1.293819620755     1.007825032230
         H           -0.820240481080     1.240344605262     1.293819620755     1.007825032230
         H           -1.229746481080     2.071617605262    -0.228280379245     1.007825032230
         H           -3.280926481080     0.882810605262    -0.449938379245     1.007825032230
         H           -3.000834481080    -0.004291394738     1.071767620755     1.007825032230
         H           -3.280926481080    -0.891393394738    -0.449937379245     1.007825032230
         H            2.996117518920    -0.004291394738    -1.075606379245     1.007825032230
         H            3.276211518920    -0.891393394738     0.446098620755     1.007825032230
         H            3.276212518920     0.882810605262     0.446098620755     1.007825032230

  Basis Set: AUG-CC-PVTZ
    Blend: AUG-CC-PVTZ
  Basis Set: (AUG-CC-PVTZ AUX)
    Blend: AUG-CC-PVTZ-JKFIT
	 Reference Energy          =    -344.3493092584128590 [Eh]
	 Singles Energy            =      -0.0000000000000000 [Eh]
	 Same-Spin Energy          =      -0.3688140299945485 [Eh]
	 Opposite-Spin Energy      =      -1.2706380589328643 [Eh]
	 Correlation Energy        =      -1.6394520889274129 [Eh]
	 Total Energy              =    -345.9887613473402439 [Eh]

	 ================> DF-SCS-MP2 Energies <==================
	-----------------------------------------------------------
	 SCS Same-Spin Scale       =       0.3333333333333333 [-]
	 SCS Opposite-Spin Scale   =       1.2000000000000000 [-]
	 SCS Same-Spin Energy      =      -0.1229380099981828 [Eh]
	 SCS Opposite-Spin Energy  =      -1.5247656707194370 [Eh]
	 SCS Correlation Energy    =      -1.6477036807176197 [Eh]
	 SCS Total Energy          =    -345.9970129391304567 [Eh]
	-----------------------------------------------------------

  Dipole Moment: [D]
     X:     0.0522      Y:     0.0897      Z:     0.0453     Total:     0.1132

*** Psi4 exiting successfully. Buy a developer a beer!
