                               Psi4 1.4a3.dev225

  ==> Input File <==

--------------------------------------------------------------------------
#psi4
#
memory 32 gb

molecule  {
0 1
  N       -1.3887980     0.0000000    -0.3392240
  N        1.3887980     0.0000000     0.3392250
  C        0.7344320    -1.1908000    -0.1932070
  C       -0.7344320    -1.1907990     0.1932070
  C        0.7344330     1.1908010    -0.1932060
  C       -0.7344330     1.1908010     0.1932070
  C       -2.8075490    -0.0000010    -0.0148730
  C        2.8075480    -0.0000010     0.0148720
  H        0.8178840    -1.2446340    -1.2957380
  H        1.2273880    -2.0759070     0.2263630
  H        1.2273890     2.0759080     0.2263640
  H        0.8216533     1.2470676    -1.3455354
  H       -1.2273880    -2.0759070    -0.2263610
  H       -0.8178840    -1.2446340     1.2957380
  H       -0.8178830     1.2446350     1.2957380
  H       -1.2273890     2.0759080    -0.2263620
  H       -3.2785690     0.8871010    -0.4480200
  H       -2.9984770    -0.0000010     1.0736860
  H       -3.2785690    -0.8871030    -0.4480190
  H        2.9984750    -0.0000010    -1.0736880
  H        3.2785690    -0.8871030     0.4480170
  H        3.2785700     0.8871010     0.4480170
units angstrom
no_reorient  #important for SAPT in psi4, default
symmetry c1  #important for SAPT in psi4, default
}

set PROPERTIES_ORIGIN ["COM"]
properties('MP2/aug-cc-pvtz', properties = ['dipole'])
--------------------------------------------------------------------------

    Molecular point group: c1
  Charge       = 0
  Multiplicity = 1
  Basis Set: AUG-CC-PVTZ
    Blend: AUG-CC-PVTZ
  Basis Set: (AUG-CC-PVTZ AUX)
    Blend: AUG-CC-PVTZ-JKFIT

    Orbital Energies [Eh]
    ---------------------

    Doubly Occupied:

       1A    -15.546298     2A    -15.545134     3A    -11.248670
       4A    -11.243257     5A    -11.243200     6A    -11.242553
       7A    -11.240355     8A    -11.240220     9A     -1.254654
      10A     -1.203056    11A     -1.021648    12A     -0.988748
      13A     -0.907044    14A     -0.861148    15A     -0.833088
      16A     -0.753979    17A     -0.663572    18A     -0.632820
      19A     -0.628008    20A     -0.623269    21A     -0.619497
      22A     -0.579713    23A     -0.547526    24A     -0.541573
      25A     -0.541026    26A     -0.515167    27A     -0.494959
      28A     -0.486520    29A     -0.461794    30A     -0.454760
      31A     -0.359098    32A     -0.358071

  @DF-RHF Final Energy:  -344.34938954962377

   => Energetics <=

    Nuclear Repulsion Energy =            420.1521636822674850
    One-Electron Energy =               -1299.2422586479433448
    Two-Electron Energy =                 534.7407054160521511
    Total Energy =                       -344.3493895496237656
  Basis Set: (AUG-CC-PVTZ AUX)
    Blend: AUG-CC-PVTZ-RI
    Molecular point group: c1

    Geometry (in Angstrom), charge = 0, multiplicity = 1:

       Center              X                  Y                   Z               Mass
    ------------   -----------------  -----------------  -----------------  -----------------
         N           -1.388831183821    -0.000021571261    -0.338784305135    14.003074004430
         N            1.388764816179    -0.000021571261     0.339664694865    14.003074004430
         C            0.734398816179    -1.190821571261    -0.192767305135    12.000000000000
         C           -0.734465183821    -1.190820571261     0.193646694865    12.000000000000
         C            0.734399816179     1.190779428739    -0.192766305135    12.000000000000
         C           -0.734466183821     1.190779428739     0.193646694865    12.000000000000
         C           -2.807582183821    -0.000022571261    -0.014433305135    12.000000000000
         C            2.807514816179    -0.000022571261     0.015311694865    12.000000000000
         H            0.817850816179    -1.244655571261    -1.295298305135     1.007825032230
         H            1.227354816179    -2.075928571261     0.226802694865     1.007825032230
         H            1.227355816179     2.075886428739     0.226803694865     1.007825032230
         H            0.821620116179     1.247046028739    -1.345095705135     1.007825032230
         H           -1.227421183821    -2.075928571261    -0.225921305135     1.007825032230
         H           -0.817917183821    -1.244655571261     1.296177694865     1.007825032230
         H           -0.817916183821     1.244613428739     1.296177694865     1.007825032230
         H           -1.227422183821     2.075886428739    -0.225922305135     1.007825032230
         H           -3.278602183821     0.887079428739    -0.447580305135     1.007825032230
         H           -2.998510183821    -0.000022571261     1.074125694865     1.007825032230
         H           -3.278602183821    -0.887124571261    -0.447579305135     1.007825032230
         H            2.998441816179    -0.000022571261    -1.073248305135     1.007825032230
         H            3.278535816179    -0.887124571261     0.448456694865     1.007825032230
         H            3.278536816179     0.887079428739     0.448456694865     1.007825032230

  Basis Set: AUG-CC-PVTZ
    Blend: AUG-CC-PVTZ
  Basis Set: (AUG-CC-PVTZ AUX)
    Blend: AUG-CC-PVTZ-JKFIT
	 Reference Energy          =    -344.3493895496237656 [Eh]
	 Singles Energy            =      -0.0000000000000000 [Eh]
	 Same-Spin Energy          =      -0.3690498963685553 [Eh]
	 Opposite-Spin Energy      =      -1.2708065491067981 [Eh]
	 Correlation Energy        =      -1.6398564454753535 [Eh]
	 Total Energy              =    -345.9892459950991110 [Eh]

	 ================> DF-SCS-MP2 Energies <==================
	-----------------------------------------------------------
	 SCS Same-Spin Scale       =       0.3333333333333333 [-]
	 SCS Opposite-Spin Scale   =       1.2000000000000000 [-]
	 SCS Same-Spin Energy      =      -0.1230166321228518 [Eh]
	 SCS Opposite-Spin Energy  =      -1.5249678589281577 [Eh]
	 SCS Correlation Energy    =      -1.6479844910510095 [Eh]
	 SCS Total Energy          =    -345.9973740406747993 [Eh]
	-----------------------------------------------------------

  Dipole Moment: [D]
     X:    -0.0026      Y:    -0.0249      Z:     0.0521     Total:     0.0578

*** Psi4 exiting successfully. Buy a developer a beer!
