                               Psi4 1.4a3.dev225

  ==> Input File <==

--------------------------------------------------------------------------
#psi4
#
memory 32 gb

molecule  {
0 1
  N       -1.4045956     0.0149030    -0.3525303
  N        1.3887980     0.0000000     0.3392250
  C        0.7344320    -1.1908000    -0.1932070
  C       -0.7344320    -1.1907990     0.1932070
  C        0.7344330     1.1908010    -0.1932060
  C       -0.7344330     1.1908010     0.1932070
  C       -2.8075490    -0.0000010    -0.0148730
  C        2.8075480    -0.0000010     0.0148720
  H        0.8178840    -1.2446340    -1.2957380
  H        1.2273880    -2.0759070     0.2263630
  H        1.2273890     2.0759080     0.2263640
  H        0.8178840     1.2446360    -1.2957370
  H       -1.2273880    -2.0759070    -0.2263610
  H       -0.8178840    -1.2446340     1.2957380
  H       -0.8178830     1.2446350     1.2957380
  H       -1.2273890     2.0759080    -0.2263620
  H       -3.2785690     0.8871010    -0.4480200
  H       -2.9984770    -0.0000010     1.0736860
  H       -3.2785690    -0.8871030    -0.4480190
  H        2.9984750    -0.0000010    -1.0736880
  H        3.2785690    -0.8871030     0.4480170
  H        3.2785700     0.8871010     0.4480170
units angstrom
no_reorient  #important for SAPT in psi4, default
symmetry c1  #important for SAPT in psi4, default
}

set PROPERTIES_ORIGIN ["COM"]
properties('MP2/aug-cc-pvtz', properties = ['dipole'])
--------------------------------------------------------------------------

    Molecular point group: c1
  Charge       = 0
  Multiplicity = 1
  Basis Set: AUG-CC-PVTZ
    Blend: AUG-CC-PVTZ
  Basis Set: (AUG-CC-PVTZ AUX)
    Blend: AUG-CC-PVTZ-JKFIT

    Orbital Energies [Eh]
    ---------------------

    Doubly Occupied:

       1A    -15.546201     2A    -15.545288     3A    -11.244353
       4A    -11.243249     5A    -11.243169     6A    -11.242329
       7A    -11.240341     8A    -11.238884     9A     -1.253148
      10A     -1.202713    11A     -1.021614    12A     -0.990236
      13A     -0.906478    14A     -0.860790    15A     -0.832883
      16A     -0.757381    17A     -0.662913    18A     -0.632350
      19A     -0.627508    20A     -0.625582    21A     -0.620891
      22A     -0.581430    23A     -0.547577    24A     -0.540835
      25A     -0.538884    26A     -0.516639    27A     -0.494992
      28A     -0.489259    29A     -0.459602    30A     -0.454626
      31A     -0.360672    32A     -0.358752

  @DF-RHF Final Energy:  -344.35063307011831

   => Energetics <=

    Nuclear Repulsion Energy =            420.0632557795988191
    One-Electron Energy =               -1299.0646353052145514
    Two-Electron Energy =                 534.6507464554973694
    Total Energy =                       -344.3506330701183060
  Basis Set: (AUG-CC-PVTZ AUX)
    Blend: AUG-CC-PVTZ-RI
    Molecular point group: c1

    Geometry (in Angstrom), charge = 0, multiplicity = 1:

       Center              X                  Y                   Z               Mass
    ------------   -----------------  -----------------  -----------------  -----------------
         N           -1.402656980118     0.013074164819    -0.350897596360    14.003074004430
         N            1.390736619882    -0.001828835181     0.340857703640    14.003074004430
         C            0.736370619882    -1.192628835181    -0.191574296360    12.000000000000
         C           -0.732493380118    -1.192627835181     0.194839703640    12.000000000000
         C            0.736371619882     1.188972164819    -0.191573296360    12.000000000000
         C           -0.732494380118     1.188972164819     0.194839703640    12.000000000000
         C           -2.805610380118    -0.001829835181    -0.013240296360    12.000000000000
         C            2.809486619882    -0.001829835181     0.016504703640    12.000000000000
         H            0.819822619882    -1.246462835181    -1.294105296360     1.007825032230
         H            1.229326619882    -2.077735835181     0.227995703640     1.007825032230
         H            1.229327619882     2.074079164819     0.227996703640     1.007825032230
         H            0.819822619882     1.242807164819    -1.294104296360     1.007825032230
         H           -1.225449380118    -2.077735835181    -0.224728296360     1.007825032230
         H           -0.815945380118    -1.246462835181     1.297370703640     1.007825032230
         H           -0.815944380118     1.242806164819     1.297370703640     1.007825032230
         H           -1.225450380118     2.074079164819    -0.224729296360     1.007825032230
         H           -3.276630380118     0.885272164819    -0.446387296360     1.007825032230
         H           -2.996538380118    -0.001829835181     1.075318703640     1.007825032230
         H           -3.276630380118    -0.888931835181    -0.446386296360     1.007825032230
         H            3.000413619882    -0.001829835181    -1.072055296360     1.007825032230
         H            3.280507619882    -0.888931835181     0.449649703640     1.007825032230
         H            3.280508619882     0.885272164819     0.449649703640     1.007825032230

  Basis Set: AUG-CC-PVTZ
    Blend: AUG-CC-PVTZ
  Basis Set: (AUG-CC-PVTZ AUX)
    Blend: AUG-CC-PVTZ-JKFIT
	 Reference Energy          =    -344.3506330701183060 [Eh]
	 Singles Energy            =      -0.0000000000000000 [Eh]
	 Same-Spin Energy          =      -0.3689341453979759 [Eh]
	 Opposite-Spin Energy      =      -1.2705851863572497 [Eh]
	 Correlation Energy        =      -1.6395193317552255 [Eh]
	 Total Energy              =    -345.9901524018735586 [Eh]

	 ================> DF-SCS-MP2 Energies <==================
	-----------------------------------------------------------
	 SCS Same-Spin Scale       =       0.3333333333333333 [-]
	 SCS Opposite-Spin Scale   =       1.2000000000000000 [-]
	 SCS Same-Spin Energy      =      -0.1229780484659919 [Eh]
	 SCS Opposite-Spin Energy  =      -1.5247022236286996 [Eh]
	 SCS Correlation Energy    =      -1.6476802720946915 [Eh]
	 SCS Total Energy          =    -345.9983133422130095 [Eh]
	-----------------------------------------------------------

  Dipole Moment: [D]
     X:     0.0533      Y:    -0.0408      Z:     0.0370     Total:     0.0766

*** Psi4 exiting successfully. Buy a developer a beer!
