                               Psi4 1.4a3.dev225

  ==> Input File <==

--------------------------------------------------------------------------
#psi4
#
memory 32 gb

molecule  {
0 1
  N       -1.3887980     0.0000000    -0.3392240
  N        1.3887980     0.0000000     0.3392250
  C        0.6447525    -1.3539967    -0.2661757
  C       -0.7344320    -1.1907990     0.1932070
  C        0.7344330     1.1908010    -0.1932060
  C       -0.7344330     1.1908010     0.1932070
  C       -2.8075490    -0.0000010    -0.0148730
  C        2.8075480    -0.0000010     0.0148720
  H        0.8178840    -1.2446340    -1.2957380
  H        1.2273880    -2.0759070     0.2263630
  H        1.2273890     2.0759080     0.2263640
  H        0.8178840     1.2446360    -1.2957370
  H       -1.2273880    -2.0759070    -0.2263610
  H       -0.8178840    -1.2446340     1.2957380
  H       -0.8178830     1.2446350     1.2957380
  H       -1.2273890     2.0759080    -0.2263620
  H       -3.2785690     0.8871010    -0.4480200
  H       -2.9984770    -0.0000010     1.0736860
  H       -3.2785690    -0.8871030    -0.4480190
  H        2.9984750    -0.0000010    -1.0736880
  H        3.2785690    -0.8871030     0.4480170
  H        3.2785700     0.8871010     0.4480170
units angstrom
no_reorient  #important for SAPT in psi4, default
symmetry c1  #important for SAPT in psi4, default
}

set PROPERTIES_ORIGIN ["COM"]
properties('MP2/aug-cc-pvtz', properties = ['dipole'])
--------------------------------------------------------------------------

    Molecular point group: c1
  Charge       = 0
  Multiplicity = 1
  Basis Set: AUG-CC-PVTZ
    Blend: AUG-CC-PVTZ
  Basis Set: (AUG-CC-PVTZ AUX)
    Blend: AUG-CC-PVTZ-JKFIT

    Orbital Energies [Eh]
    ---------------------

    Doubly Occupied:

       1A    -15.547747     2A    -15.539011     3A    -11.246648
       4A    -11.244649     5A    -11.241734     6A    -11.240742
       7A    -11.237646     8A    -11.234815     9A     -1.243974
      10A     -1.179670    11A     -1.032663    12A     -0.988600
      13A     -0.901067    14A     -0.860487    15A     -0.828164
      16A     -0.759907    17A     -0.658534    18A     -0.641287
      19A     -0.634779    20A     -0.617045    21A     -0.614403
      22A     -0.573570    23A     -0.551916    24A     -0.540630
      25A     -0.534280    26A     -0.526442    27A     -0.501361
      28A     -0.494621    29A     -0.464380    30A     -0.423045
      31A     -0.361504    32A     -0.347770

  @DF-RHF Final Energy:  -344.32148313787354

   => Energetics <=

    Nuclear Repulsion Energy =            417.8685426967715557
    One-Electron Energy =               -1294.7538701578428118
    Two-Electron Energy =                 532.5638443231977135
    Total Energy =                       -344.3214831378735425
  Basis Set: (AUG-CC-PVTZ AUX)
    Blend: AUG-CC-PVTZ-RI
    Molecular point group: c1

    Geometry (in Angstrom), charge = 0, multiplicity = 1:

       Center              X                  Y                   Z               Mass
    ------------   -----------------  -----------------  -----------------  -----------------
         N           -1.379367518353     0.017161086811    -0.331550976705    14.003074004430
         N            1.398228481647     0.017161086811     0.346898023295    14.003074004430
         C            0.654182981647    -1.336835613189    -0.258502676705    12.000000000000
         C           -0.725001518353    -1.173637913189     0.200880023295    12.000000000000
         C            0.743863481647     1.207962086811    -0.185532976705    12.000000000000
         C           -0.725002518353     1.207962086811     0.200880023295    12.000000000000
         C           -2.798118518353     0.017160086811    -0.007199976705    12.000000000000
         C            2.816978481647     0.017160086811     0.022545023295    12.000000000000
         H            0.827314481647    -1.227472913189    -1.288064976705     1.007825032230
         H            1.236818481647    -2.058745913189     0.234036023295     1.007825032230
         H            1.236819481647     2.093069086811     0.234037023295     1.007825032230
         H            0.827314481647     1.261797086811    -1.288063976705     1.007825032230
         H           -1.217957518353    -2.058745913189    -0.218687976705     1.007825032230
         H           -0.808453518353    -1.227472913189     1.303411023295     1.007825032230
         H           -0.808452518353     1.261796086811     1.303411023295     1.007825032230
         H           -1.217958518353     2.093069086811    -0.218688976705     1.007825032230
         H           -3.269138518353     0.904262086811    -0.440346976705     1.007825032230
         H           -2.989046518353     0.017160086811     1.081359023295     1.007825032230
         H           -3.269138518353    -0.869941913189    -0.440345976705     1.007825032230
         H            3.007905481647     0.017160086811    -1.066014976705     1.007825032230
         H            3.287999481647    -0.869941913189     0.455690023295     1.007825032230
         H            3.288000481647     0.904262086811     0.455690023295     1.007825032230

  Basis Set: AUG-CC-PVTZ
    Blend: AUG-CC-PVTZ
  Basis Set: (AUG-CC-PVTZ AUX)
    Blend: AUG-CC-PVTZ-JKFIT
	 Reference Energy          =    -344.3214831378735425 [Eh]
	 Singles Energy            =      -0.0000000000000000 [Eh]
	 Same-Spin Energy          =      -0.3696864682129798 [Eh]
	 Opposite-Spin Energy      =      -1.2735219703114342 [Eh]
	 Correlation Energy        =      -1.6432084385244141 [Eh]
	 Total Energy              =    -345.9646915763979678 [Eh]

	 ================> DF-SCS-MP2 Energies <==================
	-----------------------------------------------------------
	 SCS Same-Spin Scale       =       0.3333333333333333 [-]
	 SCS Opposite-Spin Scale   =       1.2000000000000000 [-]
	 SCS Same-Spin Energy      =      -0.1232288227376599 [Eh]
	 SCS Opposite-Spin Energy  =      -1.5282263643737211 [Eh]
	 SCS Correlation Energy    =      -1.6514551871113810 [Eh]
	 SCS Total Energy          =    -345.9729383249849093 [Eh]
	-----------------------------------------------------------

  Dipole Moment: [D]
     X:    -0.1933      Y:    -0.2843      Z:    -0.1394     Total:     0.3710

*** Psi4 exiting successfully. Buy a developer a beer!
