                               Psi4 1.4a3.dev225

  ==> Input File <==

--------------------------------------------------------------------------
#psi4
#
memory 32 gb

molecule  {
0 1
  N       -1.3887980     0.0000000    -0.3392240
  N        1.3887980     0.0000000     0.3392250
  C        0.7344320    -1.1908000    -0.1932070
  C       -0.7344320    -1.1907990     0.1932070
  C        0.7344330     1.1908010    -0.1932060
  C       -0.7344330     1.1908010     0.1932070
  C       -2.8075490    -0.0000010    -0.0148730
  C        2.8075480    -0.0000010     0.0148720
  H        0.8178840    -1.2446340    -1.2957380
  H        1.2273880    -2.0759070     0.2263630
  H        1.2273890     2.0759080     0.2263640
  H        0.8178840     1.2446360    -1.2957370
  H       -1.2273880    -2.0759070    -0.2263610
  H       -0.8329612    -1.2543603     1.4949316
  H       -0.8178830     1.2446350     1.2957380
  H       -1.2273890     2.0759080    -0.2263620
  H       -3.2785690     0.8871010    -0.4480200
  H       -2.9984770    -0.0000010     1.0736860
  H       -3.2785690    -0.8871030    -0.4480190
  H        2.9984750    -0.0000010    -1.0736880
  H        3.2785690    -0.8871030     0.4480170
  H        3.2785700     0.8871010     0.4480170
units angstrom
no_reorient  #important for SAPT in psi4, default
symmetry c1  #important for SAPT in psi4, default
}

set PROPERTIES_ORIGIN ["COM"]
properties('MP2/aug-cc-pvtz', properties = ['dipole'])
--------------------------------------------------------------------------

    Molecular point group: c1
  Charge       = 0
  Multiplicity = 1
  Basis Set: AUG-CC-PVTZ
    Blend: AUG-CC-PVTZ
  Basis Set: (AUG-CC-PVTZ AUX)
    Blend: AUG-CC-PVTZ-JKFIT

    Orbital Energies [Eh]
    ---------------------

    Doubly Occupied:

       1A    -15.550836     2A    -15.545598     3A    -11.265399
       4A    -11.245573     5A    -11.244132     6A    -11.243434
       7A    -11.241303     8A    -11.240679     9A     -1.255746
      10A     -1.204441    11A     -1.020995    12A     -0.989024
      13A     -0.907683    14A     -0.860344    15A     -0.833028
      16A     -0.748185    17A     -0.665044    18A     -0.634051
      19A     -0.629410    20A     -0.623353    21A     -0.611079
      22A     -0.579808    23A     -0.547949    24A     -0.543362
      25A     -0.541310    26A     -0.512817    27A     -0.495571
      28A     -0.473431    29A     -0.462892    30A     -0.456486
      31A     -0.359305    32A     -0.357931

  @DF-RHF Final Energy:  -344.33248758791649

   => Energetics <=

    Nuclear Repulsion Energy =            419.4891605032140092
    One-Electron Energy =               -1297.8628989776759681
    Two-Electron Energy =                 534.0412508865455266
    Total Energy =                       -344.3324875879164892
  Basis Set: (AUG-CC-PVTZ AUX)
    Blend: AUG-CC-PVTZ-RI
    Molecular point group: c1

    Geometry (in Angstrom), charge = 0, multiplicity = 1:

       Center              X                  Y                   Z               Mass
    ------------   -----------------  -----------------  -----------------  -----------------
         N           -1.388664738934     0.000085802537    -0.340983304692    14.003074004430
         N            1.388931261066     0.000085802537     0.337465695308    14.003074004430
         C            0.734565261066    -1.190714197463    -0.194966304692    12.000000000000
         C           -0.734298738934    -1.190713197463     0.191447695308    12.000000000000
         C            0.734566261066     1.190886802537    -0.194965304692    12.000000000000
         C           -0.734299738934     1.190886802537     0.191447695308    12.000000000000
         C           -2.807415738934     0.000084802537    -0.016632304692    12.000000000000
         C            2.807681261066     0.000084802537     0.013112695308    12.000000000000
         H            0.818017261066    -1.244548197463    -1.297497304692     1.007825032230
         H            1.227521261066    -2.075821197463     0.224603695308     1.007825032230
         H            1.227522261066     2.075993802537     0.224604695308     1.007825032230
         H            0.818017261066     1.244721802537    -1.297496304692     1.007825032230
         H           -1.227254738934    -2.075821197463    -0.228120304692     1.007825032230
         H           -0.832827938934    -1.254274497463     1.493172295308     1.007825032230
         H           -0.817749738934     1.244720802537     1.293978695308     1.007825032230
         H           -1.227255738934     2.075993802537    -0.228121304692     1.007825032230
         H           -3.278435738934     0.887186802537    -0.449779304692     1.007825032230
         H           -2.998343738934     0.000084802537     1.071926695308     1.007825032230
         H           -3.278435738934    -0.887017197463    -0.449778304692     1.007825032230
         H            2.998608261066     0.000084802537    -1.075447304692     1.007825032230
         H            3.278702261066    -0.887017197463     0.446257695308     1.007825032230
         H            3.278703261066     0.887186802537     0.446257695308     1.007825032230

  Basis Set: AUG-CC-PVTZ
    Blend: AUG-CC-PVTZ
  Basis Set: (AUG-CC-PVTZ AUX)
    Blend: AUG-CC-PVTZ-JKFIT
	 Reference Energy          =    -344.3324875879164892 [Eh]
	 Singles Energy            =      -0.0000000000000000 [Eh]
	 Same-Spin Energy          =      -0.3694390599941693 [Eh]
	 Opposite-Spin Energy      =      -1.2723506316900770 [Eh]
	 Correlation Energy        =      -1.6417896916842463 [Eh]
	 Total Energy              =    -345.9742772796007557 [Eh]

	 ================> DF-SCS-MP2 Energies <==================
	-----------------------------------------------------------
	 SCS Same-Spin Scale       =       0.3333333333333333 [-]
	 SCS Opposite-Spin Scale   =       1.2000000000000000 [-]
	 SCS Same-Spin Energy      =      -0.1231463533313897 [Eh]
	 SCS Opposite-Spin Energy  =      -1.5268207580280924 [Eh]
	 SCS Correlation Energy    =      -1.6499671113594820 [Eh]
	 SCS Total Energy          =    -345.9824546992759906 [Eh]
	-----------------------------------------------------------

  Dipole Moment: [D]
     X:     0.0113      Y:     0.1154      Z:    -0.2435     Total:     0.2696

*** Psi4 exiting successfully. Buy a developer a beer!
