                               Psi4 1.4a3.dev225

  ==> Input File <==

--------------------------------------------------------------------------
#psi4
#
memory 32 gb

molecule  {
0 1
  N       -1.3887980     0.0000000    -0.3392240
  N        1.3887980     0.0000000     0.3392250
  C        0.7344320    -1.1908000    -0.1932070
  C       -0.7344320    -1.1907990     0.1932070
  C        0.7344330     1.1908010    -0.1932060
  C       -0.6447536     1.3539978     0.2661756
  C       -2.8075490    -0.0000010    -0.0148730
  C        2.8075480    -0.0000010     0.0148720
  H        0.8178840    -1.2446340    -1.2957380
  H        1.2273880    -2.0759070     0.2263630
  H        1.2273890     2.0759080     0.2263640
  H        0.8178840     1.2446360    -1.2957370
  H       -1.2273880    -2.0759070    -0.2263610
  H       -0.8178840    -1.2446340     1.2957380
  H       -0.8178830     1.2446350     1.2957380
  H       -1.2273890     2.0759080    -0.2263620
  H       -3.2785690     0.8871010    -0.4480200
  H       -2.9984770    -0.0000010     1.0736860
  H       -3.2785690    -0.8871030    -0.4480190
  H        2.9984750    -0.0000010    -1.0736880
  H        3.2785690    -0.8871030     0.4480170
  H        3.2785700     0.8871010     0.4480170
units angstrom
no_reorient  #important for SAPT in psi4, default
symmetry c1  #important for SAPT in psi4, default
}

set PROPERTIES_ORIGIN ["COM"]
properties('MP2/aug-cc-pvtz', properties = ['dipole'])
--------------------------------------------------------------------------

    Molecular point group: c1
  Charge       = 0
  Multiplicity = 1
  Basis Set: AUG-CC-PVTZ
    Blend: AUG-CC-PVTZ
  Basis Set: (AUG-CC-PVTZ AUX)
    Blend: AUG-CC-PVTZ-JKFIT

    Orbital Energies [Eh]
    ---------------------

    Doubly Occupied:

       1A    -15.547747     2A    -15.539011     3A    -11.246648
       4A    -11.244649     5A    -11.241734     6A    -11.240742
       7A    -11.237646     8A    -11.234815     9A     -1.243974
      10A     -1.179670    11A     -1.032663    12A     -0.988600
      13A     -0.901067    14A     -0.860487    15A     -0.828165
      16A     -0.759907    17A     -0.658534    18A     -0.641286
      19A     -0.634779    20A     -0.617045    21A     -0.614403
      22A     -0.573570    23A     -0.551916    24A     -0.540630
      25A     -0.534280    26A     -0.526441    27A     -0.501361
      28A     -0.494621    29A     -0.464380    30A     -0.423045
      31A     -0.361504    32A     -0.347770

  @DF-RHF Final Energy:  -344.32148332167867

   => Energetics <=

    Nuclear Repulsion Energy =            417.8685425653590073
    One-Electron Energy =               -1294.7538701231148934
    Two-Electron Energy =                 532.5638442360772160
    Total Energy =                       -344.3214833216786701
  Basis Set: (AUG-CC-PVTZ AUX)
    Blend: AUG-CC-PVTZ-RI
    Molecular point group: c1

    Geometry (in Angstrom), charge = 0, multiplicity = 1:

       Center              X                  Y                   Z               Mass
    ------------   -----------------  -----------------  -----------------  -----------------
         N           -1.398228260819    -0.017161289977    -0.346897222872    14.003074004430
         N            1.379367739181    -0.017161289977     0.331551777128    14.003074004430
         C            0.725001739181    -1.207961289977    -0.200880222872    12.000000000000
         C           -0.743862260819    -1.207960289977     0.185533777128    12.000000000000
         C            0.725002739181     1.173639710023    -0.200879222872    12.000000000000
         C           -0.654183860819     1.336836510023     0.258502377128    12.000000000000
         C           -2.816979260819    -0.017162289977    -0.022546222872    12.000000000000
         C            2.798117739181    -0.017162289977     0.007198777128    12.000000000000
         H            0.808453739181    -1.261795289977    -1.303411222872     1.007825032230
         H            1.217957739181    -2.093068289977     0.218689777128     1.007825032230
         H            1.217958739181     2.058746710023     0.218690777128     1.007825032230
         H            0.808453739181     1.227474710023    -1.303410222872     1.007825032230
         H           -1.236818260819    -2.093068289977    -0.234034222872     1.007825032230
         H           -0.827314260819    -1.261795289977     1.288064777128     1.007825032230
         H           -0.827313260819     1.227473710023     1.288064777128     1.007825032230
         H           -1.236819260819     2.058746710023    -0.234035222872     1.007825032230
         H           -3.287999260819     0.869939710023    -0.455693222872     1.007825032230
         H           -3.007907260819    -0.017162289977     1.066012777128     1.007825032230
         H           -3.287999260819    -0.904264289977    -0.455692222872     1.007825032230
         H            2.989044739181    -0.017162289977    -1.081361222872     1.007825032230
         H            3.269138739181    -0.904264289977     0.440343777128     1.007825032230
         H            3.269139739181     0.869939710023     0.440343777128     1.007825032230

  Basis Set: AUG-CC-PVTZ
    Blend: AUG-CC-PVTZ
  Basis Set: (AUG-CC-PVTZ AUX)
    Blend: AUG-CC-PVTZ-JKFIT
	 Reference Energy          =    -344.3214833216786701 [Eh]
	 Singles Energy            =      -0.0000000000000000 [Eh]
	 Same-Spin Energy          =      -0.3696864513753278 [Eh]
	 Opposite-Spin Energy      =      -1.2735219427982343 [Eh]
	 Correlation Energy        =      -1.6432083941735620 [Eh]
	 Total Energy              =    -345.9646917158522115 [Eh]

	 ================> DF-SCS-MP2 Energies <==================
	-----------------------------------------------------------
	 SCS Same-Spin Scale       =       0.3333333333333333 [-]
	 SCS Opposite-Spin Scale   =       1.2000000000000000 [-]
	 SCS Same-Spin Energy      =      -0.1232288171251093 [Eh]
	 SCS Opposite-Spin Energy  =      -1.5282263313578810 [Eh]
	 SCS Correlation Energy    =      -1.6514551484829902 [Eh]
	 SCS Total Energy          =    -345.9729384701616368 [Eh]
	-----------------------------------------------------------

  Dipole Moment: [D]
     X:     0.1933      Y:     0.2843      Z:     0.1394     Total:     0.3710

*** Psi4 exiting successfully. Buy a developer a beer!
