                               Psi4 1.4a3.dev225

  ==> Input File <==

--------------------------------------------------------------------------
#psi4
#
memory 32 gb

molecule  {
0 1
  N       -1.3887980     0.0000000    -0.3392240
  N        1.3887980     0.0000000     0.3392250
  C        0.7344320    -1.1908000    -0.1932070
  C       -0.7344320    -1.1907990     0.1932070
  C        0.7344330     1.1908010    -0.1932060
  C       -0.7344330     1.1908010     0.1932070
  C       -2.7100641    -0.0000009    -0.0371597
  C        2.8075480    -0.0000010     0.0148720
  H        0.8178840    -1.2446340    -1.2957380
  H        1.2273880    -2.0759070     0.2263630
  H        1.2273890     2.0759080     0.2263640
  H        0.8178840     1.2446360    -1.2957370
  H       -1.2273880    -2.0759070    -0.2263610
  H       -0.8178840    -1.2446340     1.2957380
  H       -0.8178830     1.2446350     1.2957380
  H       -1.2273890     2.0759080    -0.2263620
  H       -3.2785690     0.8871010    -0.4480200
  H       -2.9984770    -0.0000010     1.0736860
  H       -3.2785690    -0.8871030    -0.4480190
  H        2.9984750    -0.0000010    -1.0736880
  H        3.2785690    -0.8871030     0.4480170
  H        3.2785700     0.8871010     0.4480170
units angstrom
no_reorient  #important for SAPT in psi4, default
symmetry c1  #important for SAPT in psi4, default
}

set PROPERTIES_ORIGIN ["COM"]
properties('MP2/aug-cc-pvtz', properties = ['dipole'])
--------------------------------------------------------------------------

    Molecular point group: c1
  Charge       = 0
  Multiplicity = 1
  Basis Set: AUG-CC-PVTZ
    Blend: AUG-CC-PVTZ
  Basis Set: (AUG-CC-PVTZ AUX)
    Blend: AUG-CC-PVTZ-JKFIT

    Orbital Energies [Eh]
    ---------------------

    Doubly Occupied:

       1A    -15.546861     2A    -15.545807     3A    -11.245927
       4A    -11.245912     5A    -11.244557     6A    -11.244546
       7A    -11.243942     8A    -11.241524     9A     -1.269372
      10A     -1.216682    11A     -1.025645    12A     -0.996128
      13A     -0.903118    14A     -0.866757    15A     -0.831038
      16A     -0.761282    17A     -0.671874    18A     -0.638513
      19A     -0.632758    20A     -0.628015    21A     -0.624339
      22A     -0.590900    23A     -0.545519    24A     -0.540909
      25A     -0.538545    26A     -0.508419    27A     -0.493920
      28A     -0.483224    29A     -0.461911    30A     -0.459695
      31A     -0.360380    32A     -0.358234

  @DF-RHF Final Energy:  -344.34083948283597

   => Energetics <=

    Nuclear Repulsion Energy =            422.4243778306019976
    One-Electron Energy =               -1303.5979275976499139
    Two-Electron Energy =                 536.8327102842119984
    Total Energy =                       -344.3408394828359178
  Basis Set: (AUG-CC-PVTZ AUX)
    Blend: AUG-CC-PVTZ-RI
    Molecular point group: c1

    Geometry (in Angstrom), charge = 0, multiplicity = 1:

       Center              X                  Y                   Z               Mass
    ------------   -----------------  -----------------  -----------------  -----------------
         N           -1.399049059370    -0.000000106840    -0.336880515132    14.003074004430
         N            1.378546940630    -0.000000106840     0.341568484868    14.003074004430
         C            0.724180940630    -1.190800106840    -0.190863515132    12.000000000000
         C           -0.744683059370    -1.190799106840     0.195550484868    12.000000000000
         C            0.724181940630     1.190800893160    -0.190862515132    12.000000000000
         C           -0.744684059370     1.190800893160     0.195550484868    12.000000000000
         C           -2.720315159370    -0.000001006840    -0.034816215132    12.000000000000
         C            2.797296940630    -0.000001106840     0.017215484868    12.000000000000
         H            0.807632940630    -1.244634106840    -1.293394515132     1.007825032230
         H            1.217136940630    -2.075907106840     0.228706484868     1.007825032230
         H            1.217137940630     2.075907893160     0.228707484868     1.007825032230
         H            0.807632940630     1.244635893160    -1.293393515132     1.007825032230
         H           -1.237639059370    -2.075907106840    -0.224017515132     1.007825032230
         H           -0.828135059370    -1.244634106840     1.298081484868     1.007825032230
         H           -0.828134059370     1.244634893160     1.298081484868     1.007825032230
         H           -1.237640059370     2.075907893160    -0.224018515132     1.007825032230
         H           -3.288820059370     0.887100893160    -0.445676515132     1.007825032230
         H           -3.008728059370    -0.000001106840     1.076029484868     1.007825032230
         H           -3.288820059370    -0.887103106840    -0.445675515132     1.007825032230
         H            2.988223940630    -0.000001106840    -1.071344515132     1.007825032230
         H            3.268317940630    -0.887103106840     0.450360484868     1.007825032230
         H            3.268318940630     0.887100893160     0.450360484868     1.007825032230

  Basis Set: AUG-CC-PVTZ
    Blend: AUG-CC-PVTZ
  Basis Set: (AUG-CC-PVTZ AUX)
    Blend: AUG-CC-PVTZ-JKFIT
	 Reference Energy          =    -344.3408394828359746 [Eh]
	 Singles Energy            =      -0.0000000000000000 [Eh]
	 Same-Spin Energy          =      -0.3698642483890277 [Eh]
	 Opposite-Spin Energy      =      -1.2707109979605256 [Eh]
	 Correlation Energy        =      -1.6405752463495533 [Eh]
	 Total Energy              =    -345.9814147291855306 [Eh]

	 ================> DF-SCS-MP2 Energies <==================
	-----------------------------------------------------------
	 SCS Same-Spin Scale       =       0.3333333333333333 [-]
	 SCS Opposite-Spin Scale   =       1.2000000000000000 [-]
	 SCS Same-Spin Energy      =      -0.1232880827963426 [Eh]
	 SCS Opposite-Spin Energy  =      -1.5248531975526307 [Eh]
	 SCS Correlation Energy    =      -1.6481412803489732 [Eh]
	 SCS Total Energy          =    -345.9889807631849408 [Eh]
	-----------------------------------------------------------

  Dipole Moment: [D]
     X:     0.3146      Y:     0.0000      Z:    -0.0979     Total:     0.3295

*** Psi4 exiting successfully. Buy a developer a beer!
