                               Psi4 1.4a3.dev225

  ==> Input File <==

--------------------------------------------------------------------------
#psi4
#
memory 32 gb

molecule  {
0 1
  N       -1.3887980     0.0000000    -0.3392240
  N        1.3887980     0.0000000     0.3392250
  C        0.7344320    -1.1908000    -0.1932070
  C       -0.7265978    -1.2362493     0.2193502
  C        0.7344330     1.1908010    -0.1932060
  C       -0.7344330     1.1908010     0.1932070
  C       -2.8075490    -0.0000010    -0.0148730
  C        2.8075480    -0.0000010     0.0148720
  H        0.8178840    -1.2446340    -1.2957380
  H        1.2273880    -2.0759070     0.2263630
  H        1.2273890     2.0759080     0.2263640
  H        0.8178840     1.2446360    -1.2957370
  H       -1.2273880    -2.0759070    -0.2263610
  H       -0.8178840    -1.2446340     1.2957380
  H       -0.8178830     1.2446350     1.2957380
  H       -1.2273890     2.0759080    -0.2263620
  H       -3.2785690     0.8871010    -0.4480200
  H       -2.9984770    -0.0000010     1.0736860
  H       -3.2785690    -0.8871030    -0.4480190
  H        2.9984750    -0.0000010    -1.0736880
  H        3.2785690    -0.8871030     0.4480170
  H        3.2785700     0.8871010     0.4480170
units angstrom
no_reorient  #important for SAPT in psi4, default
symmetry c1  #important for SAPT in psi4, default
}

set PROPERTIES_ORIGIN ["COM"]
properties('MP2/aug-cc-pvtz', properties = ['dipole'])
--------------------------------------------------------------------------

    Molecular point group: c1
  Charge       = 0
  Multiplicity = 1
  Basis Set: AUG-CC-PVTZ
    Blend: AUG-CC-PVTZ
  Basis Set: (AUG-CC-PVTZ AUX)
    Blend: AUG-CC-PVTZ-JKFIT

    Orbital Energies [Eh]
    ---------------------

    Doubly Occupied:

       1A    -15.545545     2A    -15.544047     3A    -11.243283
       4A    -11.242120     5A    -11.241721     6A    -11.241272
       7A    -11.240384     8A    -11.238383     9A     -1.249392
      10A     -1.196873    11A     -1.022713    12A     -0.988055
      13A     -0.904794    14A     -0.861466    15A     -0.831992
      16A     -0.758191    17A     -0.660996    18A     -0.633942
      19A     -0.627763    20A     -0.623708    21A     -0.619681
      22A     -0.577162    23A     -0.548643    24A     -0.540361
      25A     -0.539577    26A     -0.518529    27A     -0.496655
      28A     -0.490989    29A     -0.461686    30A     -0.449265
      31A     -0.358985    32A     -0.357717

  @DF-RHF Final Energy:  -344.34902539277294

   => Energetics <=

    Nuclear Repulsion Energy =            419.5387598141445551
    One-Electron Energy =               -1298.0637904911798159
    Two-Electron Energy =                 534.1760052842623736
    Total Energy =                       -344.3490253927728872
  Basis Set: (AUG-CC-PVTZ AUX)
    Blend: AUG-CC-PVTZ-RI
    Molecular point group: c1

    Geometry (in Angstrom), charge = 0, multiplicity = 1:

       Center              X                  Y                   Z               Mass
    ------------   -----------------  -----------------  -----------------  -----------------
         N           -1.389621711385     0.004779295182    -0.341973230751    14.003074004430
         N            1.387974288615     0.004779295182     0.336475769249    14.003074004430
         C            0.733608288615    -1.186020704818    -0.195956230751    12.000000000000
         C           -0.727421511385    -1.231470004818     0.216600969249    12.000000000000
         C            0.733609288615     1.195580295182    -0.195955230751    12.000000000000
         C           -0.735256711385     1.195580295182     0.190457769249    12.000000000000
         C           -2.808372711385     0.004778295182    -0.017622230751    12.000000000000
         C            2.806724288615     0.004778295182     0.012122769249    12.000000000000
         H            0.817060288615    -1.239854704818    -1.298487230751     1.007825032230
         H            1.226564288615    -2.071127704818     0.223613769249     1.007825032230
         H            1.226565288615     2.080687295182     0.223614769249     1.007825032230
         H            0.817060288615     1.249415295182    -1.298486230751     1.007825032230
         H           -1.228211711385    -2.071127704818    -0.229110230751     1.007825032230
         H           -0.818707711385    -1.239854704818     1.292988769249     1.007825032230
         H           -0.818706711385     1.249414295182     1.292988769249     1.007825032230
         H           -1.228212711385     2.080687295182    -0.229111230751     1.007825032230
         H           -3.279392711385     0.891880295182    -0.450769230751     1.007825032230
         H           -2.999300711385     0.004778295182     1.070936769249     1.007825032230
         H           -3.279392711385    -0.882323704818    -0.450768230751     1.007825032230
         H            2.997651288615     0.004778295182    -1.076437230751     1.007825032230
         H            3.277745288615    -0.882323704818     0.445267769249     1.007825032230
         H            3.277746288615     0.891880295182     0.445267769249     1.007825032230

  Basis Set: AUG-CC-PVTZ
    Blend: AUG-CC-PVTZ
  Basis Set: (AUG-CC-PVTZ AUX)
    Blend: AUG-CC-PVTZ-JKFIT
	 Reference Energy          =    -344.3490253927729441 [Eh]
	 Singles Energy            =      -0.0000000000000000 [Eh]
	 Same-Spin Energy          =      -0.3687147676757093 [Eh]
	 Opposite-Spin Energy      =      -1.2706072433775473 [Eh]
	 Correlation Energy        =      -1.6393220110532565 [Eh]
	 Total Energy              =    -345.9883474038261966 [Eh]

	 ================> DF-SCS-MP2 Energies <==================
	-----------------------------------------------------------
	 SCS Same-Spin Scale       =       0.3333333333333333 [-]
	 SCS Opposite-Spin Scale   =       1.2000000000000000 [-]
	 SCS Same-Spin Energy      =      -0.1229049225585698 [Eh]
	 SCS Opposite-Spin Energy  =      -1.5247286920530567 [Eh]
	 SCS Correlation Energy    =      -1.6476336146116264 [Eh]
	 SCS Total Energy          =    -345.9966590073845509 [Eh]
	-----------------------------------------------------------

  Dipole Moment: [D]
     X:     0.0446      Y:    -0.0907      Z:     0.0577     Total:     0.1164

*** Psi4 exiting successfully. Buy a developer a beer!
