                               Psi4 1.4a3.dev225

  ==> Input File <==

--------------------------------------------------------------------------
#psi4
#
memory 32 gb

molecule  {
0 1
  N       -1.3887980     0.0000000    -0.3392240
  N        1.3887980     0.0000000     0.3392250
  C        0.7344320    -1.1908000    -0.1932070
  C       -0.7344320    -1.1907990     0.1932070
  C        0.7344330     1.1908010    -0.1932060
  C       -0.7344330     1.1908010     0.1932070
  C       -2.8075490    -0.0000010    -0.0148730
  C        2.8075480    -0.0000010     0.0148720
  H        0.8178840    -1.2446340    -1.2957380
  H        1.2273880    -2.0759070     0.2263630
  H        1.2273890     2.0759080     0.2263640
  H        0.8178840     1.2446360    -1.2957370
  H       -1.2723425    -2.1566233    -0.2646230
  H       -0.8178840    -1.2446340     1.2957380
  H       -0.8178830     1.2446350     1.2957380
  H       -1.2273890     2.0759080    -0.2263620
  H       -3.2785690     0.8871010    -0.4480200
  H       -2.9984770    -0.0000010     1.0736860
  H       -3.2785690    -0.8871030    -0.4480190
  H        2.9984750    -0.0000010    -1.0736880
  H        3.2785690    -0.8871030     0.4480170
  H        3.2785700     0.8871010     0.4480170
units angstrom
no_reorient  #important for SAPT in psi4, default
symmetry c1  #important for SAPT in psi4, default
}

set PROPERTIES_ORIGIN ["COM"]
properties('MP2/aug-cc-pvtz', properties = ['dipole'])
--------------------------------------------------------------------------

    Molecular point group: c1
  Charge       = 0
  Multiplicity = 1
  Basis Set: AUG-CC-PVTZ
    Blend: AUG-CC-PVTZ
  Basis Set: (AUG-CC-PVTZ AUX)
    Blend: AUG-CC-PVTZ-JKFIT

    Orbital Energies [Eh]
    ---------------------

    Doubly Occupied:

       1A    -15.546284     2A    -15.545875     3A    -11.254709
       4A    -11.243952     5A    -11.243558     6A    -11.243170
       7A    -11.240743     8A    -11.240133     9A     -1.255145
      10A     -1.203376    11A     -1.020646    12A     -0.988885
      13A     -0.907188    14A     -0.859237    15A     -0.831885
      16A     -0.756226    17A     -0.661203    18A     -0.628279
      19A     -0.627610    20A     -0.625685    21A     -0.621824
      22A     -0.580393    23A     -0.546970    24A     -0.541661
      25A     -0.536160    26A     -0.515948    27A     -0.494071
      28A     -0.490088    29A     -0.459264    30A     -0.452687
      31A     -0.359855    32A     -0.358537

  @DF-RHF Final Energy:  -344.34488994588145

   => Energetics <=

    Nuclear Repulsion Energy =            419.8934166862343318
    One-Electron Energy =               -1298.7141148968876223
    Two-Electron Energy =                 534.4758082647718993
    Total Energy =                       -344.3448899458813912
  Basis Set: (AUG-CC-PVTZ AUX)
    Blend: AUG-CC-PVTZ-RI
    Molecular point group: c1

    Geometry (in Angstrom), charge = 0, multiplicity = 1:

       Center              X                  Y                   Z               Mass
    ------------   -----------------  -----------------  -----------------  -----------------
         N           -1.388400874355     0.000712758337    -0.338886190089    14.003074004430
         N            1.389195125645     0.000712758337     0.339562809911    14.003074004430
         C            0.734829125645    -1.190087241663    -0.192869190089    12.000000000000
         C           -0.734034874355    -1.190086241663     0.193544809911    12.000000000000
         C            0.734830125645     1.191513758337    -0.192868190089    12.000000000000
         C           -0.734035874355     1.191513758337     0.193544809911    12.000000000000
         C           -2.807151874355     0.000711758337    -0.014535190089    12.000000000000
         C            2.807945125645     0.000711758337     0.015209809911    12.000000000000
         H            0.818281125645    -1.243921241663    -1.295400190089     1.007825032230
         H            1.227785125645    -2.075194241663     0.226700809911     1.007825032230
         H            1.227786125645     2.076620758337     0.226701809911     1.007825032230
         H            0.818281125645     1.245348758337    -1.295399190089     1.007825032230
         H           -1.271945374355    -2.155910541663    -0.264285190089     1.007825032230
         H           -0.817486874355    -1.243921241663     1.296075809911     1.007825032230
         H           -0.817485874355     1.245347758337     1.296075809911     1.007825032230
         H           -1.226991874355     2.076620758337    -0.226024190089     1.007825032230
         H           -3.278171874355     0.887813758337    -0.447682190089     1.007825032230
         H           -2.998079874355     0.000711758337     1.074023809911     1.007825032230
         H           -3.278171874355    -0.886390241663    -0.447681190089     1.007825032230
         H            2.998872125645     0.000711758337    -1.073350190089     1.007825032230
         H            3.278966125645    -0.886390241663     0.448354809911     1.007825032230
         H            3.278967125645     0.887813758337     0.448354809911     1.007825032230

  Basis Set: AUG-CC-PVTZ
    Blend: AUG-CC-PVTZ
  Basis Set: (AUG-CC-PVTZ AUX)
    Blend: AUG-CC-PVTZ-JKFIT
	 Reference Energy          =    -344.3448899458814481 [Eh]
	 Singles Energy            =      -0.0000000000000000 [Eh]
	 Same-Spin Energy          =      -0.3690514442615626 [Eh]
	 Opposite-Spin Energy      =      -1.2711945812637908 [Eh]
	 Correlation Energy        =      -1.6402460255253533 [Eh]
	 Total Energy              =    -345.9851359714068053 [Eh]

	 ================> DF-SCS-MP2 Energies <==================
	-----------------------------------------------------------
	 SCS Same-Spin Scale       =       0.3333333333333333 [-]
	 SCS Opposite-Spin Scale   =       1.2000000000000000 [-]
	 SCS Same-Spin Energy      =      -0.1230171480871875 [Eh]
	 SCS Opposite-Spin Energy  =      -1.5254334975165489 [Eh]
	 SCS Correlation Energy    =      -1.6484506456037364 [Eh]
	 SCS Total Energy          =    -345.9933405914852074 [Eh]
	-----------------------------------------------------------

  Dipole Moment: [D]
     X:     0.0404      Y:     0.0767      Z:     0.0137     Total:     0.0878

*** Psi4 exiting successfully. Buy a developer a beer!
