                               Psi4 1.4a3.dev225

  ==> Input File <==

--------------------------------------------------------------------------
#psi4
#
memory 32 gb

molecule  {
0 1
  N       -1.3887980     0.0000000    -0.3392240
  N        1.5173352     0.0516480     0.2748517
  C        0.7344320    -1.1908000    -0.1932070
  C       -0.7344320    -1.1907990     0.1932070
  C        0.7344330     1.1908010    -0.1932060
  C       -0.7344330     1.1908010     0.1932070
  C       -2.8075490    -0.0000010    -0.0148730
  C        2.8075480    -0.0000010     0.0148720
  H        0.8178840    -1.2446340    -1.2957380
  H        1.2273880    -2.0759070     0.2263630
  H        1.2273890     2.0759080     0.2263640
  H        0.8178840     1.2446360    -1.2957370
  H       -1.2273880    -2.0759070    -0.2263610
  H       -0.8178840    -1.2446340     1.2957380
  H       -0.8178830     1.2446350     1.2957380
  H       -1.2273890     2.0759080    -0.2263620
  H       -3.2785690     0.8871010    -0.4480200
  H       -2.9984770    -0.0000010     1.0736860
  H       -3.2785690    -0.8871030    -0.4480190
  H        2.9984750    -0.0000010    -1.0736880
  H        3.2785690    -0.8871030     0.4480170
  H        3.2785700     0.8871010     0.4480170
units angstrom
no_reorient  #important for SAPT in psi4, default
symmetry c1  #important for SAPT in psi4, default
}

set PROPERTIES_ORIGIN ["COM"]
properties('MP2/aug-cc-pvtz', properties = ['dipole'])
--------------------------------------------------------------------------

    Molecular point group: c1
  Charge       = 0
  Multiplicity = 1
  Basis Set: AUG-CC-PVTZ
    Blend: AUG-CC-PVTZ
  Basis Set: (AUG-CC-PVTZ AUX)
    Blend: AUG-CC-PVTZ-JKFIT

    Orbital Energies [Eh]
    ---------------------

    Doubly Occupied:

       1A    -15.548272     2A    -15.536609     3A    -11.249901
       4A    -11.249069     5A    -11.248564     6A    -11.245234
       7A    -11.242849     8A    -11.228948     9A     -1.258962
      10A     -1.218010    11A     -1.022000    12A     -1.004991
      13A     -0.909902    14A     -0.862738    15A     -0.828824
      16A     -0.757152    17A     -0.667093    18A     -0.641520
      19A     -0.636507    20A     -0.627741    21A     -0.625605
      22A     -0.594166    23A     -0.551915    24A     -0.549212
      25A     -0.534701    26A     -0.516063    27A     -0.492702
      28A     -0.492101    29A     -0.475227    30A     -0.444537
      31A     -0.362055    32A     -0.339560

  @DF-RHF Final Energy:  -344.32947853429107

   => Energetics <=

    Nuclear Repulsion Energy =            419.9833171669034755
    One-Electron Energy =               -1298.7001354240417186
    Two-Electron Energy =                 534.3873397228471731
    Total Energy =                       -344.3294785342910700
  Basis Set: (AUG-CC-PVTZ AUX)
    Blend: AUG-CC-PVTZ-RI
    Molecular point group: c1

    Geometry (in Angstrom), charge = 0, multiplicity = 1:

       Center              X                  Y                   Z               Mass
    ------------   -----------------  -----------------  -----------------  -----------------
         N           -1.404570623296    -0.006337793731    -0.331324893141    14.003074004430
         N            1.501562576704     0.045310206269     0.282750806859    14.003074004430
         C            0.718659376704    -1.197137793731    -0.185307893141    12.000000000000
         C           -0.750204623296    -1.197136793731     0.201106106859    12.000000000000
         C            0.718660376704     1.184463206269    -0.185306893141    12.000000000000
         C           -0.750205623296     1.184463206269     0.201106106859    12.000000000000
         C           -2.823321623296    -0.006338793731    -0.006973893141    12.000000000000
         C            2.791775376704    -0.006338793731     0.022771106859    12.000000000000
         H            0.802111376704    -1.250971793731    -1.287838893141     1.007825032230
         H            1.211615376704    -2.082244793731     0.234262106859     1.007825032230
         H            1.211616376704     2.069570206269     0.234263106859     1.007825032230
         H            0.802111376704     1.238298206269    -1.287837893141     1.007825032230
         H           -1.243160623296    -2.082244793731    -0.218461893141     1.007825032230
         H           -0.833656623296    -1.250971793731     1.303637106859     1.007825032230
         H           -0.833655623296     1.238297206269     1.303637106859     1.007825032230
         H           -1.243161623296     2.069570206269    -0.218462893141     1.007825032230
         H           -3.294341623296     0.880763206269    -0.440120893141     1.007825032230
         H           -3.014249623296    -0.006338793731     1.081585106859     1.007825032230
         H           -3.294341623296    -0.893440793731    -0.440119893141     1.007825032230
         H            2.982702376704    -0.006338793731    -1.065788893141     1.007825032230
         H            3.262796376704    -0.893440793731     0.455916106859     1.007825032230
         H            3.262797376704     0.880763206269     0.455916106859     1.007825032230

  Basis Set: AUG-CC-PVTZ
    Blend: AUG-CC-PVTZ
  Basis Set: (AUG-CC-PVTZ AUX)
    Blend: AUG-CC-PVTZ-JKFIT
	 Reference Energy          =    -344.3294785342910700 [Eh]
	 Singles Energy            =      -0.0000000000000000 [Eh]
	 Same-Spin Energy          =      -0.3694305591055589 [Eh]
	 Opposite-Spin Energy      =      -1.2702392829602278 [Eh]
	 Correlation Energy        =      -1.6396698420657867 [Eh]
	 Total Energy              =    -345.9691483763568840 [Eh]

	 ================> DF-SCS-MP2 Energies <==================
	-----------------------------------------------------------
	 SCS Same-Spin Scale       =       0.3333333333333333 [-]
	 SCS Opposite-Spin Scale   =       1.2000000000000000 [-]
	 SCS Same-Spin Energy      =      -0.1231435197018530 [Eh]
	 SCS Opposite-Spin Energy  =      -1.5242871395522732 [Eh]
	 SCS Correlation Energy    =      -1.6474306592541261 [Eh]
	 SCS Total Energy          =    -345.9769091935451684 [Eh]
	-----------------------------------------------------------

  Dipole Moment: [D]
     X:    -0.5410      Y:    -0.1312      Z:     0.2532     Total:     0.6116

*** Psi4 exiting successfully. Buy a developer a beer!
