                               Psi4 1.4a3.dev225

  ==> Input File <==

--------------------------------------------------------------------------
#psi4
#
memory 32 gb

molecule  {
0 1
  N       -1.3887980     0.0000000    -0.3392240
  N        1.3887980     0.0000000     0.3392250
  C        0.7344320    -1.1908000    -0.1932070
  C       -0.7344320    -1.1907990     0.1932070
  C        0.7344330     1.1908010    -0.1932060
  C       -0.7568528     1.1500018     0.1749649
  C       -2.8075490    -0.0000010    -0.0148730
  C        2.8075480    -0.0000010     0.0148720
  H        0.8178840    -1.2446340    -1.2957380
  H        1.2273880    -2.0759070     0.2263630
  H        1.2273890     2.0759080     0.2263640
  H        0.8178840     1.2446360    -1.2957370
  H       -1.2273880    -2.0759070    -0.2263610
  H       -0.8178840    -1.2446340     1.2957380
  H       -0.8178830     1.2446350     1.2957380
  H       -1.2273890     2.0759080    -0.2263620
  H       -3.2785690     0.8871010    -0.4480200
  H       -2.9984770    -0.0000010     1.0736860
  H       -3.2785690    -0.8871030    -0.4480190
  H        2.9984750    -0.0000010    -1.0736880
  H        3.2785690    -0.8871030     0.4480170
  H        3.2785700     0.8871010     0.4480170
units angstrom
no_reorient  #important for SAPT in psi4, default
symmetry c1  #important for SAPT in psi4, default
}

set PROPERTIES_ORIGIN ["COM"]
properties('MP2/aug-cc-pvtz', properties = ['dipole'])
--------------------------------------------------------------------------

    Molecular point group: c1
  Charge       = 0
  Multiplicity = 1
  Basis Set: AUG-CC-PVTZ
    Blend: AUG-CC-PVTZ
  Basis Set: (AUG-CC-PVTZ AUX)
    Blend: AUG-CC-PVTZ-JKFIT

    Orbital Energies [Eh]
    ---------------------

    Doubly Occupied:

       1A    -15.545954     2A    -15.544484     3A    -11.244341
       4A    -11.243632     5A    -11.243217     6A    -11.242579
       7A    -11.241682     8A    -11.239747     9A     -1.261145
      10A     -1.208329    11A     -1.020992    12A     -0.988483
      13A     -0.909495    14A     -0.864519    15A     -0.833119
      16A     -0.755719    17A     -0.665124    18A     -0.633530
      19A     -0.630945    20A     -0.623771    21A     -0.621972
      22A     -0.582642    23A     -0.547872    24A     -0.542044
      25A     -0.540352    26A     -0.516031    27A     -0.496860
      28A     -0.484943    29A     -0.465718    30A     -0.450427
      31A     -0.359750    32A     -0.357041

  @DF-RHF Final Energy:  -344.34896635310133

   => Energetics <=

    Nuclear Repulsion Energy =            421.0645815627377146
    One-Electron Energy =               -1301.0141766931415077
    Two-Electron Energy =                 535.6006287773025178
    Total Energy =                       -344.3489663531013321
  Basis Set: (AUG-CC-PVTZ AUX)
    Blend: AUG-CC-PVTZ-RI
    Molecular point group: c1

    Geometry (in Angstrom), charge = 0, multiplicity = 1:

       Center              X                  Y                   Z               Mass
    ------------   -----------------  -----------------  -----------------  -----------------
         N           -1.386440308608     0.004290202088    -0.337305830848    14.003074004430
         N            1.391155691392     0.004290202088     0.341143169152    14.003074004430
         C            0.736789691392    -1.186509797912    -0.191288830848    12.000000000000
         C           -0.732074308608    -1.186508797912     0.195125169152    12.000000000000
         C            0.736790691392     1.195091202088    -0.191287830848    12.000000000000
         C           -0.754495108608     1.154292002088     0.176883069152    12.000000000000
         C           -2.805191308608     0.004289202088    -0.012954830848    12.000000000000
         C            2.809905691392     0.004289202088     0.016790169152    12.000000000000
         H            0.820241691392    -1.240343797912    -1.293819830848     1.007825032230
         H            1.229745691392    -2.071616797912     0.228281169152     1.007825032230
         H            1.229746691392     2.080198202088     0.228282169152     1.007825032230
         H            0.820241691392     1.248926202088    -1.293818830848     1.007825032230
         H           -1.225030308608    -2.071616797912    -0.224442830848     1.007825032230
         H           -0.815526308608    -1.240343797912     1.297656169152     1.007825032230
         H           -0.815525308608     1.248925202088     1.297656169152     1.007825032230
         H           -1.225031308608     2.080198202088    -0.224443830848     1.007825032230
         H           -3.276211308608     0.891391202088    -0.446101830848     1.007825032230
         H           -2.996119308608     0.004289202088     1.075604169152     1.007825032230
         H           -3.276211308608    -0.882812797912    -0.446100830848     1.007825032230
         H            3.000832691392     0.004289202088    -1.071769830848     1.007825032230
         H            3.280926691392    -0.882812797912     0.449935169152     1.007825032230
         H            3.280927691392     0.891391202088     0.449935169152     1.007825032230

  Basis Set: AUG-CC-PVTZ
    Blend: AUG-CC-PVTZ
  Basis Set: (AUG-CC-PVTZ AUX)
    Blend: AUG-CC-PVTZ-JKFIT
	 Reference Energy          =    -344.3489663531013321 [Eh]
	 Singles Energy            =      -0.0000000000000000 [Eh]
	 Same-Spin Energy          =      -0.3692778211632158 [Eh]
	 Opposite-Spin Energy      =      -1.2704850606876621 [Eh]
	 Correlation Energy        =      -1.6397628818508778 [Eh]
	 Total Energy              =    -345.9887292349521886 [Eh]

	 ================> DF-SCS-MP2 Energies <==================
	-----------------------------------------------------------
	 SCS Same-Spin Scale       =       0.3333333333333333 [-]
	 SCS Opposite-Spin Scale   =       1.2000000000000000 [-]
	 SCS Same-Spin Energy      =      -0.1230926070544053 [Eh]
	 SCS Opposite-Spin Energy  =      -1.5245820728251944 [Eh]
	 SCS Correlation Energy    =      -1.6476746798795996 [Eh]
	 SCS Total Energy          =    -345.9966410329809037 [Eh]
	-----------------------------------------------------------

  Dipole Moment: [D]
     X:    -0.0552      Y:    -0.1040      Z:    -0.0539     Total:     0.1295

*** Psi4 exiting successfully. Buy a developer a beer!
