                               Psi4 1.4a3.dev225

  ==> Input File <==

--------------------------------------------------------------------------
#psi4
#
memory 32 gb

molecule  {
0 1
  N       -1.3887980     0.0000000    -0.3392240
  N        1.3887980     0.0000000     0.3392250
  C        0.7344320    -1.1908000    -0.1932070
  C       -0.7344320    -1.1907990     0.1932070
  C        0.7344330     1.1908010    -0.1932060
  C       -0.7344330     1.1908010     0.1932070
  C       -2.8075490    -0.0000010    -0.0148730
  C        2.8075480    -0.0000010     0.0148720
  H        0.8178840    -1.2446340    -1.2957380
  H        1.2273880    -2.0759070     0.2263630
  H        1.2273890     2.0759080     0.2263640
  H        0.8178840     1.2446360    -1.2957370
  H       -1.2273880    -2.0759070    -0.2263610
  H       -0.8178840    -1.2446340     1.2957380
  H       -0.8163753     1.2436624     1.2758186
  H       -1.2273890     2.0759080    -0.2263620
  H       -3.2785690     0.8871010    -0.4480200
  H       -2.9984770    -0.0000010     1.0736860
  H       -3.2785690    -0.8871030    -0.4480190
  H        2.9984750    -0.0000010    -1.0736880
  H        3.2785690    -0.8871030     0.4480170
  H        3.2785700     0.8871010     0.4480170
units angstrom
no_reorient  #important for SAPT in psi4, default
symmetry c1  #important for SAPT in psi4, default
}

set PROPERTIES_ORIGIN ["COM"]
properties('MP2/aug-cc-pvtz', properties = ['dipole'])
--------------------------------------------------------------------------

    Molecular point group: c1
  Charge       = 0
  Multiplicity = 1
  Basis Set: AUG-CC-PVTZ
    Blend: AUG-CC-PVTZ
  Basis Set: (AUG-CC-PVTZ AUX)
    Blend: AUG-CC-PVTZ-JKFIT

    Orbital Energies [Eh]
    ---------------------

    Doubly Occupied:

       1A    -15.545011     2A    -15.544574     3A    -11.242887
       4A    -11.242462     5A    -11.242242     6A    -11.240149
       7A    -11.240075     8A    -11.240024     9A     -1.254453
      10A     -1.202641    11A     -1.022698    12A     -0.988948
      13A     -0.906964    14A     -0.862433    15A     -0.833466
      16A     -0.757867    17A     -0.663064    18A     -0.632446
      19A     -0.627680    20A     -0.626653    21A     -0.621293
      22A     -0.579778    23A     -0.547470    24A     -0.541092
      25A     -0.540934    26A     -0.517076    27A     -0.495779
      28A     -0.489952    29A     -0.461260    30A     -0.454131
      31A     -0.359211    32A     -0.357792

  @DF-RHF Final Energy:  -344.35167126419890

   => Energetics <=

    Nuclear Repulsion Energy =            420.4938762412386950
    One-Electron Energy =               -1299.9260793346272749
    Two-Electron Energy =                 535.0805318291896810
    Total Energy =                       -344.3516712641988988
  Basis Set: (AUG-CC-PVTZ AUX)
    Blend: AUG-CC-PVTZ-RI
    Molecular point group: c1

    Geometry (in Angstrom), charge = 0, multiplicity = 1:

       Center              X                  Y                   Z               Mass
    ------------   -----------------  -----------------  -----------------  -----------------
         N           -1.388811210258     0.000008493296    -0.339048184728    14.003074004430
         N            1.388784789742     0.000008493296     0.339400815272    14.003074004430
         C            0.734418789742    -1.190791506704    -0.193031184728    12.000000000000
         C           -0.734445210258    -1.190790506704     0.193382815272    12.000000000000
         C            0.734419789742     1.190809493296    -0.193030184728    12.000000000000
         C           -0.734446210258     1.190809493296     0.193382815272    12.000000000000
         C           -2.807562210258     0.000007493296    -0.014697184728    12.000000000000
         C            2.807534789742     0.000007493296     0.015047815272    12.000000000000
         H            0.817870789742    -1.244625506704    -1.295562184728     1.007825032230
         H            1.227374789742    -2.075898506704     0.226538815272     1.007825032230
         H            1.227375789742     2.075916493296     0.226539815272     1.007825032230
         H            0.817870789742     1.244644493296    -1.295561184728     1.007825032230
         H           -1.227401210258    -2.075898506704    -0.226185184728     1.007825032230
         H           -0.817897210258    -1.244625506704     1.295913815272     1.007825032230
         H           -0.816388510258     1.243670893296     1.275994415272     1.007825032230
         H           -1.227402210258     2.075916493296    -0.226186184728     1.007825032230
         H           -3.278582210258     0.887109493296    -0.447844184728     1.007825032230
         H           -2.998490210258     0.000007493296     1.073861815272     1.007825032230
         H           -3.278582210258    -0.887094506704    -0.447843184728     1.007825032230
         H            2.998461789742     0.000007493296    -1.073512184728     1.007825032230
         H            3.278555789742    -0.887094506704     0.448192815272     1.007825032230
         H            3.278556789742     0.887109493296     0.448192815272     1.007825032230

  Basis Set: AUG-CC-PVTZ
    Blend: AUG-CC-PVTZ
  Basis Set: (AUG-CC-PVTZ AUX)
    Blend: AUG-CC-PVTZ-JKFIT
	 Reference Energy          =    -344.3516712641988988 [Eh]
	 Singles Energy            =      -0.0000000000000000 [Eh]
	 Same-Spin Energy          =      -0.3688876879827967 [Eh]
	 Opposite-Spin Energy      =      -1.2702142085625763 [Eh]
	 Correlation Energy        =      -1.6391018965453730 [Eh]
	 Total Energy              =    -345.9907731607442543 [Eh]

	 ================> DF-SCS-MP2 Energies <==================
	-----------------------------------------------------------
	 SCS Same-Spin Scale       =       0.3333333333333333 [-]
	 SCS Opposite-Spin Scale   =       1.2000000000000000 [-]
	 SCS Same-Spin Energy      =      -0.1229625626609322 [Eh]
	 SCS Opposite-Spin Energy  =      -1.5242570502750914 [Eh]
	 SCS Correlation Energy    =      -1.6472196129360237 [Eh]
	 SCS Total Energy          =    -345.9988908771348974 [Eh]
	-----------------------------------------------------------

  Dipole Moment: [D]
     X:    -0.0009      Y:     0.0092      Z:     0.0192     Total:     0.0213

*** Psi4 exiting successfully. Buy a developer a beer!
