                               Psi4 1.4a3.dev225

  ==> Input File <==

--------------------------------------------------------------------------
#psi4
#
memory 32 gb

molecule  {
0 1
  N       -1.2530917     0.0386014    -0.3977641
  N        1.3887980     0.0000000     0.3392250
  C        0.7344320    -1.1908000    -0.1932070
  C       -0.7344320    -1.1907990     0.1932070
  C        0.7344330     1.1908010    -0.1932060
  C       -0.7344330     1.1908010     0.1932070
  C       -2.8075490    -0.0000010    -0.0148730
  C        2.8075480    -0.0000010     0.0148720
  H        0.8178840    -1.2446340    -1.2957380
  H        1.2273880    -2.0759070     0.2263630
  H        1.2273890     2.0759080     0.2263640
  H        0.8178840     1.2446360    -1.2957370
  H       -1.2273880    -2.0759070    -0.2263610
  H       -0.8178840    -1.2446340     1.2957380
  H       -0.8178830     1.2446350     1.2957380
  H       -1.2273890     2.0759080    -0.2263620
  H       -3.2785690     0.8871010    -0.4480200
  H       -2.9984770    -0.0000010     1.0736860
  H       -3.2785690    -0.8871030    -0.4480190
  H        2.9984750    -0.0000010    -1.0736880
  H        3.2785690    -0.8871030     0.4480170
  H        3.2785700     0.8871010     0.4480170
units angstrom
no_reorient  #important for SAPT in psi4, default
symmetry c1  #important for SAPT in psi4, default
}

set PROPERTIES_ORIGIN ["COM"]
properties('MP2/aug-cc-pvtz', properties = ['dipole'])
--------------------------------------------------------------------------

    Molecular point group: c1
  Charge       = 0
  Multiplicity = 1
  Basis Set: AUG-CC-PVTZ
    Blend: AUG-CC-PVTZ
  Basis Set: (AUG-CC-PVTZ AUX)
    Blend: AUG-CC-PVTZ-JKFIT

    Orbital Energies [Eh]
    ---------------------

    Doubly Occupied:

       1A    -15.553901     2A    -15.542830     3A    -11.248753
       4A    -11.243231     5A    -11.238154     6A    -11.238133
       7A    -11.237480     8A    -11.236762     9A     -1.258307
      10A     -1.195221    11A     -1.025343    12A     -0.974143
      13A     -0.906553    14A     -0.861587    15A     -0.834787
      16A     -0.758214    17A     -0.661867    18A     -0.629701
      19A     -0.626864    20A     -0.620211    21A     -0.615829
      22A     -0.568671    23A     -0.554947    24A     -0.544466
      25A     -0.534132    26A     -0.516884    27A     -0.497392
      28A     -0.486520    29A     -0.465737    30A     -0.426546
      31A     -0.371814    32A     -0.355661

  @DF-RHF Final Energy:  -344.32846178158684

   => Energetics <=

    Nuclear Repulsion Energy =            421.0878395522224196
    One-Electron Energy =               -1301.1713188723567782
    Two-Electron Energy =                 535.7550175385474631
    Total Energy =                       -344.3284617815868387
  Basis Set: (AUG-CC-PVTZ AUX)
    Blend: AUG-CC-PVTZ-RI
    Molecular point group: c1

    Geometry (in Angstrom), charge = 0, multiplicity = 1:

       Center              X                  Y                   Z               Mass
    ------------   -----------------  -----------------  -----------------  -----------------
         N           -1.269744039577     0.033864547312    -0.390580781875    14.003074004430
         N            1.372145660423    -0.004736852688     0.346408318125    14.003074004430
         C            0.717779660423    -1.195536852688    -0.186023681875    12.000000000000
         C           -0.751084339577    -1.195535852688     0.200390318125    12.000000000000
         C            0.717780660423     1.186064147312    -0.186022681875    12.000000000000
         C           -0.751085339577     1.186064147312     0.200390318125    12.000000000000
         C           -2.824201339577    -0.004737852688    -0.007689681875    12.000000000000
         C            2.790895660423    -0.004737852688     0.022055318125    12.000000000000
         H            0.801231660423    -1.249370852688    -1.288554681875     1.007825032230
         H            1.210735660423    -2.080643852688     0.233546318125     1.007825032230
         H            1.210736660423     2.071171147312     0.233547318125     1.007825032230
         H            0.801231660423     1.239899147312    -1.288553681875     1.007825032230
         H           -1.244040339577    -2.080643852688    -0.219177681875     1.007825032230
         H           -0.834536339577    -1.249370852688     1.302921318125     1.007825032230
         H           -0.834535339577     1.239898147312     1.302921318125     1.007825032230
         H           -1.244041339577     2.071171147312    -0.219178681875     1.007825032230
         H           -3.295221339577     0.882364147312    -0.440836681875     1.007825032230
         H           -3.015129339577    -0.004737852688     1.080869318125     1.007825032230
         H           -3.295221339577    -0.891839852688    -0.440835681875     1.007825032230
         H            2.981822660423    -0.004737852688    -1.066504681875     1.007825032230
         H            3.261916660423    -0.891839852688     0.455200318125     1.007825032230
         H            3.261917660423     0.882364147312     0.455200318125     1.007825032230

  Basis Set: AUG-CC-PVTZ
    Blend: AUG-CC-PVTZ
  Basis Set: (AUG-CC-PVTZ AUX)
    Blend: AUG-CC-PVTZ-JKFIT
	 Reference Energy          =    -344.3284617815868387 [Eh]
	 Singles Energy            =      -0.0000000000000000 [Eh]
	 Same-Spin Energy          =      -0.3703091228327858 [Eh]
	 Opposite-Spin Energy      =      -1.2740682054134647 [Eh]
	 Correlation Energy        =      -1.6443773282462506 [Eh]
	 Total Energy              =    -345.9728391098331031 [Eh]

	 ================> DF-SCS-MP2 Energies <==================
	-----------------------------------------------------------
	 SCS Same-Spin Scale       =       0.3333333333333333 [-]
	 SCS Opposite-Spin Scale   =       1.2000000000000000 [-]
	 SCS Same-Spin Energy      =      -0.1234363742775953 [Eh]
	 SCS Opposite-Spin Energy  =      -1.5288818464961575 [Eh]
	 SCS Correlation Energy    =      -1.6523182207737528 [Eh]
	 SCS Total Energy          =    -345.9807800023605751 [Eh]
	-----------------------------------------------------------

  Dipole Moment: [D]
     X:    -0.3744      Y:    -0.1117      Z:     0.1834     Total:     0.4316

*** Psi4 exiting successfully. Buy a developer a beer!
