                               Psi4 1.4a3.dev225

  ==> Input File <==

--------------------------------------------------------------------------
#psi4
#
memory 32 gb

molecule  {
0 1
  N       -1.3887980     0.0000000    -0.3392240
  N        1.3887980     0.0000000     0.3392250
  C        0.7344320    -1.1908000    -0.1932070
  C       -0.7344320    -1.1907990     0.1932070
  C        0.7344330     1.1908010    -0.1932060
  C       -0.7254651     1.2071207     0.2005039
  C       -2.8075490    -0.0000010    -0.0148730
  C        2.8075480    -0.0000010     0.0148720
  H        0.8178840    -1.2446340    -1.2957380
  H        1.2273880    -2.0759070     0.2263630
  H        1.2273890     2.0759080     0.2263640
  H        0.8178840     1.2446360    -1.2957370
  H       -1.2273880    -2.0759070    -0.2263610
  H       -0.8178840    -1.2446340     1.2957380
  H       -0.8178830     1.2446350     1.2957380
  H       -1.2273890     2.0759080    -0.2263620
  H       -3.2785690     0.8871010    -0.4480200
  H       -2.9984770    -0.0000010     1.0736860
  H       -3.2785690    -0.8871030    -0.4480190
  H        2.9984750    -0.0000010    -1.0736880
  H        3.2785690    -0.8871030     0.4480170
  H        3.2785700     0.8871010     0.4480170
units angstrom
no_reorient  #important for SAPT in psi4, default
symmetry c1  #important for SAPT in psi4, default
}

set PROPERTIES_ORIGIN ["COM"]
properties('MP2/aug-cc-pvtz', properties = ['dipole'])
--------------------------------------------------------------------------

    Molecular point group: c1
  Charge       = 0
  Multiplicity = 1
  Basis Set: AUG-CC-PVTZ
    Blend: AUG-CC-PVTZ
  Basis Set: (AUG-CC-PVTZ AUX)
    Blend: AUG-CC-PVTZ-JKFIT

    Orbital Energies [Eh]
    ---------------------

    Doubly Occupied:

       1A    -15.545278     2A    -15.544625     3A    -11.242931
       4A    -11.242599     5A    -11.242238     6A    -11.241871
       7A    -11.240263     8A    -11.239528     9A     -1.252489
      10A     -1.200369    11A     -1.023058    12A     -0.988968
      13A     -0.906106    14A     -0.861272    15A     -0.833180
      16A     -0.757049    17A     -0.662523    18A     -0.632765
      19A     -0.627138    20A     -0.625232    21A     -0.620637
      22A     -0.578764    23A     -0.547706    24A     -0.541243
      25A     -0.540494    26A     -0.516850    27A     -0.495147
      28A     -0.490842    29A     -0.460537    30A     -0.454055
      31A     -0.359021    32A     -0.357836

  @DF-RHF Final Energy:  -344.35118170604505

   => Energetics <=

    Nuclear Repulsion Energy =            420.1318597049232721
    One-Electron Energy =               -1299.2208575880963508
    Two-Electron Energy =                 534.7378161771280247
    Total Energy =                       -344.3511817060450539
  Basis Set: (AUG-CC-PVTZ AUX)
    Blend: AUG-CC-PVTZ-RI
    Molecular point group: c1

    Geometry (in Angstrom), charge = 0, multiplicity = 1:

       Center              X                  Y                   Z               Mass
    ------------   -----------------  -----------------  -----------------  -----------------
         N           -1.389740927235    -0.001716217793    -0.339991421035    14.003074004430
         N            1.387855072765    -0.001716217793     0.338457578965    14.003074004430
         C            0.733489072765    -1.192516217793    -0.193974421035    12.000000000000
         C           -0.735374927235    -1.192515217793     0.192439578965    12.000000000000
         C            0.733490072765     1.189084782207    -0.193973421035    12.000000000000
         C           -0.726408027235     1.205404482207     0.199736478965    12.000000000000
         C           -2.808491927235    -0.001717217793    -0.015640421035    12.000000000000
         C            2.806605072765    -0.001717217793     0.014104578965    12.000000000000
         H            0.816941072765    -1.246350217793    -1.296505421035     1.007825032230
         H            1.226445072765    -2.077623217793     0.225595578965     1.007825032230
         H            1.226446072765     2.074191782207     0.225596578965     1.007825032230
         H            0.816941072765     1.242919782207    -1.296504421035     1.007825032230
         H           -1.228330927235    -2.077623217793    -0.227128421035     1.007825032230
         H           -0.818826927235    -1.246350217793     1.294970578965     1.007825032230
         H           -0.818825927235     1.242918782207     1.294970578965     1.007825032230
         H           -1.228331927235     2.074191782207    -0.227129421035     1.007825032230
         H           -3.279511927235     0.885384782207    -0.448787421035     1.007825032230
         H           -2.999419927235    -0.001717217793     1.072918578965     1.007825032230
         H           -3.279511927235    -0.888819217793    -0.448786421035     1.007825032230
         H            2.997532072765    -0.001717217793    -1.074455421035     1.007825032230
         H            3.277626072765    -0.888819217793     0.447249578965     1.007825032230
         H            3.277627072765     0.885384782207     0.447249578965     1.007825032230

  Basis Set: AUG-CC-PVTZ
    Blend: AUG-CC-PVTZ
  Basis Set: (AUG-CC-PVTZ AUX)
    Blend: AUG-CC-PVTZ-JKFIT
	 Reference Energy          =    -344.3511817060450539 [Eh]
	 Singles Energy            =      -0.0000000000000000 [Eh]
	 Same-Spin Energy          =      -0.3688581679312494 [Eh]
	 Opposite-Spin Energy      =      -1.2704342326535953 [Eh]
	 Correlation Energy        =      -1.6392924005848448 [Eh]
	 Total Energy              =    -345.9904741066299039 [Eh]

	 ================> DF-SCS-MP2 Energies <==================
	-----------------------------------------------------------
	 SCS Same-Spin Scale       =       0.3333333333333333 [-]
	 SCS Opposite-Spin Scale   =       1.2000000000000000 [-]
	 SCS Same-Spin Energy      =      -0.1229527226437498 [Eh]
	 SCS Opposite-Spin Energy  =      -1.5245210791843145 [Eh]
	 SCS Correlation Energy    =      -1.6474738018280644 [Eh]
	 SCS Total Energy          =    -345.9986555078731385 [Eh]
	-----------------------------------------------------------

  Dipole Moment: [D]
     X:     0.0212      Y:     0.0375      Z:     0.0191     Total:     0.0471

*** Psi4 exiting successfully. Buy a developer a beer!
