                               Psi4 1.4a3.dev225

  ==> Input File <==

--------------------------------------------------------------------------
#psi4
#
memory 32 gb

molecule  {
0 1
  N       -1.3887980     0.0000000    -0.3392240
  N        1.3887980     0.0000000     0.3392250
  C        0.7344320    -1.1908000    -0.1932070
  C       -0.7344320    -1.1907990     0.1932070
  C        0.7344330     1.1908010    -0.1932060
  C       -0.7344330     1.1908010     0.1932070
  C       -2.7880520    -0.0000010    -0.0193303
  C        2.8075480    -0.0000010     0.0148720
  H        0.8178840    -1.2446340    -1.2957380
  H        1.2273880    -2.0759070     0.2263630
  H        1.2273890     2.0759080     0.2263640
  H        0.8178840     1.2446360    -1.2957370
  H       -1.2273880    -2.0759070    -0.2263610
  H       -0.8178840    -1.2446340     1.2957380
  H       -0.8178830     1.2446350     1.2957380
  H       -1.2273890     2.0759080    -0.2263620
  H       -3.2785690     0.8871010    -0.4480200
  H       -2.9984770    -0.0000010     1.0736860
  H       -3.2785690    -0.8871030    -0.4480190
  H        2.9984750    -0.0000010    -1.0736880
  H        3.2785690    -0.8871030     0.4480170
  H        3.2785700     0.8871010     0.4480170
units angstrom
no_reorient  #important for SAPT in psi4, default
symmetry c1  #important for SAPT in psi4, default
}

set PROPERTIES_ORIGIN ["COM"]
properties('MP2/aug-cc-pvtz', properties = ['dipole'])
--------------------------------------------------------------------------

    Molecular point group: c1
  Charge       = 0
  Multiplicity = 1
  Basis Set: AUG-CC-PVTZ
    Blend: AUG-CC-PVTZ
  Basis Set: (AUG-CC-PVTZ AUX)
    Blend: AUG-CC-PVTZ-JKFIT

    Orbital Energies [Eh]
    ---------------------

    Doubly Occupied:

       1A    -15.545363     2A    -15.545200     3A    -11.243445
       4A    -11.243428     5A    -11.242765     6A    -11.242755
       7A    -11.240656     8A    -11.240362     9A     -1.256663
      10A     -1.205606    11A     -1.022919    12A     -0.990132
      13A     -0.906046    14A     -0.862836    15A     -0.833055
      16A     -0.757510    17A     -0.664702    18A     -0.633539
      19A     -0.628390    20A     -0.625886    21A     -0.621606
      22A     -0.581786    23A     -0.546007    24A     -0.541191
      25A     -0.540865    26A     -0.515134    27A     -0.494325
      28A     -0.488980    29A     -0.461470    30A     -0.456067
      31A     -0.359333    32A     -0.358314

  @DF-RHF Final Energy:  -344.35116957414795

   => Energetics <=

    Nuclear Repulsion Energy =            420.7863284156596251
    One-Electron Energy =               -1300.4823254170989912
    Two-Electron Energy =                 535.3448274272913068
    Total Energy =                       -344.3511695741480025
  Basis Set: (AUG-CC-PVTZ AUX)
    Blend: AUG-CC-PVTZ-RI
    Molecular point group: c1

    Geometry (in Angstrom), charge = 0, multiplicity = 1:

       Center              X                  Y                   Z               Mass
    ------------   -----------------  -----------------  -----------------  -----------------
         N           -1.390848129852    -0.000000096325    -0.338755391270    14.003074004430
         N            1.386747870148    -0.000000096325     0.339693608730    14.003074004430
         C            0.732381870148    -1.190800096325    -0.192738391270    12.000000000000
         C           -0.736482129852    -1.190799096325     0.193675608730    12.000000000000
         C            0.732382870148     1.190800903675    -0.192737391270    12.000000000000
         C           -0.736483129852     1.190800903675     0.193675608730    12.000000000000
         C           -2.790102129852    -0.000001096325    -0.018861691270    12.000000000000
         C            2.805497870148    -0.000001096325     0.015340608730    12.000000000000
         H            0.815833870148    -1.244634096325    -1.295269391270     1.007825032230
         H            1.225337870148    -2.075907096325     0.226831608730     1.007825032230
         H            1.225338870148     2.075907903675     0.226832608730     1.007825032230
         H            0.815833870148     1.244635903675    -1.295268391270     1.007825032230
         H           -1.229438129852    -2.075907096325    -0.225892391270     1.007825032230
         H           -0.819934129852    -1.244634096325     1.296206608730     1.007825032230
         H           -0.819933129852     1.244634903675     1.296206608730     1.007825032230
         H           -1.229439129852     2.075907903675    -0.225893391270     1.007825032230
         H           -3.280619129852     0.887100903675    -0.447551391270     1.007825032230
         H           -3.000527129852    -0.000001096325     1.074154608730     1.007825032230
         H           -3.280619129852    -0.887103096325    -0.447550391270     1.007825032230
         H            2.996424870148    -0.000001096325    -1.073219391270     1.007825032230
         H            3.276518870148    -0.887103096325     0.448485608730     1.007825032230
         H            3.276519870148     0.887100903675     0.448485608730     1.007825032230

  Basis Set: AUG-CC-PVTZ
    Blend: AUG-CC-PVTZ
  Basis Set: (AUG-CC-PVTZ AUX)
    Blend: AUG-CC-PVTZ-JKFIT
	 Reference Energy          =    -344.3511695741479457 [Eh]
	 Singles Energy            =      -0.0000000000000000 [Eh]
	 Same-Spin Energy          =      -0.3690523642190255 [Eh]
	 Opposite-Spin Energy      =      -1.2703305366100408 [Eh]
	 Correlation Energy        =      -1.6393829008290663 [Eh]
	 Total Energy              =    -345.9905524749769938 [Eh]

	 ================> DF-SCS-MP2 Energies <==================
	-----------------------------------------------------------
	 SCS Same-Spin Scale       =       0.3333333333333333 [-]
	 SCS Opposite-Spin Scale   =       1.2000000000000000 [-]
	 SCS Same-Spin Energy      =      -0.1230174547396752 [Eh]
	 SCS Opposite-Spin Energy  =      -1.5243966439320489 [Eh]
	 SCS Correlation Energy    =      -1.6474140986717241 [Eh]
	 SCS Total Energy          =    -345.9985836728196773 [Eh]
	-----------------------------------------------------------

  Dipole Moment: [D]
     X:     0.0537      Y:     0.0000      Z:    -0.0174     Total:     0.0565

*** Psi4 exiting successfully. Buy a developer a beer!
