                               Psi4 1.4a3.dev225

  ==> Input File <==

--------------------------------------------------------------------------
#psi4
#
memory 32 gb

molecule  {
0 1
  N       -1.3887980     0.0000000    -0.3392240
  N        1.4325116     0.0157914     0.3183818
  C        0.7344320    -1.1908000    -0.1932070
  C       -0.7344320    -1.1907990     0.1932070
  C        0.7344330     1.1908010    -0.1932060
  C       -0.7344330     1.1908010     0.1932070
  C       -2.8075490    -0.0000010    -0.0148730
  C        2.8075480    -0.0000010     0.0148720
  H        0.8178840    -1.2446340    -1.2957380
  H        1.2273880    -2.0759070     0.2263630
  H        1.2273890     2.0759080     0.2263640
  H        0.8178840     1.2446360    -1.2957370
  H       -1.2273880    -2.0759070    -0.2263610
  H       -0.8178840    -1.2446340     1.2957380
  H       -0.8178830     1.2446350     1.2957380
  H       -1.2273890     2.0759080    -0.2263620
  H       -3.2785690     0.8871010    -0.4480200
  H       -2.9984770    -0.0000010     1.0736860
  H       -3.2785690    -0.8871030    -0.4480190
  H        2.9984750    -0.0000010    -1.0736880
  H        3.2785690    -0.8871030     0.4480170
  H        3.2785700     0.8871010     0.4480170
units angstrom
no_reorient  #important for SAPT in psi4, default
symmetry c1  #important for SAPT in psi4, default
}

set PROPERTIES_ORIGIN ["COM"]
properties('MP2/aug-cc-pvtz', properties = ['dipole'])
--------------------------------------------------------------------------

    Molecular point group: c1
  Charge       = 0
  Multiplicity = 1
  Basis Set: AUG-CC-PVTZ
    Blend: AUG-CC-PVTZ
  Basis Set: (AUG-CC-PVTZ AUX)
    Blend: AUG-CC-PVTZ-JKFIT

    Orbital Energies [Eh]
    ---------------------

    Doubly Occupied:

       1A    -15.546017     2A    -15.542177     3A    -11.245179
       4A    -11.244533     5A    -11.244522     6A    -11.243044
       7A    -11.240950     8A    -11.236533     9A     -1.254813
      10A     -1.206983    11A     -1.021892    12A     -0.994240
      13A     -0.907616    14A     -0.862123    15A     -0.832188
      16A     -0.756700    17A     -0.664224    18A     -0.634962
      19A     -0.630421    20A     -0.625192    21A     -0.623040
      22A     -0.584438    23A     -0.548273    24A     -0.543920
      25A     -0.538145    26A     -0.516207    27A     -0.494149
      28A     -0.490277    29A     -0.462800    30A     -0.457045
      31A     -0.359681    32A     -0.352718

  @DF-RHF Final Energy:  -344.35000003173803

   => Energetics <=

    Nuclear Repulsion Energy =            420.2226867699017134
    One-Electron Energy =               -1299.3353717846985091
    Two-Electron Energy =                 534.7626849830588753
    Total Energy =                       -344.3500000317379772
  Basis Set: (AUG-CC-PVTZ AUX)
    Blend: AUG-CC-PVTZ-RI
    Molecular point group: c1

    Geometry (in Angstrom), charge = 0, multiplicity = 1:

       Center              X                  Y                   Z               Mass
    ------------   -----------------  -----------------  -----------------  -----------------
         N           -1.394161966431    -0.001937850252    -0.336666447546    14.003074004430
         N            1.427147633569     0.013853549748     0.320939352454    14.003074004430
         C            0.729068033569    -1.192737850252    -0.190649447546    12.000000000000
         C           -0.739795966431    -1.192736850252     0.195764552454    12.000000000000
         C            0.729069033569     1.188863149748    -0.190648447546    12.000000000000
         C           -0.739796966431     1.188863149748     0.195764552454    12.000000000000
         C           -2.812912966431    -0.001938850252    -0.012315447546    12.000000000000
         C            2.802184033569    -0.001938850252     0.017429552454    12.000000000000
         H            0.812520033569    -1.246571850252    -1.293180447546     1.007825032230
         H            1.222024033569    -2.077844850252     0.228920552454     1.007825032230
         H            1.222025033569     2.073970149748     0.228921552454     1.007825032230
         H            0.812520033569     1.242698149748    -1.293179447546     1.007825032230
         H           -1.232751966431    -2.077844850252    -0.223803447546     1.007825032230
         H           -0.823247966431    -1.246571850252     1.298295552454     1.007825032230
         H           -0.823246966431     1.242697149748     1.298295552454     1.007825032230
         H           -1.232752966431     2.073970149748    -0.223804447546     1.007825032230
         H           -3.283932966431     0.885163149748    -0.445462447546     1.007825032230
         H           -3.003840966431    -0.001938850252     1.076243552454     1.007825032230
         H           -3.283932966431    -0.889040850252    -0.445461447546     1.007825032230
         H            2.993111033569    -0.001938850252    -1.071130447546     1.007825032230
         H            3.273205033569    -0.889040850252     0.450574552454     1.007825032230
         H            3.273206033569     0.885163149748     0.450574552454     1.007825032230

  Basis Set: AUG-CC-PVTZ
    Blend: AUG-CC-PVTZ
  Basis Set: (AUG-CC-PVTZ AUX)
    Blend: AUG-CC-PVTZ-JKFIT
	 Reference Energy          =    -344.3500000317380341 [Eh]
	 Singles Energy            =      -0.0000000000000000 [Eh]
	 Same-Spin Energy          =      -0.3688826967871141 [Eh]
	 Opposite-Spin Energy      =      -1.2699170064914522 [Eh]
	 Correlation Energy        =      -1.6387997032785664 [Eh]
	 Total Energy              =    -345.9887997350165847 [Eh]

	 ================> DF-SCS-MP2 Energies <==================
	-----------------------------------------------------------
	 SCS Same-Spin Scale       =       0.3333333333333333 [-]
	 SCS Opposite-Spin Scale   =       1.2000000000000000 [-]
	 SCS Same-Spin Energy      =      -0.1229608989290380 [Eh]
	 SCS Opposite-Spin Energy  =      -1.5239004077897427 [Eh]
	 SCS Correlation Energy    =      -1.6468613067187807 [Eh]
	 SCS Total Energy          =    -345.9968613384568243 [Eh]
	-----------------------------------------------------------

  Dipole Moment: [D]
     X:    -0.1636      Y:    -0.0437      Z:     0.0757     Total:     0.1855

*** Psi4 exiting successfully. Buy a developer a beer!
