                               Psi4 1.4a3.dev225

  ==> Input File <==

--------------------------------------------------------------------------
#psi4
#
memory 32 gb

molecule  {
0 1
  N       -1.3442872     0.0143406    -0.3594186
  N        1.3887980     0.0000000     0.3392250
  C        0.7344320    -1.1908000    -0.1932070
  C       -0.7344320    -1.1907990     0.1932070
  C        0.7344330     1.1908010    -0.1932060
  C       -0.7344330     1.1908010     0.1932070
  C       -2.8075490    -0.0000010    -0.0148730
  C        2.8075480    -0.0000010     0.0148720
  H        0.8178840    -1.2446340    -1.2957380
  H        1.2273880    -2.0759070     0.2263630
  H        1.2273890     2.0759080     0.2263640
  H        0.8178840     1.2446360    -1.2957370
  H       -1.2273880    -2.0759070    -0.2263610
  H       -0.8178840    -1.2446340     1.2957380
  H       -0.8178830     1.2446350     1.2957380
  H       -1.2273890     2.0759080    -0.2263620
  H       -3.2785690     0.8871010    -0.4480200
  H       -2.9984770    -0.0000010     1.0736860
  H       -3.2785690    -0.8871030    -0.4480190
  H        2.9984750    -0.0000010    -1.0736880
  H        3.2785690    -0.8871030     0.4480170
  H        3.2785700     0.8871010     0.4480170
units angstrom
no_reorient  #important for SAPT in psi4, default
symmetry c1  #important for SAPT in psi4, default
}

set PROPERTIES_ORIGIN ["COM"]
properties('MP2/aug-cc-pvtz', properties = ['dipole'])
--------------------------------------------------------------------------

    Molecular point group: c1
  Charge       = 0
  Multiplicity = 1
  Basis Set: AUG-CC-PVTZ
    Blend: AUG-CC-PVTZ
  Basis Set: (AUG-CC-PVTZ AUX)
    Blend: AUG-CC-PVTZ-JKFIT

    Orbital Energies [Eh]
    ---------------------

    Doubly Occupied:

       1A    -15.547933     2A    -15.544178     3A    -11.243401
       4A    -11.242593     5A    -11.240927     6A    -11.240913
       7A    -11.240268     8A    -11.239359     9A     -1.255027
      10A     -1.199450    11A     -1.023070    12A     -0.983677
      13A     -0.906618    14A     -0.861893    15A     -0.834114
      16A     -0.756891    17A     -0.662462    18A     -0.630525
      19A     -0.626171    20A     -0.624965    21A     -0.619263
      22A     -0.575437    23A     -0.547866    24A     -0.543906
      25A     -0.538422    26A     -0.516746    27A     -0.496451
      28A     -0.488260    29A     -0.463599    30A     -0.445712
      31A     -0.363747    32A     -0.357445

  @DF-RHF Final Energy:  -344.34808889813655

   => Energetics <=

    Nuclear Repulsion Energy =            420.5968822981545259
    One-Electron Energy =               -1300.1673627055595261
    Two-Electron Energy =                 535.2223915092685047
    Total Energy =                       -344.3480888981365524
  Basis Set: (AUG-CC-PVTZ AUX)
    Blend: AUG-CC-PVTZ-RI
    Molecular point group: c1

    Geometry (in Angstrom), charge = 0, multiplicity = 1:

       Center              X                  Y                   Z               Mass
    ------------   -----------------  -----------------  -----------------  -----------------
         N           -1.349748990401     0.012580776611    -0.356940636892    14.003074004430
         N            1.383336209599    -0.001759823389     0.341702963108    14.003074004430
         C            0.728970209599    -1.192559823389    -0.190729036892    12.000000000000
         C           -0.739893790401    -1.192558823389     0.195684963108    12.000000000000
         C            0.728971209599     1.189041176611    -0.190728036892    12.000000000000
         C           -0.739894790401     1.189041176611     0.195684963108    12.000000000000
         C           -2.813010790401    -0.001760823389    -0.012395036892    12.000000000000
         C            2.802086209599    -0.001760823389     0.017349963108    12.000000000000
         H            0.812422209599    -1.246393823389    -1.293260036892     1.007825032230
         H            1.221926209599    -2.077666823389     0.228840963108     1.007825032230
         H            1.221927209599     2.074148176611     0.228841963108     1.007825032230
         H            0.812422209599     1.242876176611    -1.293259036892     1.007825032230
         H           -1.232849790401    -2.077666823389    -0.223883036892     1.007825032230
         H           -0.823345790401    -1.246393823389     1.298215963108     1.007825032230
         H           -0.823344790401     1.242875176611     1.298215963108     1.007825032230
         H           -1.232850790401     2.074148176611    -0.223884036892     1.007825032230
         H           -3.284030790401     0.885341176611    -0.445542036892     1.007825032230
         H           -3.003938790401    -0.001760823389     1.076163963108     1.007825032230
         H           -3.284030790401    -0.888862823389    -0.445541036892     1.007825032230
         H            2.993013209599    -0.001760823389    -1.071210036892     1.007825032230
         H            3.273107209599    -0.888862823389     0.450494963108     1.007825032230
         H            3.273108209599     0.885341176611     0.450494963108     1.007825032230

  Basis Set: AUG-CC-PVTZ
    Blend: AUG-CC-PVTZ
  Basis Set: (AUG-CC-PVTZ AUX)
    Blend: AUG-CC-PVTZ-JKFIT
	 Reference Energy          =    -344.3480888981365524 [Eh]
	 Singles Energy            =      -0.0000000000000000 [Eh]
	 Same-Spin Energy          =      -0.3691900320305992 [Eh]
	 Opposite-Spin Energy      =      -1.2712250974686903 [Eh]
	 Correlation Energy        =      -1.6404151294992895 [Eh]
	 Total Energy              =    -345.9885040276358268 [Eh]

	 ================> DF-SCS-MP2 Energies <==================
	-----------------------------------------------------------
	 SCS Same-Spin Scale       =       0.3333333333333333 [-]
	 SCS Opposite-Spin Scale   =       1.2000000000000000 [-]
	 SCS Same-Spin Energy      =      -0.1230633440101997 [Eh]
	 SCS Opposite-Spin Energy  =      -1.5254701169624283 [Eh]
	 SCS Correlation Energy    =      -1.6485334609726281 [Eh]
	 SCS Total Energy          =    -345.9966223591091534 [Eh]
	-----------------------------------------------------------

  Dipole Moment: [D]
     X:    -0.1450      Y:    -0.0413      Z:     0.0679     Total:     0.1654

*** Psi4 exiting successfully. Buy a developer a beer!
