                               Psi4 1.4a3.dev225

  ==> Input File <==

--------------------------------------------------------------------------
#psi4
#
memory 32 gb

molecule  {
0 1
  N       -1.3887980     0.0000000    -0.3392240
  N        1.3887980     0.0000000     0.3392250
  C        0.7344320    -1.1908000    -0.1932070
  C       -0.6860772    -1.1907990     0.1804863
  C        0.7344330     1.1908010    -0.1932060
  C       -0.7344330     1.1908010     0.1932070
  C       -2.8075490    -0.0000010    -0.0148730
  C        2.8075480    -0.0000010     0.0148720
  H        0.8178840    -1.2446340    -1.2957380
  H        1.2273880    -2.0759070     0.2263630
  H        1.2273890     2.0759080     0.2263640
  H        0.8178840     1.2446360    -1.2957370
  H       -1.2273880    -2.0759070    -0.2263610
  H       -0.8178840    -1.2446340     1.2957380
  H       -0.8178830     1.2446350     1.2957380
  H       -1.2273890     2.0759080    -0.2263620
  H       -3.2785690     0.8871010    -0.4480200
  H       -2.9984770    -0.0000010     1.0736860
  H       -3.2785690    -0.8871030    -0.4480190
  H        2.9984750    -0.0000010    -1.0736880
  H        3.2785690    -0.8871030     0.4480170
  H        3.2785700     0.8871010     0.4480170
units angstrom
no_reorient  #important for SAPT in psi4, default
symmetry c1  #important for SAPT in psi4, default
}

set PROPERTIES_ORIGIN ["COM"]
properties('MP2/aug-cc-pvtz', properties = ['dipole'])
--------------------------------------------------------------------------

    Molecular point group: c1
  Charge       = 0
  Multiplicity = 1
  Basis Set: AUG-CC-PVTZ
    Blend: AUG-CC-PVTZ
  Basis Set: (AUG-CC-PVTZ AUX)
    Blend: AUG-CC-PVTZ-JKFIT

    Orbital Energies [Eh]
    ---------------------

    Doubly Occupied:

       1A    -15.545511     2A    -15.544618     3A    -11.244716
       4A    -11.242818     5A    -11.241557     6A    -11.241548
       7A    -11.240550     8A    -11.240542     9A     -1.254642
      10A     -1.200390    11A     -1.027730    12A     -0.991707
      13A     -0.906785    14A     -0.859120    15A     -0.834987
      16A     -0.755422    17A     -0.664621    18A     -0.631557
      19A     -0.629852    20A     -0.624667    21A     -0.620094
      22A     -0.579861    23A     -0.547727    24A     -0.543760
      25A     -0.539798    26A     -0.515066    27A     -0.497430
      28A     -0.489109    29A     -0.459088    30A     -0.456447
      31A     -0.359665    32A     -0.356079

  @DF-RHF Final Energy:  -344.34845687151358

   => Energetics <=

    Nuclear Repulsion Energy =            420.7435723118151145
    One-Electron Energy =               -1300.4091340095483247
    Two-Electron Energy =                 535.3171048262196337
    Total Energy =                       -344.3484568715135765
  Basis Set: (AUG-CC-PVTZ AUX)
    Blend: AUG-CC-PVTZ-RI
    Molecular point group: c1

    Geometry (in Angstrom), charge = 0, multiplicity = 1:

       Center              X                  Y                   Z               Mass
    ------------   -----------------  -----------------  -----------------  -----------------
         N           -1.393882713215    -0.000000096325    -0.337886441587    14.003074004430
         N            1.383713286785    -0.000000096325     0.340562558413    14.003074004430
         C            0.729347286785    -1.190800096325    -0.191869441587    12.000000000000
         C           -0.691161913215    -1.190799096325     0.181823858413    12.000000000000
         C            0.729348286785     1.190800903675    -0.191868441587    12.000000000000
         C           -0.739517713215     1.190800903675     0.194544558413    12.000000000000
         C           -2.812633713215    -0.000001096325    -0.013535441587    12.000000000000
         C            2.802463286785    -0.000001096325     0.016209558413    12.000000000000
         H            0.812799286785    -1.244634096325    -1.294400441587     1.007825032230
         H            1.222303286785    -2.075907096325     0.227700558413     1.007825032230
         H            1.222304286785     2.075907903675     0.227701558413     1.007825032230
         H            0.812799286785     1.244635903675    -1.294399441587     1.007825032230
         H           -1.232472713215    -2.075907096325    -0.225023441587     1.007825032230
         H           -0.822968713215    -1.244634096325     1.297075558413     1.007825032230
         H           -0.822967713215     1.244634903675     1.297075558413     1.007825032230
         H           -1.232473713215     2.075907903675    -0.225024441587     1.007825032230
         H           -3.283653713215     0.887100903675    -0.446682441587     1.007825032230
         H           -3.003561713215    -0.000001096325     1.075023558413     1.007825032230
         H           -3.283653713215    -0.887103096325    -0.446681441587     1.007825032230
         H            2.993390286785    -0.000001096325    -1.072350441587     1.007825032230
         H            3.273484286785    -0.887103096325     0.449354558413     1.007825032230
         H            3.273485286785     0.887100903675     0.449354558413     1.007825032230

  Basis Set: AUG-CC-PVTZ
    Blend: AUG-CC-PVTZ
  Basis Set: (AUG-CC-PVTZ AUX)
    Blend: AUG-CC-PVTZ-JKFIT
	 Reference Energy          =    -344.3484568715135765 [Eh]
	 Singles Energy            =      -0.0000000000000000 [Eh]
	 Same-Spin Energy          =      -0.3692505447345013 [Eh]
	 Opposite-Spin Energy      =      -1.2707590059135985 [Eh]
	 Correlation Energy        =      -1.6400095506480996 [Eh]
	 Total Energy              =    -345.9884664221616504 [Eh]

	 ================> DF-SCS-MP2 Energies <==================
	-----------------------------------------------------------
	 SCS Same-Spin Scale       =       0.3333333333333333 [-]
	 SCS Opposite-Spin Scale   =       1.2000000000000000 [-]
	 SCS Same-Spin Energy      =      -0.1230835149115004 [Eh]
	 SCS Opposite-Spin Energy  =      -1.5249108070963182 [Eh]
	 SCS Correlation Energy    =      -1.6479943220078186 [Eh]
	 SCS Total Energy          =    -345.9964511935214091 [Eh]
	-----------------------------------------------------------

  Dipole Moment: [D]
     X:     0.0408      Y:    -0.0243      Z:    -0.0174     Total:     0.0506

*** Psi4 exiting successfully. Buy a developer a beer!
