                               Psi4 1.4a3.dev225

  ==> Input File <==

--------------------------------------------------------------------------
#psi4
#
memory 32 gb

molecule  {
0 1
  N       -1.3887980     0.0000000    -0.3392240
  N        1.3783425     0.0000000     0.2895138
  C        0.7344320    -1.1908000    -0.1932070
  C       -0.7344320    -1.1907990     0.1932070
  C        0.7344330     1.1908010    -0.1932060
  C       -0.7344330     1.1908010     0.1932070
  C       -2.8075490    -0.0000010    -0.0148730
  C        2.8075480    -0.0000010     0.0148720
  H        0.8178840    -1.2446340    -1.2957380
  H        1.2273880    -2.0759070     0.2263630
  H        1.2273890     2.0759080     0.2263640
  H        0.8178840     1.2446360    -1.2957370
  H       -1.2273880    -2.0759070    -0.2263610
  H       -0.8178840    -1.2446340     1.2957380
  H       -0.8178830     1.2446350     1.2957380
  H       -1.2273890     2.0759080    -0.2263620
  H       -3.2785690     0.8871010    -0.4480200
  H       -2.9984770    -0.0000010     1.0736860
  H       -3.2785690    -0.8871030    -0.4480190
  H        2.9984750    -0.0000010    -1.0736880
  H        3.2785690    -0.8871030     0.4480170
  H        3.2785700     0.8871010     0.4480170
units angstrom
no_reorient  #important for SAPT in psi4, default
symmetry c1  #important for SAPT in psi4, default
}

set PROPERTIES_ORIGIN ["COM"]
properties('MP2/aug-cc-pvtz', properties = ['dipole'])
--------------------------------------------------------------------------

    Molecular point group: c1
  Charge       = 0
  Multiplicity = 1
  Basis Set: AUG-CC-PVTZ
    Blend: AUG-CC-PVTZ
  Basis Set: (AUG-CC-PVTZ AUX)
    Blend: AUG-CC-PVTZ-JKFIT

    Orbital Energies [Eh]
    ---------------------

    Doubly Occupied:

       1A    -15.545053     2A    -15.540150     3A    -11.242708
       4A    -11.242692     5A    -11.241625     6A    -11.241614
       7A    -11.241079     8A    -11.240077     9A     -1.258388
      10A     -1.205412    11A     -1.023999    12A     -0.988949
      13A     -0.908722    14A     -0.865447    15A     -0.833653
      16A     -0.754758    17A     -0.664710    18A     -0.635262
      19A     -0.630175    20A     -0.624404    21A     -0.622486
      22A     -0.578652    23A     -0.547717    24A     -0.544320
      25A     -0.544206    26A     -0.515923    27A     -0.496269
      28A     -0.489679    29A     -0.466481    30A     -0.454997
      31A     -0.358702    32A     -0.348799

  @DF-RHF Final Energy:  -344.35161519687472

   => Energetics <=

    Nuclear Repulsion Energy =            421.1144632101809293
    One-Electron Energy =               -1301.1379350487241027
    Two-Electron Energy =                 535.6718566416684553
    Total Energy =                       -344.3516151968747181
  Basis Set: (AUG-CC-PVTZ AUX)
    Blend: AUG-CC-PVTZ-RI
    Molecular point group: c1

    Geometry (in Angstrom), charge = 0, multiplicity = 1:

       Center              X                  Y                   Z               Mass
    ------------   -----------------  -----------------  -----------------  -----------------
         N           -1.387514906243    -0.000000096325    -0.333124071292    14.003074004430
         N            1.379625593757    -0.000000096325     0.295613728708    14.003074004430
         C            0.735715093757    -1.190800096325    -0.187107071292    12.000000000000
         C           -0.733148906243    -1.190799096325     0.199306928708    12.000000000000
         C            0.735716093757     1.190800903675    -0.187106071292    12.000000000000
         C           -0.733149906243     1.190800903675     0.199306928708    12.000000000000
         C           -2.806265906243    -0.000001096325    -0.008773071292    12.000000000000
         C            2.808831093757    -0.000001096325     0.020971928708    12.000000000000
         H            0.819167093757    -1.244634096325    -1.289638071292     1.007825032230
         H            1.228671093757    -2.075907096325     0.232462928708     1.007825032230
         H            1.228672093757     2.075907903675     0.232463928708     1.007825032230
         H            0.819167093757     1.244635903675    -1.289637071292     1.007825032230
         H           -1.226104906243    -2.075907096325    -0.220261071292     1.007825032230
         H           -0.816600906243    -1.244634096325     1.301837928708     1.007825032230
         H           -0.816599906243     1.244634903675     1.301837928708     1.007825032230
         H           -1.226105906243     2.075907903675    -0.220262071292     1.007825032230
         H           -3.277285906243     0.887100903675    -0.441920071292     1.007825032230
         H           -2.997193906243    -0.000001096325     1.079785928708     1.007825032230
         H           -3.277285906243    -0.887103096325    -0.441919071292     1.007825032230
         H            2.999758093757    -0.000001096325    -1.067588071292     1.007825032230
         H            3.279852093757    -0.887103096325     0.454116928708     1.007825032230
         H            3.279853093757     0.887100903675     0.454116928708     1.007825032230

  Basis Set: AUG-CC-PVTZ
    Blend: AUG-CC-PVTZ
  Basis Set: (AUG-CC-PVTZ AUX)
    Blend: AUG-CC-PVTZ-JKFIT
	 Reference Energy          =    -344.3516151968747181 [Eh]
	 Singles Energy            =      -0.0000000000000000 [Eh]
	 Same-Spin Energy          =      -0.3689500121586319 [Eh]
	 Opposite-Spin Energy      =      -1.2696371534323889 [Eh]
	 Correlation Energy        =      -1.6385871655910207 [Eh]
	 Total Energy              =    -345.9902023624657659 [Eh]

	 ================> DF-SCS-MP2 Energies <==================
	-----------------------------------------------------------
	 SCS Same-Spin Scale       =       0.3333333333333333 [-]
	 SCS Opposite-Spin Scale   =       1.2000000000000000 [-]
	 SCS Same-Spin Energy      =      -0.1229833373862106 [Eh]
	 SCS Opposite-Spin Energy  =      -1.5235645841188667 [Eh]
	 SCS Correlation Energy    =      -1.6465479215050773 [Eh]
	 SCS Total Energy          =    -345.9981631183798072 [Eh]
	-----------------------------------------------------------

  Dipole Moment: [D]
     X:     0.0338      Y:     0.0000      Z:     0.1550     Total:     0.1586

*** Psi4 exiting successfully. Buy a developer a beer!
