                               Psi4 1.4a3.dev225

  ==> Input File <==

--------------------------------------------------------------------------
#psi4
#
memory 32 gb

molecule  {
0 1
  N       -1.3887980     0.0000000    -0.3392240
  N        1.3887980     0.0000000     0.3392250
  C        0.7344320    -1.1908000    -0.1932070
  C       -0.7344320    -1.1907990     0.1932070
  C        0.7344330     1.1908010    -0.1932060
  C       -0.7344330     1.1908010     0.1932070
  C       -2.8075490    -0.0000010    -0.0148730
  C        2.8075480    -0.0000010     0.0148720
  H        0.8178840    -1.2446340    -1.2957380
  H        1.2273880    -2.0759070     0.2263630
  H        1.2273890     2.0759080     0.2263640
  H        0.8178840     1.2446360    -1.2957370
  H       -1.2273880    -2.0759070    -0.2263610
  H       -0.8178840    -1.2446340     1.2957380
  H       -0.8178830     1.2446350     1.2957380
  H       -1.2273890     2.0759080    -0.2263620
  H       -3.2785690     0.8871010    -0.4480200
  H       -2.9984770    -0.0000010     1.0736860
  H       -3.1924445    -0.7248993    -0.3688197
  H        2.9984750    -0.0000010    -1.0736880
  H        3.2785690    -0.8871030     0.4480170
  H        3.2785700     0.8871010     0.4480170
units angstrom
no_reorient  #important for SAPT in psi4, default
symmetry c1  #important for SAPT in psi4, default
}

set PROPERTIES_ORIGIN ["COM"]
properties('MP2/aug-cc-pvtz', properties = ['dipole'])
--------------------------------------------------------------------------

    Molecular point group: c1
  Charge       = 0
  Multiplicity = 1
  Basis Set: AUG-CC-PVTZ
    Blend: AUG-CC-PVTZ
  Basis Set: (AUG-CC-PVTZ AUX)
    Blend: AUG-CC-PVTZ-JKFIT

    Orbital Energies [Eh]
    ---------------------

    Doubly Occupied:

       1A    -15.544591     2A    -15.543368     3A    -11.242893
       4A    -11.242235     5A    -11.241778     6A    -11.240892
       7A    -11.239751     8A    -11.215136     9A     -1.254177
      10A     -1.203156    11A     -1.021772    12A     -0.998207
      13A     -0.921298    14A     -0.861718    15A     -0.838613
      16A     -0.756224    17A     -0.666099    18A     -0.641969
      19A     -0.630778    20A     -0.625251    21A     -0.621494
      22A     -0.578716    23A     -0.564123    24A     -0.541853
      25A     -0.540418    26A     -0.517108    27A     -0.499327
      28A     -0.489349    29A     -0.461354    30A     -0.453687
      31A     -0.358629    32A     -0.357257

  @DF-RHF Final Energy:  -344.31767260141021

   => Energetics <=

    Nuclear Repulsion Energy =            421.4272950610746307
    One-Electron Energy =               -1301.6634987839379392
    Two-Electron Energy =                 535.9185311214531566
    Total Energy =                       -344.3176726014102087
  Basis Set: (AUG-CC-PVTZ AUX)
    Blend: AUG-CC-PVTZ-RI
    Molecular point group: c1

    Geometry (in Angstrom), charge = 0, multiplicity = 1:

       Center              X                  Y                   Z               Mass
    ------------   -----------------  -----------------  -----------------  -----------------
         N           -1.389558512604    -0.001432615701    -0.339923562160    14.003074004430
         N            1.388037487396    -0.001432615701     0.338525437840    14.003074004430
         C            0.733671487396    -1.192232615701    -0.193906562160    12.000000000000
         C           -0.735192512604    -1.192231615701     0.192507437840    12.000000000000
         C            0.733672487396     1.189368384299    -0.193905562160    12.000000000000
         C           -0.735193512604     1.189368384299     0.192507437840    12.000000000000
         C           -2.808309512604    -0.001433615701    -0.015572562160    12.000000000000
         C            2.806787487396    -0.001433615701     0.014172437840    12.000000000000
         H            0.817123487396    -1.246066615701    -1.296437562160     1.007825032230
         H            1.226627487396    -2.077339615701     0.225663437840     1.007825032230
         H            1.226628487396     2.074475384299     0.225664437840     1.007825032230
         H            0.817123487396     1.243203384299    -1.296436562160     1.007825032230
         H           -1.228148512604    -2.077339615701    -0.227060562160     1.007825032230
         H           -0.818644512604    -1.246066615701     1.295038437840     1.007825032230
         H           -0.818643512604     1.243202384299     1.295038437840     1.007825032230
         H           -1.228149512604     2.074475384299    -0.227061562160     1.007825032230
         H           -3.279329512604     0.885668384299    -0.448719562160     1.007825032230
         H           -2.999237512604    -0.001433615701     1.072986437840     1.007825032230
         H           -3.193205012604    -0.726331915701    -0.369519262160     1.007825032230
         H            2.997714487396    -0.001433615701    -1.074387562160     1.007825032230
         H            3.277808487396    -0.888535615701     0.447317437840     1.007825032230
         H            3.277809487396     0.885668384299     0.447317437840     1.007825032230

  Basis Set: AUG-CC-PVTZ
    Blend: AUG-CC-PVTZ
  Basis Set: (AUG-CC-PVTZ AUX)
    Blend: AUG-CC-PVTZ-JKFIT
	 Reference Energy          =    -344.3176726014102087 [Eh]
	 Singles Energy            =      -0.0000000000000000 [Eh]
	 Same-Spin Energy          =      -0.3689482075710792 [Eh]
	 Opposite-Spin Energy      =      -1.2697177997593949 [Eh]
	 Correlation Energy        =      -1.6386660073304742 [Eh]
	 Total Energy              =    -345.9563386087406798 [Eh]

	 ================> DF-SCS-MP2 Energies <==================
	-----------------------------------------------------------
	 SCS Same-Spin Scale       =       0.3333333333333333 [-]
	 SCS Opposite-Spin Scale   =       1.2000000000000000 [-]
	 SCS Same-Spin Energy      =      -0.1229827358570264 [Eh]
	 SCS Opposite-Spin Energy  =      -1.5236613597112738 [Eh]
	 SCS Correlation Energy    =      -1.6466440955683002 [Eh]
	 SCS Total Energy          =    -345.9643166969785284 [Eh]
	-----------------------------------------------------------

  Dipole Moment: [D]
     X:    -0.0822      Y:    -0.0622      Z:    -0.0230     Total:     0.1056

*** Psi4 exiting successfully. Buy a developer a beer!
