                               Psi4 1.4a3.dev225

  ==> Input File <==

--------------------------------------------------------------------------
#psi4
#
memory 32 gb

molecule  {
0 1
  N       -1.3887980     0.0000000    -0.3392240
  N        1.3887980     0.0000000     0.3392250
  C        0.7344320    -1.1908000    -0.1932070
  C       -0.7344320    -1.1907990     0.1932070
  C        0.7344330     1.1908010    -0.1932060
  C       -0.7344330     1.1908010     0.1932070
  C       -2.8075490    -0.0000010    -0.0148730
  C        2.8075480    -0.0000010     0.0148720
  H        0.8178840    -1.2446340    -1.2957380
  H        1.2273880    -2.0759070     0.2263630
  H        1.2273890     2.0759080     0.2263640
  H        0.8178840     1.2446360    -1.2957370
  H       -1.2273880    -2.0759070    -0.2263610
  H       -0.8178840    -1.2446340     1.2957380
  H       -0.8141138     1.2422035     1.2459396
  H       -1.2273890     2.0759080    -0.2263620
  H       -3.2785690     0.8871010    -0.4480200
  H       -2.9984770    -0.0000010     1.0736860
  H       -3.2785690    -0.8871030    -0.4480190
  H        2.9984750    -0.0000010    -1.0736880
  H        3.2785690    -0.8871030     0.4480170
  H        3.2785700     0.8871010     0.4480170
units angstrom
no_reorient  #important for SAPT in psi4, default
symmetry c1  #important for SAPT in psi4, default
}

set PROPERTIES_ORIGIN ["COM"]
properties('MP2/aug-cc-pvtz', properties = ['dipole'])
--------------------------------------------------------------------------

    Molecular point group: c1
  Charge       = 0
  Multiplicity = 1
  Basis Set: AUG-CC-PVTZ
    Blend: AUG-CC-PVTZ
  Basis Set: (AUG-CC-PVTZ AUX)
    Blend: AUG-CC-PVTZ-JKFIT

    Orbital Energies [Eh]
    ---------------------

    Doubly Occupied:

       1A    -15.544975     2A    -15.543913     3A    -11.242773
       4A    -11.242127     5A    -11.242109     6A    -11.240026
       7A    -11.239902     8A    -11.236448     9A     -1.254430
      10A     -1.202510    11A     -1.023341    12A     -0.989099
      13A     -0.906982    14A     -0.863223    15A     -0.833693
      16A     -0.759764    17A     -0.662880    18A     -0.632420
      19A     -0.629277    20A     -0.627198    21A     -0.621380
      22A     -0.579819    23A     -0.547474    24A     -0.541156
      25A     -0.540699    26A     -0.518029    27A     -0.496484
      28A     -0.490687    29A     -0.461056    30A     -0.453897
      31A     -0.359264    32A     -0.357664

  @DF-RHF Final Energy:  -344.35090153344595

   => Energetics <=

    Nuclear Repulsion Energy =            420.6479044540154746
    One-Electron Energy =               -1300.2282117349300279
    Two-Electron Energy =                 535.2294057474686042
    Total Energy =                       -344.3509015334459491
  Basis Set: (AUG-CC-PVTZ AUX)
    Blend: AUG-CC-PVTZ-RI
    Molecular point group: c1

    Geometry (in Angstrom), charge = 0, multiplicity = 1:

       Center              X                  Y                   Z               Mass
    ------------   -----------------  -----------------  -----------------  -----------------
         N           -1.388831182938     0.000021377728    -0.338784305135    14.003074004430
         N            1.388764817062     0.000021377728     0.339664694865    14.003074004430
         C            0.734398817062    -1.190778622272    -0.192767305135    12.000000000000
         C           -0.734465182938    -1.190777622272     0.193646694865    12.000000000000
         C            0.734399817062     1.190822377728    -0.192766305135    12.000000000000
         C           -0.734466182938     1.190822377728     0.193646694865    12.000000000000
         C           -2.807582182938     0.000020377728    -0.014433305135    12.000000000000
         C            2.807514817062     0.000020377728     0.015311694865    12.000000000000
         H            0.817850817062    -1.244612622272    -1.295298305135     1.007825032230
         H            1.227354817062    -2.075885622272     0.226802694865     1.007825032230
         H            1.227355817062     2.075929377728     0.226803694865     1.007825032230
         H            0.817850817062     1.244657377728    -1.295297305135     1.007825032230
         H           -1.227421182938    -2.075885622272    -0.225921305135     1.007825032230
         H           -0.817917182938    -1.244612622272     1.296177694865     1.007825032230
         H           -0.814146982938     1.242224877728     1.246379294865     1.007825032230
         H           -1.227422182938     2.075929377728    -0.225922305135     1.007825032230
         H           -3.278602182938     0.887122377728    -0.447580305135     1.007825032230
         H           -2.998510182938     0.000020377728     1.074125694865     1.007825032230
         H           -3.278602182938    -0.887081622272    -0.447579305135     1.007825032230
         H            2.998441817062     0.000020377728    -1.073248305135     1.007825032230
         H            3.278535817062    -0.887081622272     0.448456694865     1.007825032230
         H            3.278536817062     0.887122377728     0.448456694865     1.007825032230

  Basis Set: AUG-CC-PVTZ
    Blend: AUG-CC-PVTZ
  Basis Set: (AUG-CC-PVTZ AUX)
    Blend: AUG-CC-PVTZ-JKFIT
	 Reference Energy          =    -344.3509015334459491 [Eh]
	 Singles Energy            =      -0.0000000000000000 [Eh]
	 Same-Spin Energy          =      -0.3688251812554359 [Eh]
	 Opposite-Spin Energy      =      -1.2699962961462699 [Eh]
	 Correlation Energy        =      -1.6388214774017058 [Eh]
	 Total Energy              =    -345.9897230108476833 [Eh]

	 ================> DF-SCS-MP2 Energies <==================
	-----------------------------------------------------------
	 SCS Same-Spin Scale       =       0.3333333333333333 [-]
	 SCS Opposite-Spin Scale   =       1.2000000000000000 [-]
	 SCS Same-Spin Energy      =      -0.1229417270851453 [Eh]
	 SCS Opposite-Spin Energy  =      -1.5239955553755238 [Eh]
	 SCS Correlation Energy    =      -1.6469372824606692 [Eh]
	 SCS Total Energy          =    -345.9978388159066185 [Eh]
	-----------------------------------------------------------

  Dipole Moment: [D]
     X:    -0.0022      Y:     0.0223      Z:     0.0462     Total:     0.0513

*** Psi4 exiting successfully. Buy a developer a beer!
