                               Psi4 1.4a3.dev225

  ==> Input File <==

--------------------------------------------------------------------------
#psi4
#
memory 32 gb

molecule  {
0 1
  N       -1.3887980     0.0000000    -0.3392240
  N        1.2990332    -0.0272130     0.3789407
  C        0.7344320    -1.1908000    -0.1932070
  C       -0.7344320    -1.1907990     0.1932070
  C        0.7344330     1.1908010    -0.1932060
  C       -0.7344330     1.1908010     0.1932070
  C       -2.8075490    -0.0000010    -0.0148730
  C        2.8075480    -0.0000010     0.0148720
  H        0.8178840    -1.2446340    -1.2957380
  H        1.2273880    -2.0759070     0.2263630
  H        1.2273890     2.0759080     0.2263640
  H        0.8178840     1.2446360    -1.2957370
  H       -1.2273880    -2.0759070    -0.2263610
  H       -0.8178840    -1.2446340     1.2957380
  H       -0.8178830     1.2446350     1.2957380
  H       -1.2273890     2.0759080    -0.2263620
  H       -3.2785690     0.8871010    -0.4480200
  H       -2.9984770    -0.0000010     1.0736860
  H       -3.2785690    -0.8871030    -0.4480190
  H        2.9984750    -0.0000010    -1.0736880
  H        3.2785690    -0.8871030     0.4480170
  H        3.2785700     0.8871010     0.4480170
units angstrom
no_reorient  #important for SAPT in psi4, default
symmetry c1  #important for SAPT in psi4, default
}

set PROPERTIES_ORIGIN ["COM"]
properties('MP2/aug-cc-pvtz', properties = ['dipole'])
--------------------------------------------------------------------------

    Molecular point group: c1
  Charge       = 0
  Multiplicity = 1
  Basis Set: AUG-CC-PVTZ
    Blend: AUG-CC-PVTZ
  Basis Set: (AUG-CC-PVTZ AUX)
    Blend: AUG-CC-PVTZ-JKFIT

    Orbital Energies [Eh]
    ---------------------

    Doubly Occupied:

       1A    -15.550873     2A    -15.543437     3A    -11.246307
       4A    -11.242757     5A    -11.239464     6A    -11.239058
       7A    -11.238697     8A    -11.238407     9A     -1.256321
      10A     -1.196996    11A     -1.024075    12A     -0.978751
      13A     -0.906502    14A     -0.861772    15A     -0.834572
      16A     -0.757391    17A     -0.662020    18A     -0.629050
      19A     -0.627141    20A     -0.622550    21A     -0.617503
      22A     -0.571664    23A     -0.550939    24A     -0.544627
      25A     -0.536099    26A     -0.516905    27A     -0.497103
      28A     -0.487364    29A     -0.464983    30A     -0.436278
      31A     -0.368207    32A     -0.356535

  @DF-RHF Final Energy:  -344.34020942569828

   => Energetics <=

    Nuclear Repulsion Energy =            420.8292541083444007
    One-Electron Energy =               -1300.6502336776743505
    Two-Electron Energy =                 535.4807701436316165
    Total Energy =                       -344.3402094256982764
  Basis Set: (AUG-CC-PVTZ AUX)
    Blend: AUG-CC-PVTZ-RI
    Molecular point group: c1

    Geometry (in Angstrom), charge = 0, multiplicity = 1:

       Center              X                  Y                   Z               Mass
    ------------   -----------------  -----------------  -----------------  -----------------
         N           -1.377782906070     0.003339195797    -0.344097596544    14.003074004430
         N            1.310048293930    -0.023873804203     0.374067103456    14.003074004430
         C            0.745447093930    -1.187460804203    -0.198080596544    12.000000000000
         C           -0.723416906070    -1.187459804203     0.188333403456    12.000000000000
         C            0.745448093930     1.194140195797    -0.198079596544    12.000000000000
         C           -0.723417906070     1.194140195797     0.188333403456    12.000000000000
         C           -2.796533906070     0.003338195797    -0.019746596544    12.000000000000
         C            2.818563093930     0.003338195797     0.009998403456    12.000000000000
         H            0.828899093930    -1.241294804203    -1.300611596544     1.007825032230
         H            1.238403093930    -2.072567804203     0.221489403456     1.007825032230
         H            1.238404093930     2.079247195797     0.221490403456     1.007825032230
         H            0.828899093930     1.247975195797    -1.300610596544     1.007825032230
         H           -1.216372906070    -2.072567804203    -0.231234596544     1.007825032230
         H           -0.806868906070    -1.241294804203     1.290864403456     1.007825032230
         H           -0.806867906070     1.247974195797     1.290864403456     1.007825032230
         H           -1.216373906070     2.079247195797    -0.231235596544     1.007825032230
         H           -3.267553906070     0.890440195797    -0.452893596544     1.007825032230
         H           -2.987461906070     0.003338195797     1.068812403456     1.007825032230
         H           -3.267553906070    -0.883763804203    -0.452892596544     1.007825032230
         H            3.009490093930     0.003338195797    -1.078561596544     1.007825032230
         H            3.289584093930    -0.883763804203     0.443143403456     1.007825032230
         H            3.289585093930     0.890440195797     0.443143403456     1.007825032230

  Basis Set: AUG-CC-PVTZ
    Blend: AUG-CC-PVTZ
  Basis Set: (AUG-CC-PVTZ AUX)
    Blend: AUG-CC-PVTZ-JKFIT
	 Reference Energy          =    -344.3402094256982764 [Eh]
	 Singles Energy            =      -0.0000000000000000 [Eh]
	 Same-Spin Energy          =      -0.3696511115276682 [Eh]
	 Opposite-Spin Energy      =      -1.2724611293339341 [Eh]
	 Correlation Energy        =      -1.6421122408616022 [Eh]
	 Total Energy              =    -345.9823216665598693 [Eh]

	 ================> DF-SCS-MP2 Energies <==================
	-----------------------------------------------------------
	 SCS Same-Spin Scale       =       0.3333333333333333 [-]
	 SCS Opposite-Spin Scale   =       1.2000000000000000 [-]
	 SCS Same-Spin Energy      =      -0.1232170371758894 [Eh]
	 SCS Opposite-Spin Energy  =      -1.5269533552007208 [Eh]
	 SCS Correlation Energy    =      -1.6501703923766102 [Eh]
	 SCS Total Energy          =    -345.9903798180748709 [Eh]
	-----------------------------------------------------------

  Dipole Moment: [D]
     X:     0.2701      Y:     0.0789      Z:    -0.1288     Total:     0.3095

*** Psi4 exiting successfully. Buy a developer a beer!
