                               Psi4 1.4a3.dev225

  ==> Input File <==

--------------------------------------------------------------------------
#psi4
#
memory 32 gb

molecule  {
0 1
  N       -1.3887980     0.0000000    -0.3392240
  N        1.3887980     0.0000000     0.3392250
  C        0.7344320    -1.1908000    -0.1932070
  C       -0.7344320    -1.1907990     0.1932070
  C        0.7344330     1.1908010    -0.1932060
  C       -0.7344330     1.1908010     0.1932070
  C       -2.8075490    -0.0000010    -0.0148730
  C        2.8075480    -0.0000010     0.0148720
  H        0.8178840    -1.2446340    -1.2957380
  H        1.2273880    -2.0759070     0.2263630
  H        1.2504484     2.1068633     0.1182695
  H        0.8178840     1.2446360    -1.2957370
  H       -1.2273880    -2.0759070    -0.2263610
  H       -0.8178840    -1.2446340     1.2957380
  H       -0.8178830     1.2446350     1.2957380
  H       -1.2273890     2.0759080    -0.2263620
  H       -3.2785690     0.8871010    -0.4480200
  H       -2.9984770    -0.0000010     1.0736860
  H       -3.2785690    -0.8871030    -0.4480190
  H        2.9984750    -0.0000010    -1.0736880
  H        3.2785690    -0.8871030     0.4480170
  H        3.2785700     0.8871010     0.4480170
units angstrom
no_reorient  #important for SAPT in psi4, default
symmetry c1  #important for SAPT in psi4, default
}

set PROPERTIES_ORIGIN ["COM"]
properties('MP2/aug-cc-pvtz', properties = ['dipole'])
--------------------------------------------------------------------------

    Molecular point group: c1
  Charge       = 0
  Multiplicity = 1
  Basis Set: AUG-CC-PVTZ
    Blend: AUG-CC-PVTZ
  Basis Set: (AUG-CC-PVTZ AUX)
    Blend: AUG-CC-PVTZ-JKFIT

    Orbital Energies [Eh]
    ---------------------

    Doubly Occupied:

       1A    -15.545835     2A    -15.545249     3A    -11.243316
       4A    -11.243298     5A    -11.242598     6A    -11.242489
       7A    -11.240237     8A    -11.240219     9A     -1.254512
      10A     -1.202854    11A     -1.022082    12A     -0.988861
      13A     -0.907069    14A     -0.862512    15A     -0.833831
      16A     -0.758377    17A     -0.663998    18A     -0.632261
      19A     -0.627688    20A     -0.623945    21A     -0.620678
      22A     -0.580146    23A     -0.546791    24A     -0.543597
      25A     -0.540818    26A     -0.515268    27A     -0.494413
      28A     -0.488154    29A     -0.462482    30A     -0.454993
      31A     -0.358930    32A     -0.357560

  @DF-RHF Final Energy:  -344.35024809234358

   => Energetics <=

    Nuclear Repulsion Energy =            420.3110409183641991
    One-Electron Energy =               -1299.5524570326147114
    Two-Electron Energy =                 534.8911680219069922
    Total Energy =                       -344.3502480923435769
  Basis Set: (AUG-CC-PVTZ AUX)
    Blend: AUG-CC-PVTZ-RI
    Molecular point group: c1

    Geometry (in Angstrom), charge = 0, multiplicity = 1:

       Center              X                  Y                   Z               Mass
    ------------   -----------------  -----------------  -----------------  -----------------
         N           -1.389001546408    -0.000273481377    -0.338269456874    14.003074004430
         N            1.388594453592    -0.000273481377     0.340179543126    14.003074004430
         C            0.734228453592    -1.191073481377    -0.192252456874    12.000000000000
         C           -0.734635546408    -1.191072481377     0.194161543126    12.000000000000
         C            0.734229453592     1.190527518623    -0.192251456874    12.000000000000
         C           -0.734636546408     1.190527518623     0.194161543126    12.000000000000
         C           -2.807752546408    -0.000274481377    -0.013918456874    12.000000000000
         C            2.807344453592    -0.000274481377     0.015826543126    12.000000000000
         H            0.817680453592    -1.244907481377    -1.294783456874     1.007825032230
         H            1.227184453592    -2.076180481377     0.227317543126     1.007825032230
         H            1.250244853592     2.106589818623     0.119224043126     1.007825032230
         H            0.817680453592     1.244362518623    -1.294782456874     1.007825032230
         H           -1.227591546408    -2.076180481377    -0.225406456874     1.007825032230
         H           -0.818087546408    -1.244907481377     1.296692543126     1.007825032230
         H           -0.818086546408     1.244361518623     1.296692543126     1.007825032230
         H           -1.227592546408     2.075634518623    -0.225407456874     1.007825032230
         H           -3.278772546408     0.886827518623    -0.447065456874     1.007825032230
         H           -2.998680546408    -0.000274481377     1.074640543126     1.007825032230
         H           -3.278772546408    -0.887376481377    -0.447064456874     1.007825032230
         H            2.998271453592    -0.000274481377    -1.072733456874     1.007825032230
         H            3.278365453592    -0.887376481377     0.448971543126     1.007825032230
         H            3.278366453592     0.886827518623     0.448971543126     1.007825032230

  Basis Set: AUG-CC-PVTZ
    Blend: AUG-CC-PVTZ
  Basis Set: (AUG-CC-PVTZ AUX)
    Blend: AUG-CC-PVTZ-JKFIT
	 Reference Energy          =    -344.3502480923435769 [Eh]
	 Singles Energy            =      -0.0000000000000000 [Eh]
	 Same-Spin Energy          =      -0.3689455773270416 [Eh]
	 Opposite-Spin Energy      =      -1.2703116457047001 [Eh]
	 Correlation Energy        =      -1.6392572230317417 [Eh]
	 Total Energy              =    -345.9895053153753111 [Eh]

	 ================> DF-SCS-MP2 Energies <==================
	-----------------------------------------------------------
	 SCS Same-Spin Scale       =       0.3333333333333333 [-]
	 SCS Opposite-Spin Scale   =       1.2000000000000000 [-]
	 SCS Same-Spin Energy      =      -0.1229818591090139 [Eh]
	 SCS Opposite-Spin Energy  =      -1.5243739748456402 [Eh]
	 SCS Correlation Energy    =      -1.6473558339546541 [Eh]
	 SCS Total Energy          =    -345.9976039262982113 [Eh]
	-----------------------------------------------------------

  Dipole Moment: [D]
     X:     0.0131      Y:     0.0068      Z:    -0.0249     Total:     0.0289

*** Psi4 exiting successfully. Buy a developer a beer!
