                               Psi4 1.4a3.dev225

  ==> Input File <==

--------------------------------------------------------------------------
#psi4
#
memory 32 gb

molecule  {
0 1
  N       -1.3887980     0.0000000    -0.3392240
  N        1.3887980     0.0000000     0.3392250
  C        0.7344320    -1.1908000    -0.1932070
  C       -0.7344320    -1.1907990     0.1932070
  C        0.7344330     1.1908010    -0.1932060
  C       -0.7344330     1.1908010     0.1932070
  C       -2.8075490    -0.0000010    -0.0148730
  C        2.8075480    -0.0000010     0.0148720
  H        0.8178840    -1.2446340    -1.2957380
  H        1.2273880    -2.0759070     0.2263630
  H        1.2273890     2.0759080     0.2263640
  H        0.8178840     1.2446360    -1.2957370
  H       -1.2273880    -2.0759070    -0.2263610
  H       -0.8178840    -1.2446340     1.2957380
  H       -0.8178830     1.2446350     1.2957380
  H       -1.2273890     2.0759080    -0.2263620
  H       -3.2785690     0.8871010    -0.4480200
  H       -2.9984770    -0.0000010     1.0736860
  H       -3.2785690    -0.8871030    -0.4480190
  H        2.9984750    -0.0000010    -1.0736880
  H        3.2785690    -0.8871030     0.4480170
  H        3.2871825     0.9033214     0.4559369
units angstrom
no_reorient  #important for SAPT in psi4, default
symmetry c1  #important for SAPT in psi4, default
}

set PROPERTIES_ORIGIN ["COM"]
properties('MP2/aug-cc-pvtz', properties = ['dipole'])
--------------------------------------------------------------------------

    Molecular point group: c1
  Charge       = 0
  Multiplicity = 1
  Basis Set: AUG-CC-PVTZ
    Blend: AUG-CC-PVTZ
  Basis Set: (AUG-CC-PVTZ AUX)
    Blend: AUG-CC-PVTZ-JKFIT

    Orbital Energies [Eh]
    ---------------------

    Doubly Occupied:

       1A    -15.545275     2A    -15.545105     3A    -11.243149
       4A    -11.242992     5A    -11.242568     6A    -11.242497
       7A    -11.242346     8A    -11.240164     9A     -1.254577
      10A     -1.202791    11A     -1.022424    12A     -0.988410
      13A     -0.905981    14A     -0.862049    15A     -0.832890
      16A     -0.756758    17A     -0.663162    18A     -0.632516
      19A     -0.627200    20A     -0.625274    21A     -0.620836
      22A     -0.579916    23A     -0.546420    24A     -0.541195
      25A     -0.540362    26A     -0.516395    27A     -0.494828
      28A     -0.489077    29A     -0.461400    30A     -0.454359
      31A     -0.359261    32A     -0.357966

  @DF-RHF Final Energy:  -344.35101662835177

   => Energetics <=

    Nuclear Repulsion Energy =            420.3043826334319419
    One-Electron Energy =               -1299.5505096983636122
    Two-Electron Energy =                 534.8951104365798983
    Total Energy =                       -344.3510166283517719
  Basis Set: (AUG-CC-PVTZ AUX)
    Blend: AUG-CC-PVTZ-RI
    Molecular point group: c1

    Geometry (in Angstrom), charge = 0, multiplicity = 1:

       Center              X                  Y                   Z               Mass
    ------------   -----------------  -----------------  -----------------  -----------------
         N           -1.388873957061    -0.000143348527    -0.339294050493    14.003074004430
         N            1.388722042939    -0.000143348527     0.339154949507    14.003074004430
         C            0.734356042939    -1.190943348527    -0.193277050493    12.000000000000
         C           -0.734507957061    -1.190942348527     0.193136949507    12.000000000000
         C            0.734357042939     1.190657651473    -0.193276050493    12.000000000000
         C           -0.734508957061     1.190657651473     0.193136949507    12.000000000000
         C           -2.807624957061    -0.000144348527    -0.014943050493    12.000000000000
         C            2.807472042939    -0.000144348527     0.014801949507    12.000000000000
         H            0.817808042939    -1.244777348527    -1.295808050493     1.007825032230
         H            1.227312042939    -2.076050348527     0.226292949507     1.007825032230
         H            1.227313042939     2.075764651473     0.226293949507     1.007825032230
         H            0.817808042939     1.244492651473    -1.295807050493     1.007825032230
         H           -1.227463957061    -2.076050348527    -0.226431050493     1.007825032230
         H           -0.817959957061    -1.244777348527     1.295667949507     1.007825032230
         H           -0.817958957061     1.244491651473     1.295667949507     1.007825032230
         H           -1.227464957061     2.075764651473    -0.226432050493     1.007825032230
         H           -3.278644957061     0.886957651473    -0.448090050493     1.007825032230
         H           -2.998552957061    -0.000144348527     1.073615949507     1.007825032230
         H           -3.278644957061    -0.887246348527    -0.448089050493     1.007825032230
         H            2.998399042939    -0.000144348527    -1.073758050493     1.007825032230
         H            3.278493042939    -0.887246348527     0.447946949507     1.007825032230
         H            3.287106542939     0.903178051473     0.455866849507     1.007825032230

  Basis Set: AUG-CC-PVTZ
    Blend: AUG-CC-PVTZ
  Basis Set: (AUG-CC-PVTZ AUX)
    Blend: AUG-CC-PVTZ-JKFIT
	 Reference Energy          =    -344.3510166283517719 [Eh]
	 Singles Energy            =      -0.0000000000000000 [Eh]
	 Same-Spin Energy          =      -0.3689415997675392 [Eh]
	 Opposite-Spin Energy      =      -1.2705078686639588 [Eh]
	 Correlation Energy        =      -1.6394494684314980 [Eh]
	 Total Energy              =    -345.9904660967832797 [Eh]

	 ================> DF-SCS-MP2 Energies <==================
	-----------------------------------------------------------
	 SCS Same-Spin Scale       =       0.3333333333333333 [-]
	 SCS Opposite-Spin Scale   =       1.2000000000000000 [-]
	 SCS Same-Spin Energy      =      -0.1229805332558464 [Eh]
	 SCS Opposite-Spin Energy  =      -1.5246094423967504 [Eh]
	 SCS Correlation Energy    =      -1.6475899756525969 [Eh]
	 SCS Total Energy          =    -345.9986066040043511 [Eh]
	-----------------------------------------------------------

  Dipole Moment: [D]
     X:    -0.0113      Y:    -0.0091      Z:    -0.0038     Total:     0.0150

*** Psi4 exiting successfully. Buy a developer a beer!
