                               Psi4 1.4a3.dev225

  ==> Input File <==

--------------------------------------------------------------------------
#psi4
#
memory 32 gb

molecule  {
0 1
  N       -1.3887980     0.0000000    -0.3392240
  N        1.3887980     0.0000000     0.3392250
  C        0.7344320    -1.1908000    -0.1932070
  C       -0.7344320    -1.1907990     0.1932070
  C        0.7344330     1.1908010    -0.1932060
  C       -0.7344330     1.1908010     0.1932070
  C       -2.8075490    -0.0000010    -0.0148730
  C        2.8075480    -0.0000010     0.0148720
  H        0.8178840    -1.2446340    -1.2957380
  H        1.2273880    -2.0759070     0.2263630
  H        1.2273890     2.0759080     0.2263640
  H        0.8178840     1.2446360    -1.2957370
  H       -1.2273880    -2.0759070    -0.2263610
  H       -0.8178840    -1.2446340     1.2957380
  H       -0.8254214     1.2494981     1.3953348
  H       -1.2273890     2.0759080    -0.2263620
  H       -3.2785690     0.8871010    -0.4480200
  H       -2.9984770    -0.0000010     1.0736860
  H       -3.2785690    -0.8871030    -0.4480190
  H        2.9984750    -0.0000010    -1.0736880
  H        3.2785690    -0.8871030     0.4480170
  H        3.2785700     0.8871010     0.4480170
units angstrom
no_reorient  #important for SAPT in psi4, default
symmetry c1  #important for SAPT in psi4, default
}

set PROPERTIES_ORIGIN ["COM"]
properties('MP2/aug-cc-pvtz', properties = ['dipole'])
--------------------------------------------------------------------------

    Molecular point group: c1
  Charge       = 0
  Multiplicity = 1
  Basis Set: AUG-CC-PVTZ
    Blend: AUG-CC-PVTZ
  Basis Set: (AUG-CC-PVTZ AUX)
    Blend: AUG-CC-PVTZ-JKFIT

    Orbital Energies [Eh]
    ---------------------

    Doubly Occupied:

       1A    -15.547683     2A    -15.545257     3A    -11.254460
       4A    -11.243965     5A    -11.243470     6A    -11.242814
       7A    -11.240633     8A    -11.240349     9A     -1.254920
      10A     -1.203444    11A     -1.021220    12A     -0.988736
      13A     -0.907192    14A     -0.860628    15A     -0.832955
      16A     -0.751674    17A     -0.664004    18A     -0.633179
      19A     -0.628419    20A     -0.622947    21A     -0.616524
      22A     -0.579702    23A     -0.547621    24A     -0.542106
      25A     -0.541055    26A     -0.514126    27A     -0.494949
      28A     -0.482756    29A     -0.462208    30A     -0.455280
      31A     -0.359058    32A     -0.358198

  @DF-RHF Final Energy:  -344.34514638534353

   => Energetics <=

    Nuclear Repulsion Energy =            419.9215705967793042
    One-Electron Energy =               -1298.7703705660208016
    Two-Electron Energy =                 534.5036535838980853
    Total Energy =                       -344.3451463853434689
  Basis Set: (AUG-CC-PVTZ AUX)
    Blend: AUG-CC-PVTZ-RI
    Molecular point group: c1

    Geometry (in Angstrom), charge = 0, multiplicity = 1:

       Center              X                  Y                   Z               Mass
    ------------   -----------------  -----------------  -----------------  -----------------
         N           -1.388731318655    -0.000043045314    -0.340103704869    14.003074004430
         N            1.388864681345    -0.000043045314     0.338345295131    14.003074004430
         C            0.734498681345    -1.190843045314    -0.194086704869    12.000000000000
         C           -0.734365318655    -1.190842045314     0.192327295131    12.000000000000
         C            0.734499681345     1.190757954686    -0.194085704869    12.000000000000
         C           -0.734366318655     1.190757954686     0.192327295131    12.000000000000
         C           -2.807482318655    -0.000044045314    -0.015752704869    12.000000000000
         C            2.807614681345    -0.000044045314     0.013992295131    12.000000000000
         H            0.817950681345    -1.244677045314    -1.296617704869     1.007825032230
         H            1.227454681345    -2.075950045314     0.225483295131     1.007825032230
         H            1.227455681345     2.075864954686     0.225484295131     1.007825032230
         H            0.817950681345     1.244592954686    -1.296616704869     1.007825032230
         H           -1.227321318655    -2.075950045314    -0.227240704869     1.007825032230
         H           -0.817817318655    -1.244677045314     1.294858295131     1.007825032230
         H           -0.825354718655     1.249455054686     1.394455095131     1.007825032230
         H           -1.227322318655     2.075864954686    -0.227241704869     1.007825032230
         H           -3.278502318655     0.887057954686    -0.448899704869     1.007825032230
         H           -2.998410318655    -0.000044045314     1.072806295131     1.007825032230
         H           -3.278502318655    -0.887146045314    -0.448898704869     1.007825032230
         H            2.998541681345    -0.000044045314    -1.074567704869     1.007825032230
         H            3.278635681345    -0.887146045314     0.447137295131     1.007825032230
         H            3.278636681345     0.887057954686     0.447137295131     1.007825032230

  Basis Set: AUG-CC-PVTZ
    Blend: AUG-CC-PVTZ
  Basis Set: (AUG-CC-PVTZ AUX)
    Blend: AUG-CC-PVTZ-JKFIT
	 Reference Energy          =    -344.3451463853435257 [Eh]
	 Singles Energy            =      -0.0000000000000000 [Eh]
	 Same-Spin Energy          =      -0.3691752172546230 [Eh]
	 Opposite-Spin Energy      =      -1.2712853734916814 [Eh]
	 Correlation Energy        =      -1.6404605907463043 [Eh]
	 Total Energy              =    -345.9856069760898549 [Eh]

	 ================> DF-SCS-MP2 Energies <==================
	-----------------------------------------------------------
	 SCS Same-Spin Scale       =       0.3333333333333333 [-]
	 SCS Opposite-Spin Scale   =       1.2000000000000000 [-]
	 SCS Same-Spin Energy      =      -0.1230584057515410 [Eh]
	 SCS Opposite-Spin Energy  =      -1.5255424481900175 [Eh]
	 SCS Correlation Energy    =      -1.6486008539415584 [Eh]
	 SCS Total Energy          =    -345.9937472392850850 [Eh]
	-----------------------------------------------------------

  Dipole Moment: [D]
     X:     0.0053      Y:    -0.0524      Z:    -0.1101     Total:     0.1220

*** Psi4 exiting successfully. Buy a developer a beer!
