                               Psi4 1.4a3.dev225

  ==> Input File <==

--------------------------------------------------------------------------
#psi4
#
memory 32 gb

molecule  {
0 1
  N       -1.3887980     0.0000000    -0.3392240
  N        1.4009820    -0.0000000     0.3885411
  C        0.7344320    -1.1908000    -0.1932070
  C       -0.7344320    -1.1907990     0.1932070
  C        0.7344330     1.1908010    -0.1932060
  C       -0.7344330     1.1908010     0.1932070
  C       -2.8075490    -0.0000010    -0.0148730
  C        2.8075480    -0.0000010     0.0148720
  H        0.8178840    -1.2446340    -1.2957380
  H        1.2273880    -2.0759070     0.2263630
  H        1.2273890     2.0759080     0.2263640
  H        0.8178840     1.2446360    -1.2957370
  H       -1.2273880    -2.0759070    -0.2263610
  H       -0.8178840    -1.2446340     1.2957380
  H       -0.8178830     1.2446350     1.2957380
  H       -1.2273890     2.0759080    -0.2263620
  H       -3.2785690     0.8871010    -0.4480200
  H       -2.9984770    -0.0000010     1.0736860
  H       -3.2785690    -0.8871030    -0.4480190
  H        2.9984750    -0.0000010    -1.0736880
  H        3.2785690    -0.8871030     0.4480170
  H        3.2785700     0.8871010     0.4480170
units angstrom
no_reorient  #important for SAPT in psi4, default
symmetry c1  #important for SAPT in psi4, default
}

set PROPERTIES_ORIGIN ["COM"]
properties('MP2/aug-cc-pvtz', properties = ['dipole'])
--------------------------------------------------------------------------

    Molecular point group: c1
  Charge       = 0
  Multiplicity = 1
  Basis Set: AUG-CC-PVTZ
    Blend: AUG-CC-PVTZ
  Basis Set: (AUG-CC-PVTZ AUX)
    Blend: AUG-CC-PVTZ-JKFIT

    Orbital Energies [Eh]
    ---------------------

    Doubly Occupied:

       1A    -15.550189     2A    -15.545071     3A    -11.243876
       4A    -11.243861     5A    -11.242692     6A    -11.242681
       7A    -11.240178     8A    -11.239237     9A     -1.250880
      10A     -1.199581    11A     -1.020778    12A     -0.988892
      13A     -0.905177    14A     -0.858657    15A     -0.833081
      16A     -0.758564    17A     -0.661774    18A     -0.630789
      19A     -0.626244    20A     -0.625304    21A     -0.618845
      22A     -0.580920    23A     -0.547268    24A     -0.538332
      25A     -0.537610    26A     -0.517049    27A     -0.495202
      28A     -0.488535    29A     -0.454907    30A     -0.453345
      31A     -0.367876    32A     -0.358611

  @DF-RHF Final Energy:  -344.34847585353737

   => Energetics <=

    Nuclear Repulsion Energy =            419.6163341548756307
    One-Electron Energy =               -1298.1976069070192352
    Two-Electron Energy =                 534.2327968986062388
    Total Energy =                       -344.3484758535373658
  Basis Set: (AUG-CC-PVTZ AUX)
    Blend: AUG-CC-PVTZ-RI
    Molecular point group: c1

    Geometry (in Angstrom), charge = 0, multiplicity = 1:

       Center              X                  Y                   Z               Mass
    ------------   -----------------  -----------------  -----------------  -----------------
         N           -1.390292986719    -0.000000096325    -0.345275656298    14.003074004430
         N            1.399487013281    -0.000000096325     0.382489443702    14.003074004430
         C            0.732937013281    -1.190800096325    -0.199258656298    12.000000000000
         C           -0.735926986719    -1.190799096325     0.187155343702    12.000000000000
         C            0.732938013281     1.190800903675    -0.199257656298    12.000000000000
         C           -0.735927986719     1.190800903675     0.187155343702    12.000000000000
         C           -2.809043986719    -0.000001096325    -0.020924656298    12.000000000000
         C            2.806053013281    -0.000001096325     0.008820343702    12.000000000000
         H            0.816389013281    -1.244634096325    -1.301789656298     1.007825032230
         H            1.225893013281    -2.075907096325     0.220311343702     1.007825032230
         H            1.225894013281     2.075907903675     0.220312343702     1.007825032230
         H            0.816389013281     1.244635903675    -1.301788656298     1.007825032230
         H           -1.228882986719    -2.075907096325    -0.232412656298     1.007825032230
         H           -0.819378986719    -1.244634096325     1.289686343702     1.007825032230
         H           -0.819377986719     1.244634903675     1.289686343702     1.007825032230
         H           -1.228883986719     2.075907903675    -0.232413656298     1.007825032230
         H           -3.280063986719     0.887100903675    -0.454071656298     1.007825032230
         H           -2.999971986719    -0.000001096325     1.067634343702     1.007825032230
         H           -3.280063986719    -0.887103096325    -0.454070656298     1.007825032230
         H            2.996980013281    -0.000001096325    -1.079739656298     1.007825032230
         H            3.277074013281    -0.887103096325     0.441965343702     1.007825032230
         H            3.277075013281     0.887100903675     0.441965343702     1.007825032230

  Basis Set: AUG-CC-PVTZ
    Blend: AUG-CC-PVTZ
  Basis Set: (AUG-CC-PVTZ AUX)
    Blend: AUG-CC-PVTZ-JKFIT
	 Reference Energy          =    -344.3484758535373658 [Eh]
	 Singles Energy            =      -0.0000000000000000 [Eh]
	 Same-Spin Energy          =      -0.3690458378931812 [Eh]
	 Opposite-Spin Energy      =      -1.2714093519378213 [Eh]
	 Correlation Energy        =      -1.6404551898310025 [Eh]
	 Total Energy              =    -345.9889310433683818 [Eh]

	 ================> DF-SCS-MP2 Energies <==================
	-----------------------------------------------------------
	 SCS Same-Spin Scale       =       0.3333333333333333 [-]
	 SCS Opposite-Spin Scale   =       1.2000000000000000 [-]
	 SCS Same-Spin Energy      =      -0.1230152792977271 [Eh]
	 SCS Opposite-Spin Energy  =      -1.5256912223253856 [Eh]
	 SCS Correlation Energy    =      -1.6487065016231126 [Eh]
	 SCS Total Energy          =    -345.9971823551604757 [Eh]
	-----------------------------------------------------------

  Dipole Moment: [D]
     X:    -0.0364      Y:     0.0000      Z:    -0.1437     Total:     0.1483

*** Psi4 exiting successfully. Buy a developer a beer!
