                               Psi4 1.4a3.dev225

  ==> Input File <==

--------------------------------------------------------------------------
#psi4
#
memory 32 gb

molecule  {
0 1
  N       -1.4148796    -0.0000000    -0.4374010
  N        1.3887980     0.0000000     0.3392250
  C        0.7344320    -1.1908000    -0.1932070
  C       -0.7344320    -1.1907990     0.1932070
  C        0.7344330     1.1908010    -0.1932060
  C       -0.7344330     1.1908010     0.1932070
  C       -2.8075490    -0.0000010    -0.0148730
  C        2.8075480    -0.0000010     0.0148720
  H        0.8178840    -1.2446340    -1.2957380
  H        1.2273880    -2.0759070     0.2263630
  H        1.2273890     2.0759080     0.2263640
  H        0.8178840     1.2446360    -1.2957370
  H       -1.2273880    -2.0759070    -0.2263610
  H       -0.8178840    -1.2446340     1.2957380
  H       -0.8178830     1.2446350     1.2957380
  H       -1.2273890     2.0759080    -0.2263620
  H       -3.2785690     0.8871010    -0.4480200
  H       -2.9984770    -0.0000010     1.0736860
  H       -3.2785690    -0.8871030    -0.4480190
  H        2.9984750    -0.0000010    -1.0736880
  H        3.2785690    -0.8871030     0.4480170
  H        3.2785700     0.8871010     0.4480170
units angstrom
no_reorient  #important for SAPT in psi4, default
symmetry c1  #important for SAPT in psi4, default
}

set PROPERTIES_ORIGIN ["COM"]
properties('MP2/aug-cc-pvtz', properties = ['dipole'])
--------------------------------------------------------------------------

    Molecular point group: c1
  Charge       = 0
  Multiplicity = 1
  Basis Set: AUG-CC-PVTZ
    Blend: AUG-CC-PVTZ
  Basis Set: (AUG-CC-PVTZ AUX)
    Blend: AUG-CC-PVTZ-JKFIT

    Orbital Energies [Eh]
    ---------------------

    Doubly Occupied:

       1A    -15.555502     2A    -15.545143     3A    -11.245150
       4A    -11.245138     5A    -11.242956     6A    -11.242944
       7A    -11.240273     8A    -11.238467     9A     -1.247678
      10A     -1.195905    11A     -1.019347    12A     -0.989023
      13A     -0.903354    14A     -0.855495    15A     -0.832882
      16A     -0.760399    17A     -0.660468    18A     -0.629963
      19A     -0.626898    20A     -0.623214    21A     -0.615787
      22A     -0.582055    23A     -0.547097    24A     -0.535932
      25A     -0.534089    26A     -0.517601    27A     -0.495313
      28A     -0.487855    29A     -0.452177    30A     -0.447154
      31A     -0.376898    32A     -0.358714

  @DF-RHF Final Energy:  -344.34240836433878

   => Energetics <=

    Nuclear Repulsion Energy =            418.7896786202612134
    One-Electron Energy =               -1296.5624348340770666
    Two-Electron Energy =                 533.4303478494771298
    Total Energy =                       -344.3424083643387803
  Basis Set: (AUG-CC-PVTZ AUX)
    Blend: AUG-CC-PVTZ-RI
    Molecular point group: c1

    Geometry (in Angstrom), charge = 0, multiplicity = 1:

       Center              X                  Y                   Z               Mass
    ------------   -----------------  -----------------  -----------------  -----------------
         N           -1.411679036187    -0.000000096325    -0.425353859881    14.003074004430
         N            1.391998563813    -0.000000096325     0.351272140119    14.003074004430
         C            0.737632563813    -1.190800096325    -0.181159859881    12.000000000000
         C           -0.731231436187    -1.190799096325     0.205254140119    12.000000000000
         C            0.737633563813     1.190800903675    -0.181158859881    12.000000000000
         C           -0.731232436187     1.190800903675     0.205254140119    12.000000000000
         C           -2.804348436187    -0.000001096325    -0.002825859881    12.000000000000
         C            2.810748563813    -0.000001096325     0.026919140119    12.000000000000
         H            0.821084563813    -1.244634096325    -1.283690859881     1.007825032230
         H            1.230588563813    -2.075907096325     0.238410140119     1.007825032230
         H            1.230589563813     2.075907903675     0.238411140119     1.007825032230
         H            0.821084563813     1.244635903675    -1.283689859881     1.007825032230
         H           -1.224187436187    -2.075907096325    -0.214313859881     1.007825032230
         H           -0.814683436187    -1.244634096325     1.307785140119     1.007825032230
         H           -0.814682436187     1.244634903675     1.307785140119     1.007825032230
         H           -1.224188436187     2.075907903675    -0.214314859881     1.007825032230
         H           -3.275368436187     0.887100903675    -0.435972859881     1.007825032230
         H           -2.995276436187    -0.000001096325     1.085733140119     1.007825032230
         H           -3.275368436187    -0.887103096325    -0.435971859881     1.007825032230
         H            3.001675563813    -0.000001096325    -1.061640859881     1.007825032230
         H            3.281769563813    -0.887103096325     0.460064140119     1.007825032230
         H            3.281770563813     0.887100903675     0.460064140119     1.007825032230

  Basis Set: AUG-CC-PVTZ
    Blend: AUG-CC-PVTZ
  Basis Set: (AUG-CC-PVTZ AUX)
    Blend: AUG-CC-PVTZ-JKFIT
	 Reference Energy          =    -344.3424083643387803 [Eh]
	 Singles Energy            =      -0.0000000000000000 [Eh]
	 Same-Spin Energy          =      -0.3693036094960600 [Eh]
	 Opposite-Spin Energy      =      -1.2727626930076508 [Eh]
	 Correlation Energy        =      -1.6420663025037108 [Eh]
	 Total Energy              =    -345.9844746668425159 [Eh]

	 ================> DF-SCS-MP2 Energies <==================
	-----------------------------------------------------------
	 SCS Same-Spin Scale       =       0.3333333333333333 [-]
	 SCS Opposite-Spin Scale   =       1.2000000000000000 [-]
	 SCS Same-Spin Energy      =      -0.1231012031653533 [Eh]
	 SCS Opposite-Spin Energy  =      -1.5273152316091809 [Eh]
	 SCS Correlation Energy    =      -1.6504164347745343 [Eh]
	 SCS Total Energy          =    -345.9928247991132935 [Eh]
	-----------------------------------------------------------

  Dipole Moment: [D]
     X:     0.0752      Y:     0.0000      Z:     0.2748     Total:     0.2849

*** Psi4 exiting successfully. Buy a developer a beer!
