                               Psi4 1.4a3.dev225

  ==> Input File <==

--------------------------------------------------------------------------
#psi4
#
memory 32 gb

molecule  {
0 1
  N       -1.3887980     0.0000000    -0.3392240
  N        1.3887980     0.0000000     0.3392250
  C        0.7344320    -1.1908000    -0.1932070
  C       -0.7169836    -1.2816443     0.2449908
  C        0.7344330     1.1908010    -0.1932060
  C       -0.7344330     1.1908010     0.1932070
  C       -2.8075490    -0.0000010    -0.0148730
  C        2.8075480    -0.0000010     0.0148720
  H        0.8178840    -1.2446340    -1.2957380
  H        1.2273880    -2.0759070     0.2263630
  H        1.2273890     2.0759080     0.2263640
  H        0.8178840     1.2446360    -1.2957370
  H       -1.2273880    -2.0759070    -0.2263610
  H       -0.8178840    -1.2446340     1.2957380
  H       -0.8178830     1.2446350     1.2957380
  H       -1.2273890     2.0759080    -0.2263620
  H       -3.2785690     0.8871010    -0.4480200
  H       -2.9984770    -0.0000010     1.0736860
  H       -3.2785690    -0.8871030    -0.4480190
  H        2.9984750    -0.0000010    -1.0736880
  H        3.2785690    -0.8871030     0.4480170
  H        3.2785700     0.8871010     0.4480170
units angstrom
no_reorient  #important for SAPT in psi4, default
symmetry c1  #important for SAPT in psi4, default
}

set PROPERTIES_ORIGIN ["COM"]
properties('MP2/aug-cc-pvtz', properties = ['dipole'])
--------------------------------------------------------------------------

    Molecular point group: c1
  Charge       = 0
  Multiplicity = 1
  Basis Set: AUG-CC-PVTZ
    Blend: AUG-CC-PVTZ
  Basis Set: (AUG-CC-PVTZ AUX)
    Blend: AUG-CC-PVTZ-JKFIT

    Orbital Energies [Eh]
    ---------------------

    Doubly Occupied:

       1A    -15.546116     2A    -15.542886     3A    -11.244164
       4A    -11.241781     5A    -11.241483     6A    -11.240698
       7A    -11.240219     8A    -11.236823     9A     -1.245841
      10A     -1.190973    11A     -1.023400    12A     -0.987413
      13A     -0.903150    14A     -0.862091    15A     -0.829938
      16A     -0.759526    17A     -0.659388    18A     -0.636359
      19A     -0.630069    20A     -0.621218    21A     -0.617555
      22A     -0.575288    23A     -0.550658    24A     -0.539605
      25A     -0.537375    26A     -0.521359    27A     -0.498861
      28A     -0.491258    29A     -0.463184    30A     -0.440420
      31A     -0.359416    32A     -0.356003

  @DF-RHF Final Energy:  -344.34170785800376

   => Energetics <=

    Nuclear Repulsion Energy =            418.7089823772249702
    One-Electron Energy =               -1296.4323431715970401
    Two-Electron Energy =                 533.3816529363682548
    Total Energy =                       -344.3417078580038151
  Basis Set: (AUG-CC-PVTZ AUX)
    Blend: AUG-CC-PVTZ-RI
    Molecular point group: c1

    Geometry (in Angstrom), charge = 0, multiplicity = 1:

       Center              X                  Y                   Z               Mass
    ------------   -----------------  -----------------  -----------------  -----------------
         N           -1.390632706380     0.009552871538    -0.344669504832    14.003074004430
         N            1.386963293620     0.009552871538     0.333779495168    14.003074004430
         C            0.732597293620    -1.181247128462    -0.198652504832    12.000000000000
         C           -0.718818306380    -1.272091428462     0.239545295168    12.000000000000
         C            0.732598293620     1.200353871538    -0.198651504832    12.000000000000
         C           -0.736267706380     1.200353871538     0.187761495168    12.000000000000
         C           -2.809383706380     0.009551871538    -0.020318504832    12.000000000000
         C            2.805713293620     0.009551871538     0.009426495168    12.000000000000
         H            0.816049293620    -1.235081128462    -1.301183504832     1.007825032230
         H            1.225553293620    -2.066354128462     0.220917495168     1.007825032230
         H            1.225554293620     2.085460871538     0.220918495168     1.007825032230
         H            0.816049293620     1.254188871538    -1.301182504832     1.007825032230
         H           -1.229222706380    -2.066354128462    -0.231806504832     1.007825032230
         H           -0.819718706380    -1.235081128462     1.290292495168     1.007825032230
         H           -0.819717706380     1.254187871538     1.290292495168     1.007825032230
         H           -1.229223706380     2.085460871538    -0.231807504832     1.007825032230
         H           -3.280403706380     0.896653871538    -0.453465504832     1.007825032230
         H           -3.000311706380     0.009551871538     1.068240495168     1.007825032230
         H           -3.280403706380    -0.877550128462    -0.453464504832     1.007825032230
         H            2.996640293620     0.009551871538    -1.079133504832     1.007825032230
         H            3.276734293620    -0.877550128462     0.442571495168     1.007825032230
         H            3.276735293620     0.896653871538     0.442571495168     1.007825032230

  Basis Set: AUG-CC-PVTZ
    Blend: AUG-CC-PVTZ
  Basis Set: (AUG-CC-PVTZ AUX)
    Blend: AUG-CC-PVTZ-JKFIT
	 Reference Energy          =    -344.3417078580037582 [Eh]
	 Singles Energy            =      -0.0000000000000000 [Eh]
	 Same-Spin Energy          =      -0.3687206815292038 [Eh]
	 Opposite-Spin Energy      =      -1.2712382799876645 [Eh]
	 Correlation Energy        =      -1.6399589615168684 [Eh]
	 Total Energy              =    -345.9816668195206262 [Eh]

	 ================> DF-SCS-MP2 Energies <==================
	-----------------------------------------------------------
	 SCS Same-Spin Scale       =       0.3333333333333333 [-]
	 SCS Opposite-Spin Scale   =       1.2000000000000000 [-]
	 SCS Same-Spin Energy      =      -0.1229068938430679 [Eh]
	 SCS Opposite-Spin Energy  =      -1.5254859359851973 [Eh]
	 SCS Correlation Energy    =      -1.6483928298282653 [Eh]
	 SCS Total Energy          =    -345.9901006878320118 [Eh]
	-----------------------------------------------------------

  Dipole Moment: [D]
     X:     0.0873      Y:    -0.1665      Z:     0.1047     Total:     0.2152

*** Psi4 exiting successfully. Buy a developer a beer!
