                               Psi4 1.4a3.dev225

  ==> Input File <==

--------------------------------------------------------------------------
#psi4
#
memory 32 gb

molecule  {
0 1
  N       -1.3887980     0.0000000    -0.3392240
  N        1.3887980     0.0000000     0.3392250
  C        0.7344320    -1.1908000    -0.1932070
  C       -0.7344320    -1.1907990     0.1932070
  C        0.7344330     1.1908010    -0.1932060
  C       -0.7344330     1.1908010     0.1932070
  C       -2.8075490    -0.0000010    -0.0148730
  C        2.8075480    -0.0000010     0.0148720
  H        0.8178840    -1.2446340    -1.2957380
  H        1.2273880    -2.0759070     0.2263630
  H        1.2273890     2.0759080     0.2263640
  H        0.8178840     1.2446360    -1.2957370
  H       -1.2273880    -2.0759070    -0.2263610
  H       -0.8178840    -1.2446340     1.2957380
  H       -0.8178830     1.2446350     1.2957380
  H       -1.2273890     2.0759080    -0.2263620
  H       -3.2785690     0.8871010    -0.4480200
  H       -2.9984770    -0.0000010     1.0736860
  H       -3.2785690    -0.8871030    -0.4480190
  H        2.9984750    -0.0000010    -1.0736880
  H        3.2785690    -0.8871030     0.4480170
  H        3.2570388     0.8465501     0.4282172
units angstrom
no_reorient  #important for SAPT in psi4, default
symmetry c1  #important for SAPT in psi4, default
}

set PROPERTIES_ORIGIN ["COM"]
properties('MP2/aug-cc-pvtz', properties = ['dipole'])
--------------------------------------------------------------------------

    Molecular point group: c1
  Charge       = 0
  Multiplicity = 1
  Basis Set: AUG-CC-PVTZ
    Blend: AUG-CC-PVTZ
  Basis Set: (AUG-CC-PVTZ AUX)
    Blend: AUG-CC-PVTZ-JKFIT

    Orbital Energies [Eh]
    ---------------------

    Doubly Occupied:

       1A    -15.544897     2A    -15.544509     3A    -11.242928
       4A    -11.242580     5A    -11.242282     6A    -11.241907
       7A    -11.239997     8A    -11.233882     9A     -1.254313
      10A     -1.202692    11A     -1.022144    12A     -0.990306
      13A     -0.909806    14A     -0.861873    15A     -0.834540
      16A     -0.756506    17A     -0.663425    18A     -0.633015
      19A     -0.629349    20A     -0.625429    21A     -0.621475
      22A     -0.579398    23A     -0.551311    24A     -0.541801
      25A     -0.540880    26A     -0.516669    27A     -0.496754
      28A     -0.489384    29A     -0.461402    30A     -0.454132
      31A     -0.358990    32A     -0.357673

  @DF-RHF Final Energy:  -344.35059774172578

   => Energetics <=

    Nuclear Repulsion Energy =            420.6270271438036730
    One-Electron Energy =               -1300.1827464808443438
    Two-Electron Energy =                 535.2051215953149494
    Total Energy =                       -344.3505977417257782
  Basis Set: (AUG-CC-PVTZ AUX)
    Blend: AUG-CC-PVTZ-RI
    Molecular point group: c1

    Geometry (in Angstrom), charge = 0, multiplicity = 1:

       Center              X                  Y                   Z               Mass
    ------------   -----------------  -----------------  -----------------  -----------------
         N           -1.388607739741     0.000358033298    -0.339049240989    14.003074004430
         N            1.388988260259     0.000358033298     0.339399759011    14.003074004430
         C            0.734622260259    -1.190441966702    -0.193032240989    12.000000000000
         C           -0.734241739741    -1.190440966702     0.193381759011    12.000000000000
         C            0.734623260259     1.191159033298    -0.193031240989    12.000000000000
         C           -0.734242739741     1.191159033298     0.193381759011    12.000000000000
         C           -2.807358739741     0.000357033298    -0.014698240989    12.000000000000
         C            2.807738260259     0.000357033298     0.015046759011    12.000000000000
         H            0.818074260259    -1.244275966702    -1.295563240989     1.007825032230
         H            1.227578260259    -2.075548966702     0.226537759011     1.007825032230
         H            1.227579260259     2.076266033298     0.226538759011     1.007825032230
         H            0.818074260259     1.244994033298    -1.295562240989     1.007825032230
         H           -1.227197739741    -2.075548966702    -0.226186240989     1.007825032230
         H           -0.817693739741    -1.244275966702     1.295912759011     1.007825032230
         H           -0.817692739741     1.244993033298     1.295912759011     1.007825032230
         H           -1.227198739741     2.076266033298    -0.226187240989     1.007825032230
         H           -3.278378739741     0.887459033298    -0.447845240989     1.007825032230
         H           -2.998286739741     0.000357033298     1.073860759011     1.007825032230
         H           -3.278378739741    -0.886744966702    -0.447844240989     1.007825032230
         H            2.998665260259     0.000357033298    -1.073513240989     1.007825032230
         H            3.278759260259    -0.886744966702     0.448191759011     1.007825032230
         H            3.257229060259     0.846908133298     0.428391959011     1.007825032230

  Basis Set: AUG-CC-PVTZ
    Blend: AUG-CC-PVTZ
  Basis Set: (AUG-CC-PVTZ AUX)
    Blend: AUG-CC-PVTZ-JKFIT
	 Reference Energy          =    -344.3505977417257782 [Eh]
	 Singles Energy            =      -0.0000000000000000 [Eh]
	 Same-Spin Energy          =      -0.3689135281347299 [Eh]
	 Opposite-Spin Energy      =      -1.2700790554810937 [Eh]
	 Correlation Energy        =      -1.6389925836158237 [Eh]
	 Total Energy              =    -345.9895903253416236 [Eh]

	 ================> DF-SCS-MP2 Energies <==================
	-----------------------------------------------------------
	 SCS Same-Spin Scale       =       0.3333333333333333 [-]
	 SCS Opposite-Spin Scale   =       1.2000000000000000 [-]
	 SCS Same-Spin Energy      =      -0.1229711760449100 [Eh]
	 SCS Opposite-Spin Energy  =      -1.5240948665773124 [Eh]
	 SCS Correlation Energy    =      -1.6470660426222223 [Eh]
	 SCS Total Energy          =    -345.9976637843479921 [Eh]
	-----------------------------------------------------------

  Dipole Moment: [D]
     X:     0.0257      Y:     0.0205      Z:     0.0083     Total:     0.0339

*** Psi4 exiting successfully. Buy a developer a beer!
