                               Psi4 1.4a3.dev225

  ==> Input File <==

--------------------------------------------------------------------------
#psi4
#
memory 32 gb

molecule  {
0 1
  N       -1.3887980     0.0000000    -0.3392240
  N        1.3887980     0.0000000     0.3392250
  C        0.7344320    -1.1908000    -0.1932070
  C       -0.7344320    -1.1907990     0.1932070
  C        0.7344330     1.1908010    -0.1932060
  C       -0.7344330     1.1908010     0.1932070
  C       -2.8075490    -0.0000010    -0.0148730
  C        2.8075480    -0.0000010     0.0148720
  H        0.8178840    -1.2446340    -1.2957380
  H        1.2273880    -2.0759070     0.2263630
  H        1.2230130     2.0697952     0.2439641
  H        0.8178840     1.2446360    -1.2957370
  H       -1.2273880    -2.0759070    -0.2263610
  H       -0.8178840    -1.2446340     1.2957380
  H       -0.8178830     1.2446350     1.2957380
  H       -1.2273890     2.0759080    -0.2263620
  H       -3.2785690     0.8871010    -0.4480200
  H       -2.9984770    -0.0000010     1.0736860
  H       -3.2785690    -0.8871030    -0.4480190
  H        2.9984750    -0.0000010    -1.0736880
  H        3.2785690    -0.8871030     0.4480170
  H        3.2785700     0.8871010     0.4480170
units angstrom
no_reorient  #important for SAPT in psi4, default
symmetry c1  #important for SAPT in psi4, default
}

set PROPERTIES_ORIGIN ["COM"]
properties('MP2/aug-cc-pvtz', properties = ['dipole'])
--------------------------------------------------------------------------

    Molecular point group: c1
  Charge       = 0
  Multiplicity = 1
  Basis Set: AUG-CC-PVTZ
    Blend: AUG-CC-PVTZ
  Basis Set: (AUG-CC-PVTZ AUX)
    Blend: AUG-CC-PVTZ-JKFIT

    Orbital Energies [Eh]
    ---------------------

    Doubly Occupied:

       1A    -15.545000     2A    -15.544913     3A    -11.242936
       4A    -11.242912     5A    -11.242285     6A    -11.242267
       7A    -11.240097     8A    -11.240089     9A     -1.254488
      10A     -1.202728    11A     -1.022394    12A     -0.988874
      13A     -0.906956    14A     -0.861918    15A     -0.833259
      16A     -0.756423    17A     -0.663068    18A     -0.632795
      19A     -0.627678    20A     -0.625494    21A     -0.621134
      22A     -0.579700    23A     -0.547604    24A     -0.541089
      25A     -0.540639    26A     -0.516688    27A     -0.495625
      28A     -0.489333    29A     -0.461133    30A     -0.454127
      31A     -0.359225    32A     -0.357908

  @DF-RHF Final Energy:  -344.35149411690145

   => Energetics <=

    Nuclear Repulsion Energy =            420.4094251988734641
    One-Electron Energy =               -1299.7602818790023775
    Two-Electron Energy =                 534.9993625632274643
    Total Energy =                       -344.3514941169014492
  Basis Set: (AUG-CC-PVTZ AUX)
    Blend: AUG-CC-PVTZ-RI
    Molecular point group: c1

    Geometry (in Angstrom), charge = 0, multiplicity = 1:

       Center              X                  Y                   Z               Mass
    ------------   -----------------  -----------------  -----------------  -----------------
         N           -1.388759247730     0.000053889524    -0.339379542217    14.003074004430
         N            1.388836752270     0.000053889524     0.339069457783    14.003074004430
         C            0.734470752270    -1.190746110476    -0.193362542217    12.000000000000
         C           -0.734393247730    -1.190745110476     0.193051457783    12.000000000000
         C            0.734471752270     1.190854889524    -0.193361542217    12.000000000000
         C           -0.734394247730     1.190854889524     0.193051457783    12.000000000000
         C           -2.807510247730     0.000052889524    -0.015028542217    12.000000000000
         C            2.807586752270     0.000052889524     0.014716457783    12.000000000000
         H            0.817922752270    -1.244580110476    -1.295893542217     1.007825032230
         H            1.227426752270    -2.075853110476     0.226207457783     1.007825032230
         H            1.223051752270     2.069849089524     0.243808557783     1.007825032230
         H            0.817922752270     1.244689889524    -1.295892542217     1.007825032230
         H           -1.227349247730    -2.075853110476    -0.226516542217     1.007825032230
         H           -0.817845247730    -1.244580110476     1.295582457783     1.007825032230
         H           -0.817844247730     1.244688889524     1.295582457783     1.007825032230
         H           -1.227350247730     2.075961889524    -0.226517542217     1.007825032230
         H           -3.278530247730     0.887154889524    -0.448175542217     1.007825032230
         H           -2.998438247730     0.000052889524     1.073530457783     1.007825032230
         H           -3.278530247730    -0.887049110476    -0.448174542217     1.007825032230
         H            2.998513752270     0.000052889524    -1.073843542217     1.007825032230
         H            3.278607752270    -0.887049110476     0.447861457783     1.007825032230
         H            3.278608752270     0.887154889524     0.447861457783     1.007825032230

  Basis Set: AUG-CC-PVTZ
    Blend: AUG-CC-PVTZ
  Basis Set: (AUG-CC-PVTZ AUX)
    Blend: AUG-CC-PVTZ-JKFIT
	 Reference Energy          =    -344.3514941169014492 [Eh]
	 Singles Energy            =      -0.0000000000000000 [Eh]
	 Same-Spin Energy          =      -0.3689434670054840 [Eh]
	 Opposite-Spin Energy      =      -1.2704054586773332 [Eh]
	 Correlation Energy        =      -1.6393489256828173 [Eh]
	 Total Energy              =    -345.9908430425842880 [Eh]

	 ================> DF-SCS-MP2 Energies <==================
	-----------------------------------------------------------
	 SCS Same-Spin Scale       =       0.3333333333333333 [-]
	 SCS Opposite-Spin Scale   =       1.2000000000000000 [-]
	 SCS Same-Spin Energy      =      -0.1229811556684947 [Eh]
	 SCS Opposite-Spin Energy  =      -1.5244865504127998 [Eh]
	 SCS Correlation Energy    =      -1.6474677060812946 [Eh]
	 SCS Total Energy          =    -345.9989618229827215 [Eh]
	-----------------------------------------------------------

  Dipole Moment: [D]
     X:    -0.0022      Y:    -0.0013      Z:     0.0035     Total:     0.0043

*** Psi4 exiting successfully. Buy a developer a beer!
