                               Psi4 1.4a3.dev225

  ==> Input File <==

--------------------------------------------------------------------------
#psi4
#
memory 32 gb

molecule  {
0 1
  N       -1.3887980     0.0000000    -0.3392240
  N        1.3887980     0.0000000     0.3392250
  C        0.7344320    -1.1908000    -0.1932070
  C       -0.7344320    -1.1907990     0.1932070
  C        0.7344330     1.1908010    -0.1932060
  C       -0.7344330     1.1908010     0.1932070
  C       -2.8075490    -0.0000010    -0.0148730
  C        2.8075480    -0.0000010     0.0148720
  H        0.8178840    -1.2446340    -1.2957380
  H        1.2273880    -2.0759070     0.2263630
  H        1.2273890     2.0759080     0.2263640
  H        0.8178840     1.2446360    -1.2957370
  H       -1.2273880    -2.0759070    -0.2263610
  H       -0.8103454    -1.2397708     1.1961412
  H       -0.8178830     1.2446350     1.2957380
  H       -1.2273890     2.0759080    -0.2263620
  H       -3.2785690     0.8871010    -0.4480200
  H       -2.9984770    -0.0000010     1.0736860
  H       -3.2785690    -0.8871030    -0.4480190
  H        2.9984750    -0.0000010    -1.0736880
  H        3.2785690    -0.8871030     0.4480170
  H        3.2785700     0.8871010     0.4480170
units angstrom
no_reorient  #important for SAPT in psi4, default
symmetry c1  #important for SAPT in psi4, default
}

set PROPERTIES_ORIGIN ["COM"]
properties('MP2/aug-cc-pvtz', properties = ['dipole'])
--------------------------------------------------------------------------

    Molecular point group: c1
  Charge       = 0
  Multiplicity = 1
  Basis Set: AUG-CC-PVTZ
    Blend: AUG-CC-PVTZ
  Basis Set: (AUG-CC-PVTZ AUX)
    Blend: AUG-CC-PVTZ-JKFIT

    Orbital Energies [Eh]
    ---------------------

    Doubly Occupied:

       1A    -15.544933     2A    -15.542912     3A    -11.242608
       4A    -11.241957     5A    -11.241616     6A    -11.239959
       7A    -11.239720     8A    -11.230149     9A     -1.254483
      10A     -1.202357    11A     -1.024725    12A     -0.989438
      13A     -0.907092    14A     -0.864917    15A     -0.834147
      16A     -0.763204    17A     -0.662617    18A     -0.634388
      19A     -0.631494    20A     -0.626978    21A     -0.621367
      22A     -0.579900    23A     -0.547518    24A     -0.541308
      25A     -0.540356    26A     -0.519723    27A     -0.497844
      28A     -0.491260    29A     -0.460754    30A     -0.453556
      31A     -0.359356    32A     -0.357454

  @DF-RHF Final Energy:  -344.34652537003183

   => Energetics <=

    Nuclear Repulsion Energy =            420.9160689946629077
    One-Electron Energy =               -1300.7450108066020675
    Two-Electron Energy =                 535.4824164419072758
    Total Energy =                       -344.3465253700318272
  Basis Set: (AUG-CC-PVTZ AUX)
    Blend: AUG-CC-PVTZ-RI
    Molecular point group: c1

    Geometry (in Angstrom), charge = 0, multiplicity = 1:

       Center              X                  Y                   Z               Mass
    ------------   -----------------  -----------------  -----------------  -----------------
         N           -1.388864472798    -0.000043046197    -0.338344505223    14.003074004430
         N            1.388731527202    -0.000043046197     0.340104494777    14.003074004430
         C            0.734365527202    -1.190843046197    -0.192327505223    12.000000000000
         C           -0.734498472798    -1.190842046197     0.194086494777    12.000000000000
         C            0.734366527202     1.190757953803    -0.192326505223    12.000000000000
         C           -0.734499472798     1.190757953803     0.194086494777    12.000000000000
         C           -2.807615472798    -0.000044046197    -0.013993505223    12.000000000000
         C            2.807481527202    -0.000044046197     0.015751494777    12.000000000000
         H            0.817817527202    -1.244677046197    -1.294858505223     1.007825032230
         H            1.227321527202    -2.075950046197     0.227242494777     1.007825032230
         H            1.227322527202     2.075864953803     0.227243494777     1.007825032230
         H            0.817817527202     1.244592953803    -1.294857505223     1.007825032230
         H           -1.227454472798    -2.075950046197    -0.225481505223     1.007825032230
         H           -0.810411872798    -1.239813846197     1.197020694777     1.007825032230
         H           -0.817949472798     1.244591953803     1.296617494777     1.007825032230
         H           -1.227455472798     2.075864953803    -0.225482505223     1.007825032230
         H           -3.278635472798     0.887057953803    -0.447140505223     1.007825032230
         H           -2.998543472798    -0.000044046197     1.074565494777     1.007825032230
         H           -3.278635472798    -0.887146046197    -0.447139505223     1.007825032230
         H            2.998408527202    -0.000044046197    -1.072808505223     1.007825032230
         H            3.278502527202    -0.887146046197     0.448896494777     1.007825032230
         H            3.278503527202     0.887057953803     0.448896494777     1.007825032230

  Basis Set: AUG-CC-PVTZ
    Blend: AUG-CC-PVTZ
  Basis Set: (AUG-CC-PVTZ AUX)
    Blend: AUG-CC-PVTZ-JKFIT
	 Reference Energy          =    -344.3465253700318272 [Eh]
	 Singles Energy            =      -0.0000000000000000 [Eh]
	 Same-Spin Energy          =      -0.3687339659691342 [Eh]
	 Opposite-Spin Energy      =      -1.2696945003665352 [Eh]
	 Correlation Energy        =      -1.6384284663356694 [Eh]
	 Total Energy              =    -345.9849538363674810 [Eh]

	 ================> DF-SCS-MP2 Energies <==================
	-----------------------------------------------------------
	 SCS Same-Spin Scale       =       0.3333333333333333 [-]
	 SCS Opposite-Spin Scale   =       1.2000000000000000 [-]
	 SCS Same-Spin Energy      =      -0.1229113219897114 [Eh]
	 SCS Opposite-Spin Energy  =      -1.5236334004398422 [Eh]
	 SCS Correlation Energy    =      -1.6465447224295535 [Eh]
	 SCS Total Energy          =    -345.9930700924613802 [Eh]
	-----------------------------------------------------------

  Dipole Moment: [D]
     X:    -0.0041      Y:    -0.0421      Z:     0.0866     Total:     0.0963

*** Psi4 exiting successfully. Buy a developer a beer!
