                               Psi4 1.4a3.dev225

  ==> Input File <==

--------------------------------------------------------------------------
#psi4
#
memory 32 gb

molecule  {
0 1
  N       -1.3887980     0.0000000    -0.3392240
  N        1.3887980     0.0000000     0.3392250
  C        0.7344320    -1.1908000    -0.1932070
  C       -0.7344320    -1.1907990     0.1932070
  C        0.7344330     1.1908010    -0.1932060
  C       -0.7344330     1.1908010     0.1932070
  C       -2.8075490    -0.0000010    -0.0148730
  C        2.8075480    -0.0000010     0.0148720
  H        0.8178840    -1.2446340    -1.2957380
  H        1.2273880    -2.0759070     0.2263630
  H        1.2273890     2.0759080     0.2263640
  H        0.8178840     1.2446360    -1.2957370
  H       -1.2273880    -2.0759070    -0.2263610
  H       -0.8178840    -1.2446340     1.2957380
  H       -0.8178830     1.2446350     1.2957380
  H       -1.2273890     2.0759080    -0.2263620
  H       -3.2785690     0.8871010    -0.4480200
  H       -2.9984770    -0.0000010     1.0736860
  H       -3.3646935    -1.0493067    -0.5272183
  H        2.9984750    -0.0000010    -1.0736880
  H        3.2785690    -0.8871030     0.4480170
  H        3.2785700     0.8871010     0.4480170
units angstrom
no_reorient  #important for SAPT in psi4, default
symmetry c1  #important for SAPT in psi4, default
}

set PROPERTIES_ORIGIN ["COM"]
properties('MP2/aug-cc-pvtz', properties = ['dipole'])
--------------------------------------------------------------------------

    Molecular point group: c1
  Charge       = 0
  Multiplicity = 1
  Basis Set: AUG-CC-PVTZ
    Blend: AUG-CC-PVTZ
  Basis Set: (AUG-CC-PVTZ AUX)
    Blend: AUG-CC-PVTZ-JKFIT

    Orbital Energies [Eh]
    ---------------------

    Doubly Occupied:

       1A    -15.547939     2A    -15.545852     3A    -11.263393
       4A    -11.245385     5A    -11.244151     6A    -11.243351
       7A    -11.242687     8A    -11.240758     9A     -1.255802
      10A     -1.203807    11A     -1.023458    12A     -0.986383
      13A     -0.900266    14A     -0.862867    15A     -0.830027
      16A     -0.757786    17A     -0.663809    18A     -0.633548
      19A     -0.627021    20A     -0.625359    21A     -0.616276
      22A     -0.581824    23A     -0.545845    24A     -0.542273
      25A     -0.530146    26A     -0.515412    27A     -0.492216
      28A     -0.480761    29A     -0.460981    30A     -0.453862
      31A     -0.360287    32A     -0.358955

  @DF-RHF Final Energy:  -344.33142739947624

   => Energetics <=

    Nuclear Repulsion Energy =            419.5811835649483896
    One-Electron Energy =               -1298.0602492694044940
    Two-Electron Energy =                 534.1476383049799779
    Total Energy =                       -344.3314273994761834
  Basis Set: (AUG-CC-PVTZ AUX)
    Blend: AUG-CC-PVTZ-RI
    Molecular point group: c1

    Geometry (in Angstrom), charge = 0, multiplicity = 1:

       Center              X                  Y                   Z               Mass
    ------------   -----------------  -----------------  -----------------  -----------------
         N           -1.388037277083     0.001432423051    -0.338524647933    14.003074004430
         N            1.389558722917     0.001432423051     0.339924352067    14.003074004430
         C            0.735192722917    -1.189367576949    -0.192507647933    12.000000000000
         C           -0.733671277083    -1.189366576949     0.193906352067    12.000000000000
         C            0.735193722917     1.192233423051    -0.192506647933    12.000000000000
         C           -0.733672277083     1.192233423051     0.193906352067    12.000000000000
         C           -2.806788277083     0.001431423051    -0.014173647933    12.000000000000
         C            2.808308722917     0.001431423051     0.015571352067    12.000000000000
         H            0.818644722917    -1.243201576949    -1.295038647933     1.007825032230
         H            1.228148722917    -2.074474576949     0.227062352067     1.007825032230
         H            1.228149722917     2.077340423051     0.227063352067     1.007825032230
         H            0.818644722917     1.246068423051    -1.295037647933     1.007825032230
         H           -1.226627277083    -2.074474576949    -0.225661647933     1.007825032230
         H           -0.817123277083    -1.243201576949     1.296437352067     1.007825032230
         H           -0.817122277083     1.246067423051     1.296437352067     1.007825032230
         H           -1.226628277083     2.077340423051    -0.225662647933     1.007825032230
         H           -3.277808277083     0.888533423051    -0.447320647933     1.007825032230
         H           -2.997716277083     0.001431423051     1.074385352067     1.007825032230
         H           -3.363932777083    -1.047874276949    -0.526518947933     1.007825032230
         H            2.999235722917     0.001431423051    -1.072988647933     1.007825032230
         H            3.279329722917    -0.885670576949     0.448716352067     1.007825032230
         H            3.279330722917     0.888533423051     0.448716352067     1.007825032230

  Basis Set: AUG-CC-PVTZ
    Blend: AUG-CC-PVTZ
  Basis Set: (AUG-CC-PVTZ AUX)
    Blend: AUG-CC-PVTZ-JKFIT
	 Reference Energy          =    -344.3314273994762402 [Eh]
	 Singles Energy            =      -0.0000000000000000 [Eh]
	 Same-Spin Energy          =      -0.3690393689643803 [Eh]
	 Opposite-Spin Energy      =      -1.2720409407908204 [Eh]
	 Correlation Energy        =      -1.6410803097552007 [Eh]
	 Total Energy              =    -345.9725077092314223 [Eh]

	 ================> DF-SCS-MP2 Energies <==================
	-----------------------------------------------------------
	 SCS Same-Spin Scale       =       0.3333333333333333 [-]
	 SCS Opposite-Spin Scale   =       1.2000000000000000 [-]
	 SCS Same-Spin Energy      =      -0.1230131229881268 [Eh]
	 SCS Opposite-Spin Energy  =      -1.5264491289489845 [Eh]
	 SCS Correlation Energy    =      -1.6494622519371114 [Eh]
	 SCS Total Energy          =    -345.9808896514133494 [Eh]
	-----------------------------------------------------------

  Dipole Moment: [D]
     X:     0.1375      Y:     0.1132      Z:     0.0497     Total:     0.1850

*** Psi4 exiting successfully. Buy a developer a beer!
