                               Psi4 1.4a3.dev225

  ==> Input File <==

--------------------------------------------------------------------------
#psi4
#
memory 32 gb

molecule  {
0 1
  N       -1.3887980     0.0000000    -0.3392240
  N        1.3887980     0.0000000     0.3392250
  C        0.7344320    -1.1908000    -0.1932070
  C       -0.7344320    -1.1907990     0.1932070
  C        0.7344330     1.1908010    -0.1932060
  C       -0.7344330     1.1908010     0.1932070
  C       -2.8075490    -0.0000010    -0.0148730
  C        2.8075480    -0.0000010     0.0148720
  H        0.8178840    -1.2446340    -1.2957380
  H        1.2273880    -2.0759070     0.2263630
  H        1.2273890     2.0759080     0.2263640
  H        0.8178840     1.2446360    -1.2957370
  H       -1.2273880    -2.0759070    -0.2263610
  H       -0.8178840    -1.2446340     1.2957380
  H       -0.8178830     1.2446350     1.2957380
  H       -1.2273890     2.0759080    -0.2263620
  H       -3.2785690     0.8871010    -0.4480200
  H       -2.9984770    -0.0000010     1.0736860
  H       -3.2699566    -0.8708826    -0.4400991
  H        2.9984750    -0.0000010    -1.0736880
  H        3.2785690    -0.8871030     0.4480170
  H        3.2785700     0.8871010     0.4480170
units angstrom
no_reorient  #important for SAPT in psi4, default
symmetry c1  #important for SAPT in psi4, default
}

set PROPERTIES_ORIGIN ["COM"]
properties('MP2/aug-cc-pvtz', properties = ['dipole'])
--------------------------------------------------------------------------

    Molecular point group: c1
  Charge       = 0
  Multiplicity = 1
  Basis Set: AUG-CC-PVTZ
    Blend: AUG-CC-PVTZ
  Basis Set: (AUG-CC-PVTZ AUX)
    Blend: AUG-CC-PVTZ-JKFIT

    Orbital Energies [Eh]
    ---------------------

    Doubly Occupied:

       1A    -15.544981     2A    -15.544819     3A    -11.242951
       4A    -11.242804     5A    -11.242306     6A    -11.242155
       7A    -11.240064     8A    -11.237634     9A     -1.254411
      10A     -1.202712    11A     -1.022256    12A     -0.989391
      13A     -0.908042    14A     -0.861940    15A     -0.833803
      16A     -0.756604    17A     -0.663263    18A     -0.632618
      19A     -0.628312    20A     -0.625413    21A     -0.621310
      22A     -0.579604    23A     -0.548859    24A     -0.541494
      25A     -0.541007    26A     -0.516561    27A     -0.495984
      28A     -0.489315    29A     -0.461406    30A     -0.454233
      31A     -0.359098    32A     -0.357791

  @DF-RHF Final Energy:  -344.35158631940777

   => Energetics <=

    Nuclear Repulsion Energy =            420.4853979678306359
    One-Electron Energy =               -1299.9076864440239660
    Two-Electron Energy =                 535.0707021567856145
    Total Energy =                       -344.3515863194077156
  Basis Set: (AUG-CC-PVTZ AUX)
    Blend: AUG-CC-PVTZ-RI
    Molecular point group: c1

    Geometry (in Angstrom), charge = 0, multiplicity = 1:

       Center              X                  Y                   Z               Mass
    ------------   -----------------  -----------------  -----------------  -----------------
         N           -1.388873956178    -0.000143348527    -0.339294050493    14.003074004430
         N            1.388722043822    -0.000143348527     0.339154949507    14.003074004430
         C            0.734356043822    -1.190943348527    -0.193277050493    12.000000000000
         C           -0.734507956178    -1.190942348527     0.193136949507    12.000000000000
         C            0.734357043822     1.190657651473    -0.193276050493    12.000000000000
         C           -0.734508956178     1.190657651473     0.193136949507    12.000000000000
         C           -2.807624956178    -0.000144348527    -0.014943050493    12.000000000000
         C            2.807472043822    -0.000144348527     0.014801949507    12.000000000000
         H            0.817808043822    -1.244777348527    -1.295808050493     1.007825032230
         H            1.227312043822    -2.076050348527     0.226292949507     1.007825032230
         H            1.227313043822     2.075764651473     0.226293949507     1.007825032230
         H            0.817808043822     1.244492651473    -1.295807050493     1.007825032230
         H           -1.227463956178    -2.076050348527    -0.226431050493     1.007825032230
         H           -0.817959956178    -1.244777348527     1.295667949507     1.007825032230
         H           -0.817958956178     1.244491651473     1.295667949507     1.007825032230
         H           -1.227464956178     2.075764651473    -0.226432050493     1.007825032230
         H           -3.278644956178     0.886957651473    -0.448090050493     1.007825032230
         H           -2.998552956178    -0.000144348527     1.073615949507     1.007825032230
         H           -3.270032556178    -0.871025948527    -0.440169150493     1.007825032230
         H            2.998399043822    -0.000144348527    -1.073758050493     1.007825032230
         H            3.278493043822    -0.887246348527     0.447946949507     1.007825032230
         H            3.278494043822     0.886957651473     0.447946949507     1.007825032230

  Basis Set: AUG-CC-PVTZ
    Blend: AUG-CC-PVTZ
  Basis Set: (AUG-CC-PVTZ AUX)
    Blend: AUG-CC-PVTZ-JKFIT
	 Reference Energy          =    -344.3515863194077724 [Eh]
	 Singles Energy            =      -0.0000000000000000 [Eh]
	 Same-Spin Energy          =      -0.3689234834997751 [Eh]
	 Opposite-Spin Energy      =      -1.2702469165851786 [Eh]
	 Correlation Energy        =      -1.6391704000849536 [Eh]
	 Total Energy              =    -345.9907567194927083 [Eh]

	 ================> DF-SCS-MP2 Energies <==================
	-----------------------------------------------------------
	 SCS Same-Spin Scale       =       0.3333333333333333 [-]
	 SCS Opposite-Spin Scale   =       1.2000000000000000 [-]
	 SCS Same-Spin Energy      =      -0.1229744944999250 [Eh]
	 SCS Opposite-Spin Energy  =      -1.5242962999022143 [Eh]
	 SCS Correlation Energy    =      -1.6472707944021392 [Eh]
	 SCS Total Energy          =    -345.9988571138098905 [Eh]
	-----------------------------------------------------------

  Dipole Moment: [D]
     X:    -0.0107      Y:    -0.0086      Z:    -0.0035     Total:     0.0142

*** Psi4 exiting successfully. Buy a developer a beer!
