                               Psi4 1.4a3.dev225

  ==> Input File <==

--------------------------------------------------------------------------
#psi4
#
memory 32 gb

molecule  {
0 1
  N       -1.3887980     0.0000000    -0.3392240
  N        1.3887980     0.0000000     0.3392250
  C        0.7344320    -1.1908000    -0.1932070
  C       -0.7344320    -1.1907990     0.1932070
  C        0.7344330     1.1908010    -0.1932060
  C       -0.7344330     1.1908010     0.1932070
  C       -2.8075490    -0.0000010    -0.0148730
  C        2.8075480    -0.0000010     0.0148720
  H        0.8178840    -1.2446340    -1.2957380
  H        1.2273880    -2.0759070     0.2263630
  H        1.2273890     2.0759080     0.2263640
  H        0.8178840     1.2446360    -1.2957370
  H       -1.2273880    -2.0759070    -0.2263610
  H       -0.8178840    -1.2446340     1.2957380
  H       -0.8178830     1.2446350     1.2957380
  H       -1.2273890     2.0759080    -0.2263620
  H       -3.2785690     0.8871010    -0.4480200
  H       -2.9984770    -0.0000010     1.0736860
  H       -3.2785690    -0.8871030    -0.4480190
  H        2.9984750    -0.0000010    -1.0736880
  H        3.2785690    -0.8871030     0.4480170
  H        3.2785700     0.8871010     0.4480170
units angstrom
no_reorient  #important for SAPT in psi4, default
symmetry c1  #important for SAPT in psi4, default
}

set PROPERTIES_ORIGIN ["COM"]
properties('MP2/aug-cc-pvtz', properties = ['dipole'])
--------------------------------------------------------------------------

    Molecular point group: c1
  Charge       = 0
  Multiplicity = 1
  Basis Set: AUG-CC-PVTZ
    Blend: AUG-CC-PVTZ
  Basis Set: (AUG-CC-PVTZ AUX)
    Blend: AUG-CC-PVTZ-JKFIT

    Orbital Energies [Eh]
    ---------------------

    Doubly Occupied:

       1A    -15.545043     2A    -15.545040     3A    -11.242978
       4A    -11.242961     5A    -11.242329     6A    -11.242320
       7A    -11.240112     8A    -11.240112     9A     -1.254489
      10A     -1.202744    11A     -1.022337    12A     -0.988869
      13A     -0.906971    14A     -0.861991    15A     -0.833336
      16A     -0.756678    17A     -0.663198    18A     -0.632530
      19A     -0.627681    20A     -0.625364    21A     -0.621116
      22A     -0.579755    23A     -0.547477    24A     -0.541106
      25A     -0.541059    26A     -0.516481    27A     -0.495420
      28A     -0.489225    29A     -0.461405    30A     -0.454298
      31A     -0.359177    32A     -0.357876

  @DF-RHF Final Energy:  -344.35154639511910

   => Energetics <=

    Nuclear Repulsion Energy =            420.3938187569598313
    One-Electron Energy =               -1299.7277717701022084
    Two-Electron Energy =                 534.9824066180233331
    Total Energy =                       -344.3515463951190441
  Basis Set: (AUG-CC-PVTZ AUX)
    Blend: AUG-CC-PVTZ-RI
    Molecular point group: c1

    Geometry (in Angstrom), charge = 0, multiplicity = 1:

       Center              X                  Y                   Z               Mass
    ------------   -----------------  -----------------  -----------------  -----------------
         N           -1.388797894844    -0.000000096325    -0.339224105046    14.003074004430
         N            1.388798105156    -0.000000096325     0.339224894954    14.003074004430
         C            0.734432105156    -1.190800096325    -0.193207105046    12.000000000000
         C           -0.734431894844    -1.190799096325     0.193206894954    12.000000000000
         C            0.734433105156     1.190800903675    -0.193206105046    12.000000000000
         C           -0.734432894844     1.190800903675     0.193206894954    12.000000000000
         C           -2.807548894844    -0.000001096325    -0.014873105046    12.000000000000
         C            2.807548105156    -0.000001096325     0.014871894954    12.000000000000
         H            0.817884105156    -1.244634096325    -1.295738105046     1.007825032230
         H            1.227388105156    -2.075907096325     0.226362894954     1.007825032230
         H            1.227389105156     2.075907903675     0.226363894954     1.007825032230
         H            0.817884105156     1.244635903675    -1.295737105046     1.007825032230
         H           -1.227387894844    -2.075907096325    -0.226361105046     1.007825032230
         H           -0.817883894844    -1.244634096325     1.295737894954     1.007825032230
         H           -0.817882894844     1.244634903675     1.295737894954     1.007825032230
         H           -1.227388894844     2.075907903675    -0.226362105046     1.007825032230
         H           -3.278568894844     0.887100903675    -0.448020105046     1.007825032230
         H           -2.998476894844    -0.000001096325     1.073685894954     1.007825032230
         H           -3.278568894844    -0.887103096325    -0.448019105046     1.007825032230
         H            2.998475105156    -0.000001096325    -1.073688105046     1.007825032230
         H            3.278569105156    -0.887103096325     0.448016894954     1.007825032230
         H            3.278570105156     0.887100903675     0.448016894954     1.007825032230

  Basis Set: AUG-CC-PVTZ
    Blend: AUG-CC-PVTZ
  Basis Set: (AUG-CC-PVTZ AUX)
    Blend: AUG-CC-PVTZ-JKFIT
	 Reference Energy          =    -344.3515463951191009 [Eh]
	 Singles Energy            =      -0.0000000000000000 [Eh]
	 Same-Spin Energy          =      -0.3689319837036929 [Eh]
	 Opposite-Spin Energy      =      -1.2703725169063917 [Eh]
	 Correlation Energy        =      -1.6393045006100846 [Eh]
	 Total Energy              =    -345.9908508957291815 [Eh]

	 ================> DF-SCS-MP2 Energies <==================
	-----------------------------------------------------------
	 SCS Same-Spin Scale       =       0.3333333333333333 [-]
	 SCS Opposite-Spin Scale   =       1.2000000000000000 [-]
	 SCS Same-Spin Energy      =      -0.1229773279012310 [Eh]
	 SCS Opposite-Spin Energy  =      -1.5244470202876701 [Eh]
	 SCS Correlation Energy    =      -1.6474243481889010 [Eh]
	 SCS Total Energy          =    -345.9989707433080071 [Eh]
	-----------------------------------------------------------

  Dipole Moment: [D]
     X:    -0.0000      Y:     0.0000      Z:    -0.0000     Total:     0.0000

*** Psi4 exiting successfully. Buy a developer a beer!
