                               Psi4 1.4a3.dev225

  ==> Input File <==

--------------------------------------------------------------------------
#psi4
#
memory 32 gb

molecule  {
0 1
  N       -1.3833534     0.0000000    -0.3144140
  N        1.3887980     0.0000000     0.3392250
  C        0.7344320    -1.1908000    -0.1932070
  C       -0.7344320    -1.1907990     0.1932070
  C        0.7344330     1.1908010    -0.1932060
  C       -0.7344330     1.1908010     0.1932070
  C       -2.8075490    -0.0000010    -0.0148730
  C        2.8075480    -0.0000010     0.0148720
  H        0.8178840    -1.2446340    -1.2957380
  H        1.2273880    -2.0759070     0.2263630
  H        1.2273890     2.0759080     0.2263640
  H        0.8178840     1.2446360    -1.2957370
  H       -1.2273880    -2.0759070    -0.2263610
  H       -0.8178840    -1.2446340     1.2957380
  H       -0.8178830     1.2446350     1.2957380
  H       -1.2273890     2.0759080    -0.2263620
  H       -3.2785690     0.8871010    -0.4480200
  H       -2.9984770    -0.0000010     1.0736860
  H       -3.2785690    -0.8871030    -0.4480190
  H        2.9984750    -0.0000010    -1.0736880
  H        3.2785690    -0.8871030     0.4480170
  H        3.2785700     0.8871010     0.4480170
units angstrom
no_reorient  #important for SAPT in psi4, default
symmetry c1  #important for SAPT in psi4, default
}

set PROPERTIES_ORIGIN ["COM"]
properties('MP2/aug-cc-pvtz', properties = ['dipole'])
--------------------------------------------------------------------------

    Molecular point group: c1
  Charge       = 0
  Multiplicity = 1
  Basis Set: AUG-CC-PVTZ
    Blend: AUG-CC-PVTZ
  Basis Set: (AUG-CC-PVTZ AUX)
    Blend: AUG-CC-PVTZ-JKFIT

    Orbital Energies [Eh]
    ---------------------

    Doubly Occupied:

       1A    -15.545042     2A    -15.542558     3A    -11.242787
       4A    -11.242770     5A    -11.241998     6A    -11.241987
       7A    -11.240586     8A    -11.240091     9A     -1.256411
      10A     -1.204137    11A     -1.023158    12A     -0.988896
      13A     -0.907853    14A     -0.863707    15A     -0.833487
      16A     -0.755721    17A     -0.663945    18A     -0.633785
      19A     -0.628903    20A     -0.624906    21A     -0.621904
      22A     -0.579189    23A     -0.547593    24A     -0.542720
      25A     -0.542620    26A     -0.516200    27A     -0.495747
      28A     -0.489499    29A     -0.464126    30A     -0.454681
      31A     -0.358720    32A     -0.353561

  @DF-RHF Final Energy:  -344.35195308340724

   => Energetics <=

    Nuclear Repulsion Energy =            420.7617275146745328
    One-Electron Energy =               -1300.4487820534268394
    Two-Electron Energy =                 535.3351014553451250
    Total Energy =                       -344.3519530834072384
  Basis Set: (AUG-CC-PVTZ AUX)
    Blend: AUG-CC-PVTZ-RI
    Molecular point group: c1

    Geometry (in Angstrom), charge = 0, multiplicity = 1:

       Center              X                  Y                   Z               Mass
    ------------   -----------------  -----------------  -----------------  -----------------
         N           -1.384021398687    -0.000000096325    -0.317458526372    14.003074004430
         N            1.388130001313    -0.000000096325     0.336180473628    14.003074004430
         C            0.733764001313    -1.190800096325    -0.196251526372    12.000000000000
         C           -0.735099998687    -1.190799096325     0.190162473628    12.000000000000
         C            0.733765001313     1.190800903675    -0.196250526372    12.000000000000
         C           -0.735100998687     1.190800903675     0.190162473628    12.000000000000
         C           -2.808216998687    -0.000001096325    -0.017917526372    12.000000000000
         C            2.806880001313    -0.000001096325     0.011827473628    12.000000000000
         H            0.817216001313    -1.244634096325    -1.298782526372     1.007825032230
         H            1.226720001313    -2.075907096325     0.223318473628     1.007825032230
         H            1.226721001313     2.075907903675     0.223319473628     1.007825032230
         H            0.817216001313     1.244635903675    -1.298781526372     1.007825032230
         H           -1.228055998687    -2.075907096325    -0.229405526372     1.007825032230
         H           -0.818551998687    -1.244634096325     1.292693473628     1.007825032230
         H           -0.818550998687     1.244634903675     1.292693473628     1.007825032230
         H           -1.228056998687     2.075907903675    -0.229406526372     1.007825032230
         H           -3.279236998687     0.887100903675    -0.451064526372     1.007825032230
         H           -2.999144998687    -0.000001096325     1.070641473628     1.007825032230
         H           -3.279236998687    -0.887103096325    -0.451063526372     1.007825032230
         H            2.997807001313    -0.000001096325    -1.076732526372     1.007825032230
         H            3.277901001313    -0.887103096325     0.444972473628     1.007825032230
         H            3.277902001313     0.887100903675     0.444972473628     1.007825032230

  Basis Set: AUG-CC-PVTZ
    Blend: AUG-CC-PVTZ
  Basis Set: (AUG-CC-PVTZ AUX)
    Blend: AUG-CC-PVTZ-JKFIT
	 Reference Energy          =    -344.3519530834072384 [Eh]
	 Singles Energy            =      -0.0000000000000000 [Eh]
	 Same-Spin Energy          =      -0.3689253888173548 [Eh]
	 Opposite-Spin Energy      =      -1.2699682553166443 [Eh]
	 Correlation Energy        =      -1.6388936441339990 [Eh]
	 Total Energy              =    -345.9908467275412249 [Eh]

	 ================> DF-SCS-MP2 Energies <==================
	-----------------------------------------------------------
	 SCS Same-Spin Scale       =       0.3333333333333333 [-]
	 SCS Opposite-Spin Scale   =       1.2000000000000000 [-]
	 SCS Same-Spin Energy      =      -0.1229751296057849 [Eh]
	 SCS Opposite-Spin Energy  =      -1.5239619063799730 [Eh]
	 SCS Correlation Energy    =      -1.6469370359857578 [Eh]
	 SCS Total Energy          =    -345.9988901193929678 [Eh]
	-----------------------------------------------------------

  Dipole Moment: [D]
     X:    -0.0172      Y:     0.0000      Z:    -0.0762     Total:     0.0781

*** Psi4 exiting successfully. Buy a developer a beer!
