                               Psi4 1.4a3.dev225

  ==> Input File <==

--------------------------------------------------------------------------
#psi4
#
memory 32 gb

molecule  {
0 1
  N       -1.3887980     0.0000000    -0.3392240
  N        1.3887980     0.0000000     0.3392250
  C        0.7434000    -1.1744803    -0.1859101
  C       -0.7344320    -1.1907990     0.1932070
  C        0.7344330     1.1908010    -0.1932060
  C       -0.7344330     1.1908010     0.1932070
  C       -2.8075490    -0.0000010    -0.0148730
  C        2.8075480    -0.0000010     0.0148720
  H        0.8178840    -1.2446340    -1.2957380
  H        1.2273880    -2.0759070     0.2263630
  H        1.2273890     2.0759080     0.2263640
  H        0.8178840     1.2446360    -1.2957370
  H       -1.2273880    -2.0759070    -0.2263610
  H       -0.8178840    -1.2446340     1.2957380
  H       -0.8178830     1.2446350     1.2957380
  H       -1.2273890     2.0759080    -0.2263620
  H       -3.2785690     0.8871010    -0.4480200
  H       -2.9984770    -0.0000010     1.0736860
  H       -3.2785690    -0.8871030    -0.4480190
  H        2.9984750    -0.0000010    -1.0736880
  H        3.2785690    -0.8871030     0.4480170
  H        3.2785700     0.8871010     0.4480170
units angstrom
no_reorient  #important for SAPT in psi4, default
symmetry c1  #important for SAPT in psi4, default
}

set PROPERTIES_ORIGIN ["COM"]
properties('MP2/aug-cc-pvtz', properties = ['dipole'])
--------------------------------------------------------------------------

    Molecular point group: c1
  Charge       = 0
  Multiplicity = 1
  Basis Set: AUG-CC-PVTZ
    Blend: AUG-CC-PVTZ
  Basis Set: (AUG-CC-PVTZ AUX)
    Blend: AUG-CC-PVTZ-JKFIT

    Orbital Energies [Eh]
    ---------------------

    Doubly Occupied:

       1A    -15.545426     2A    -15.544812     3A    -11.243450
       4A    -11.243125     5A    -11.242714     6A    -11.242436
       7A    -11.240720     8A    -11.239964     9A     -1.256844
      10A     -1.205053    11A     -1.021717    12A     -0.988737
      13A     -0.907916    14A     -0.862879    15A     -0.833354
      16A     -0.756299    17A     -0.663925    18A     -0.632591
      19A     -0.628986    20A     -0.624784    21A     -0.621527
      22A     -0.580841    23A     -0.547463    24A     -0.541531
      25A     -0.540870    26A     -0.516228    27A     -0.495883
      28A     -0.487516    29A     -0.463054    30A     -0.453232
      31A     -0.359459    32A     -0.357627

  @DF-RHF Final Energy:  -344.35114154111739

   => Energetics <=

    Nuclear Repulsion Energy =            420.6592030779718812
    One-Electron Energy =               -1300.2387642269106891
    Two-Electron Energy =                 535.2284196078214791
    Total Energy =                       -344.3511415411173857
  Basis Set: (AUG-CC-PVTZ AUX)
    Blend: AUG-CC-PVTZ-RI
    Molecular point group: c1

    Geometry (in Angstrom), charge = 0, multiplicity = 1:

       Center              X                  Y                   Z               Mass
    ------------   -----------------  -----------------  -----------------  -----------------
         N           -1.389740937750    -0.001716217793    -0.339991421035    14.003074004430
         N            1.387855062250    -0.001716217793     0.338457578965    14.003074004430
         C            0.742457062250    -1.176196517793    -0.186677521035    12.000000000000
         C           -0.735374937750    -1.192515217793     0.192439578965    12.000000000000
         C            0.733490062250     1.189084782207    -0.193973421035    12.000000000000
         C           -0.735375937750     1.189084782207     0.192439578965    12.000000000000
         C           -2.808491937750    -0.001717217793    -0.015640421035    12.000000000000
         C            2.806605062250    -0.001717217793     0.014104578965    12.000000000000
         H            0.816941062250    -1.246350217793    -1.296505421035     1.007825032230
         H            1.226445062250    -2.077623217793     0.225595578965     1.007825032230
         H            1.226446062250     2.074191782207     0.225596578965     1.007825032230
         H            0.816941062250     1.242919782207    -1.296504421035     1.007825032230
         H           -1.228330937750    -2.077623217793    -0.227128421035     1.007825032230
         H           -0.818826937750    -1.246350217793     1.294970578965     1.007825032230
         H           -0.818825937750     1.242918782207     1.294970578965     1.007825032230
         H           -1.228331937750     2.074191782207    -0.227129421035     1.007825032230
         H           -3.279511937750     0.885384782207    -0.448787421035     1.007825032230
         H           -2.999419937750    -0.001717217793     1.072918578965     1.007825032230
         H           -3.279511937750    -0.888819217793    -0.448786421035     1.007825032230
         H            2.997532062250    -0.001717217793    -1.074455421035     1.007825032230
         H            3.277626062250    -0.888819217793     0.447249578965     1.007825032230
         H            3.277627062250     0.885384782207     0.447249578965     1.007825032230

  Basis Set: AUG-CC-PVTZ
    Blend: AUG-CC-PVTZ
  Basis Set: (AUG-CC-PVTZ AUX)
    Blend: AUG-CC-PVTZ-JKFIT
	 Reference Energy          =    -344.3511415411173857 [Eh]
	 Singles Energy            =      -0.0000000000000000 [Eh]
	 Same-Spin Energy          =      -0.3690422823187613 [Eh]
	 Opposite-Spin Energy      =      -1.2703713248034705 [Eh]
	 Correlation Energy        =      -1.6394136071222318 [Eh]
	 Total Energy              =    -345.9905551482395936 [Eh]

	 ================> DF-SCS-MP2 Energies <==================
	-----------------------------------------------------------
	 SCS Same-Spin Scale       =       0.3333333333333333 [-]
	 SCS Opposite-Spin Scale   =       1.2000000000000000 [-]
	 SCS Same-Spin Energy      =      -0.1230140941062538 [Eh]
	 SCS Opposite-Spin Energy  =      -1.5244455897641644 [Eh]
	 SCS Correlation Energy    =      -1.6474596838704183 [Eh]
	 SCS Total Energy          =    -345.9986012249877945 [Eh]
	-----------------------------------------------------------

  Dipole Moment: [D]
     X:     0.0217      Y:     0.0398      Z:     0.0205     Total:     0.0497

*** Psi4 exiting successfully. Buy a developer a beer!
