                               Psi4 1.4a3.dev225

  ==> Input File <==

--------------------------------------------------------------------------
#psi4
#
memory 32 gb

molecule  {
0 1
  N       -1.3887980     0.0000000    -0.3392240
  N        1.3887980     0.0000000     0.3392250
  C        0.7344320    -1.1908000    -0.1932070
  C       -0.7344320    -1.1907990     0.1932070
  C        0.7344330     1.1908010    -0.1932060
  C       -0.7344330     1.1908010     0.1932070
  C       -2.8075490    -0.0000010    -0.0148730
  C        2.8075480    -0.0000010     0.0148720
  H        0.8178840    -1.2446340    -1.2957380
  H        1.2273880    -2.0759070     0.2263630
  H        1.2433789     2.0976455     0.1547395
  H        0.8178840     1.2446360    -1.2957370
  H       -1.2273880    -2.0759070    -0.2263610
  H       -0.8178840    -1.2446340     1.2957380
  H       -0.8178830     1.2446350     1.2957380
  H       -1.2273890     2.0759080    -0.2263620
  H       -3.2785690     0.8871010    -0.4480200
  H       -2.9984770    -0.0000010     1.0736860
  H       -3.2785690    -0.8871030    -0.4480190
  H        2.9984750    -0.0000010    -1.0736880
  H        3.2785690    -0.8871030     0.4480170
  H        3.2785700     0.8871010     0.4480170
units angstrom
no_reorient  #important for SAPT in psi4, default
symmetry c1  #important for SAPT in psi4, default
}

set PROPERTIES_ORIGIN ["COM"]
properties('MP2/aug-cc-pvtz', properties = ['dipole'])
--------------------------------------------------------------------------

    Molecular point group: c1
  Charge       = 0
  Multiplicity = 1
  Basis Set: AUG-CC-PVTZ
    Blend: AUG-CC-PVTZ
  Basis Set: (AUG-CC-PVTZ AUX)
    Blend: AUG-CC-PVTZ-JKFIT

    Orbital Energies [Eh]
    ---------------------

    Doubly Occupied:

       1A    -15.545567     2A    -15.545188     3A    -11.243195
       4A    -11.243171     5A    -11.242519     6A    -11.242452
       7A    -11.240199     8A    -11.240181     9A     -1.254502
      10A     -1.202816    11A     -1.022152    12A     -0.988859
      13A     -0.907035    14A     -0.862322    15A     -0.833660
      16A     -0.757778    17A     -0.663727    18A     -0.632135
      19A     -0.627688    20A     -0.624477    21A     -0.620912
      22A     -0.580005    23A     -0.547000    24A     -0.542828
      25A     -0.540912    26A     -0.515665    27A     -0.494693
      28A     -0.488596    29A     -0.462254    30A     -0.454812
      31A     -0.359003    32A     -0.357692

  @DF-RHF Final Energy:  -344.35098712788886

   => Energetics <=

    Nuclear Repulsion Energy =            420.3365737810692053
    One-Electron Energy =               -1299.6071363520131854
    Two-Electron Energy =                 534.9195754430551233
    Total Energy =                       -344.3509871278888568
  Basis Set: (AUG-CC-PVTZ AUX)
    Blend: AUG-CC-PVTZ-RI
    Molecular point group: c1

    Geometry (in Angstrom), charge = 0, multiplicity = 1:

       Center              X                  Y                   Z               Mass
    ------------   -----------------  -----------------  -----------------  -----------------
         N           -1.388939111361    -0.000192073388    -0.338591545591    14.003074004430
         N            1.388656888639    -0.000192073388     0.339857454409    14.003074004430
         C            0.734290888639    -1.190992073388    -0.192574545591    12.000000000000
         C           -0.734573111361    -1.190991073388     0.193839454409    12.000000000000
         C            0.734291888639     1.190608926612    -0.192573545591    12.000000000000
         C           -0.734574111361     1.190608926612     0.193839454409    12.000000000000
         C           -2.807690111361    -0.000193073388    -0.014240545591    12.000000000000
         C            2.807406888639    -0.000193073388     0.015504454409    12.000000000000
         H            0.817742888639    -1.244826073388    -1.295105545591     1.007825032230
         H            1.227246888639    -2.076099073388     0.226995454409     1.007825032230
         H            1.243237788639     2.097453426612     0.155371954409     1.007825032230
         H            0.817742888639     1.244443926612    -1.295104545591     1.007825032230
         H           -1.227529111361    -2.076099073388    -0.225728545591     1.007825032230
         H           -0.818025111361    -1.244826073388     1.296370454409     1.007825032230
         H           -0.818024111361     1.244442926612     1.296370454409     1.007825032230
         H           -1.227530111361     2.075715926612    -0.225729545591     1.007825032230
         H           -3.278710111361     0.886908926612    -0.447387545591     1.007825032230
         H           -2.998618111361    -0.000193073388     1.074318454409     1.007825032230
         H           -3.278710111361    -0.887295073388    -0.447386545591     1.007825032230
         H            2.998333888639    -0.000193073388    -1.073055545591     1.007825032230
         H            3.278427888639    -0.887295073388     0.448649454409     1.007825032230
         H            3.278428888639     0.886908926612     0.448649454409     1.007825032230

  Basis Set: AUG-CC-PVTZ
    Blend: AUG-CC-PVTZ
  Basis Set: (AUG-CC-PVTZ AUX)
    Blend: AUG-CC-PVTZ-JKFIT
	 Reference Energy          =    -344.3509871278888568 [Eh]
	 Singles Energy            =      -0.0000000000000000 [Eh]
	 Same-Spin Energy          =      -0.3689253066998739 [Eh]
	 Opposite-Spin Energy      =      -1.2703052196923481 [Eh]
	 Correlation Energy        =      -1.6392305263922220 [Eh]
	 Total Energy              =    -345.9902176542810821 [Eh]

	 ================> DF-SCS-MP2 Energies <==================
	-----------------------------------------------------------
	 SCS Same-Spin Scale       =       0.3333333333333333 [-]
	 SCS Opposite-Spin Scale   =       1.2000000000000000 [-]
	 SCS Same-Spin Energy      =      -0.1229751022332913 [Eh]
	 SCS Opposite-Spin Energy  =      -1.5243662636308177 [Eh]
	 SCS Correlation Energy    =      -1.6473413658641090 [Eh]
	 SCS Total Energy          =    -345.9983284937529788 [Eh]
	-----------------------------------------------------------

  Dipole Moment: [D]
     X:     0.0087      Y:     0.0047      Z:    -0.0158     Total:     0.0186

*** Psi4 exiting successfully. Buy a developer a beer!
