                               Psi4 1.4a3.dev225

  ==> Input File <==

--------------------------------------------------------------------------
#psi4
#
memory 32 gb

molecule  {
0 1
  N       -1.4201891    -0.0301642    -0.3656703
  N        1.3887980     0.0000000     0.3392250
  C        0.7344320    -1.1908000    -0.1932070
  C       -0.7344320    -1.1907990     0.1932070
  C        0.7344330     1.1908010    -0.1932060
  C       -0.7344330     1.1908010     0.1932070
  C       -2.8075490    -0.0000010    -0.0148730
  C        2.8075480    -0.0000010     0.0148720
  H        0.8178840    -1.2446340    -1.2957380
  H        1.2273880    -2.0759070     0.2263630
  H        1.2273890     2.0759080     0.2263640
  H        0.8178840     1.2446360    -1.2957370
  H       -1.2273880    -2.0759070    -0.2263610
  H       -0.8178840    -1.2446340     1.2957380
  H       -0.8178830     1.2446350     1.2957380
  H       -1.2273890     2.0759080    -0.2263620
  H       -3.2785690     0.8871010    -0.4480200
  H       -2.9984770    -0.0000010     1.0736860
  H       -3.2785690    -0.8871030    -0.4480190
  H        2.9984750    -0.0000010    -1.0736880
  H        3.2785690    -0.8871030     0.4480170
  H        3.2785700     0.8871010     0.4480170
units angstrom
no_reorient  #important for SAPT in psi4, default
symmetry c1  #important for SAPT in psi4, default
}

set PROPERTIES_ORIGIN ["COM"]
properties('MP2/aug-cc-pvtz', properties = ['dipole'])
--------------------------------------------------------------------------

    Molecular point group: c1
  Charge       = 0
  Multiplicity = 1
  Basis Set: AUG-CC-PVTZ
    Blend: AUG-CC-PVTZ
  Basis Set: (AUG-CC-PVTZ AUX)
    Blend: AUG-CC-PVTZ-JKFIT

    Orbital Energies [Eh]
    ---------------------

    Doubly Occupied:

       1A    -15.547378     2A    -15.545535     3A    -11.245832
       4A    -11.243976     5A    -11.243499     6A    -11.242302
       7A    -11.240570     8A    -11.237720     9A     -1.252037
      10A     -1.202852    11A     -1.020980    12A     -0.991570
      13A     -0.906088    14A     -0.859735    15A     -0.832234
      16A     -0.758085    17A     -0.662706    18A     -0.632356
      19A     -0.627439    20A     -0.625753    21A     -0.620600
      22A     -0.583173    23A     -0.547787    24A     -0.540589
      25A     -0.536846    26A     -0.516835    27A     -0.494701
      28A     -0.489300    29A     -0.460648    30A     -0.451394
      31A     -0.362511    32A     -0.359116

  @DF-RHF Final Energy:  -344.34857735829269

   => Energetics <=

    Nuclear Repulsion Energy =            419.7391322712315400
    One-Electron Energy =               -1298.4111224706248322
    Two-Electron Energy =                 534.3234128411006623
    Total Energy =                       -344.3485773582926868
  Basis Set: (AUG-CC-PVTZ AUX)
    Blend: AUG-CC-PVTZ-RI
    Molecular point group: c1

    Geometry (in Angstrom), charge = 0, multiplicity = 1:

       Center              X                  Y                   Z               Mass
    ------------   -----------------  -----------------  -----------------  -----------------
         N           -1.416337010390    -0.026462864089    -0.362425194255    14.003074004430
         N            1.392650089610     0.003701335911     0.342470105745    14.003074004430
         C            0.738284089610    -1.187098664089    -0.189961894255    12.000000000000
         C           -0.730579910390    -1.187097664089     0.196452105745    12.000000000000
         C            0.738285089610     1.194502335911    -0.189960894255    12.000000000000
         C           -0.730580910390     1.194502335911     0.196452105745    12.000000000000
         C           -2.803696910390     0.003700335911    -0.011627894255    12.000000000000
         C            2.811400089610     0.003700335911     0.018117105745    12.000000000000
         H            0.821736089610    -1.240932664089    -1.292492894255     1.007825032230
         H            1.231240089610    -2.072205664089     0.229608105745     1.007825032230
         H            1.231241089610     2.079609335911     0.229609105745     1.007825032230
         H            0.821736089610     1.248337335911    -1.292491894255     1.007825032230
         H           -1.223535910390    -2.072205664089    -0.223115894255     1.007825032230
         H           -0.814031910390    -1.240932664089     1.298983105745     1.007825032230
         H           -0.814030910390     1.248336335911     1.298983105745     1.007825032230
         H           -1.223536910390     2.079609335911    -0.223116894255     1.007825032230
         H           -3.274716910390     0.890802335911    -0.444774894255     1.007825032230
         H           -2.994624910390     0.003700335911     1.076931105745     1.007825032230
         H           -3.274716910390    -0.883401664089    -0.444773894255     1.007825032230
         H            3.002327089610     0.003700335911    -1.070442894255     1.007825032230
         H            3.282421089610    -0.883401664089     0.451262105745     1.007825032230
         H            3.282422089610     0.890802335911     0.451262105745     1.007825032230

  Basis Set: AUG-CC-PVTZ
    Blend: AUG-CC-PVTZ
  Basis Set: (AUG-CC-PVTZ AUX)
    Blend: AUG-CC-PVTZ-JKFIT
	 Reference Energy          =    -344.3485773582926868 [Eh]
	 Singles Energy            =      -0.0000000000000000 [Eh]
	 Same-Spin Energy          =      -0.3689863719259106 [Eh]
	 Opposite-Spin Energy      =      -1.2708970130073278 [Eh]
	 Correlation Energy        =      -1.6398833849332384 [Eh]
	 Total Energy              =    -345.9884607432259145 [Eh]

	 ================> DF-SCS-MP2 Energies <==================
	-----------------------------------------------------------
	 SCS Same-Spin Scale       =       0.3333333333333333 [-]
	 SCS Opposite-Spin Scale   =       1.2000000000000000 [-]
	 SCS Same-Spin Energy      =      -0.1229954573086368 [Eh]
	 SCS Opposite-Spin Energy  =      -1.5250764156087933 [Eh]
	 SCS Correlation Energy    =      -1.6480718729174302 [Eh]
	 SCS Total Energy          =    -345.9966492312101423 [Eh]
	-----------------------------------------------------------

  Dipole Moment: [D]
     X:     0.1051      Y:     0.0796      Z:     0.0721     Total:     0.1503

*** Psi4 exiting successfully. Buy a developer a beer!
