                               Psi4 1.4a3.dev225

  ==> Input File <==

--------------------------------------------------------------------------
#psi4
#
memory 32 gb

molecule  {
0 1
  N       -1.3887980     0.0000000    -0.3392240
  N        1.3887980     0.0000000     0.3392250
  C        0.7120121    -1.2315992    -0.2114492
  C       -0.7344320    -1.1907990     0.1932070
  C        0.7344330     1.1908010    -0.1932060
  C       -0.7344330     1.1908010     0.1932070
  C       -2.8075490    -0.0000010    -0.0148730
  C        2.8075480    -0.0000010     0.0148720
  H        0.8178840    -1.2446340    -1.2957380
  H        1.2273880    -2.0759070     0.2263630
  H        1.2273890     2.0759080     0.2263640
  H        0.8178840     1.2446360    -1.2957370
  H       -1.2273880    -2.0759070    -0.2263610
  H       -0.8178840    -1.2446340     1.2957380
  H       -0.8178830     1.2446350     1.2957380
  H       -1.2273890     2.0759080    -0.2263620
  H       -3.2785690     0.8871010    -0.4480200
  H       -2.9984770    -0.0000010     1.0736860
  H       -3.2785690    -0.8871030    -0.4480190
  H        2.9984750    -0.0000010    -1.0736880
  H        3.2785690    -0.8871030     0.4480170
  H        3.2785700     0.8871010     0.4480170
units angstrom
no_reorient  #important for SAPT in psi4, default
symmetry c1  #important for SAPT in psi4, default
}

set PROPERTIES_ORIGIN ["COM"]
properties('MP2/aug-cc-pvtz', properties = ['dipole'])
--------------------------------------------------------------------------

    Molecular point group: c1
  Charge       = 0
  Multiplicity = 1
  Basis Set: AUG-CC-PVTZ
    Blend: AUG-CC-PVTZ
  Basis Set: (AUG-CC-PVTZ AUX)
    Blend: AUG-CC-PVTZ-JKFIT

    Orbital Energies [Eh]
    ---------------------

    Doubly Occupied:

       1A    -15.545647     2A    -15.543932     3A    -11.243016
       4A    -11.242247     5A    -11.242176     6A    -11.241129
       7A    -11.240494     8A    -11.238686     9A     -1.250048
      10A     -1.196747    11A     -1.024307    12A     -0.989055
      13A     -0.904948    14A     -0.860503    15A     -0.832710
      16A     -0.757590    17A     -0.661601    18A     -0.633526
      19A     -0.628034    20A     -0.623502    21A     -0.619833
      22A     -0.577453    23A     -0.548338    24A     -0.541315
      25A     -0.539502    26A     -0.517654    27A     -0.495325
      28A     -0.492766    29A     -0.461032    30A     -0.450954
      31A     -0.359256    32A     -0.357032

  @DF-RHF Final Energy:  -344.34930920507412

   => Energetics <=

    Nuclear Repulsion Energy =            419.7445011997649544
    One-Electron Energy =               -1298.4669032898023033
    Two-Electron Energy =                 534.3730928849632846
    Total Energy =                       -344.3493092050740643
  Basis Set: (AUG-CC-PVTZ AUX)
    Blend: AUG-CC-PVTZ-RI
    Molecular point group: c1

    Geometry (in Angstrom), charge = 0, multiplicity = 1:

       Center              X                  Y                   Z               Mass
    ------------   -----------------  -----------------  -----------------  -----------------
         N           -1.386440298092     0.004290202088    -0.337305820332    14.003074004430
         N            1.391155701908     0.004290202088     0.341143179668    14.003074004430
         C            0.714369801908    -1.227308997912    -0.209531020332    12.000000000000
         C           -0.732074298092    -1.186508797912     0.195125179668    12.000000000000
         C            0.736790701908     1.195091202088    -0.191287820332    12.000000000000
         C           -0.732075298092     1.195091202088     0.195125179668    12.000000000000
         C           -2.805191298092     0.004289202088    -0.012954820332    12.000000000000
         C            2.809905701908     0.004289202088     0.016790179668    12.000000000000
         H            0.820241701908    -1.240343797912    -1.293819820332     1.007825032230
         H            1.229745701908    -2.071616797912     0.228281179668     1.007825032230
         H            1.229746701908     2.080198202088     0.228282179668     1.007825032230
         H            0.820241701908     1.248926202088    -1.293818820332     1.007825032230
         H           -1.225030298092    -2.071616797912    -0.224442820332     1.007825032230
         H           -0.815526298092    -1.240343797912     1.297656179668     1.007825032230
         H           -0.815525298092     1.248925202088     1.297656179668     1.007825032230
         H           -1.225031298092     2.080198202088    -0.224443820332     1.007825032230
         H           -3.276211298092     0.891391202088    -0.446101820332     1.007825032230
         H           -2.996119298092     0.004289202088     1.075604179668     1.007825032230
         H           -3.276211298092    -0.882812797912    -0.446100820332     1.007825032230
         H            3.000832701908     0.004289202088    -1.071769820332     1.007825032230
         H            3.280926701908    -0.882812797912     0.449935179668     1.007825032230
         H            3.280927701908     0.891391202088     0.449935179668     1.007825032230

  Basis Set: AUG-CC-PVTZ
    Blend: AUG-CC-PVTZ
  Basis Set: (AUG-CC-PVTZ AUX)
    Blend: AUG-CC-PVTZ-JKFIT
	 Reference Energy          =    -344.3493092050741211 [Eh]
	 Singles Energy            =      -0.0000000000000000 [Eh]
	 Same-Spin Energy          =      -0.3688140344632418 [Eh]
	 Opposite-Spin Energy      =      -1.2706380667656674 [Eh]
	 Correlation Energy        =      -1.6394521012289092 [Eh]
	 Total Energy              =    -345.9887613063030471 [Eh]

	 ================> DF-SCS-MP2 Energies <==================
	-----------------------------------------------------------
	 SCS Same-Spin Scale       =       0.3333333333333333 [-]
	 SCS Opposite-Spin Scale   =       1.2000000000000000 [-]
	 SCS Same-Spin Energy      =      -0.1229380114877473 [Eh]
	 SCS Opposite-Spin Energy  =      -1.5247656801188008 [Eh]
	 SCS Correlation Energy    =      -1.6477036916065479 [Eh]
	 SCS Total Energy          =    -345.9970128966806442 [Eh]
	-----------------------------------------------------------

  Dipole Moment: [D]
     X:    -0.0522      Y:    -0.0897      Z:    -0.0453     Total:     0.1132

*** Psi4 exiting successfully. Buy a developer a beer!
