                               Psi4 1.4a3.dev225

  ==> Input File <==

--------------------------------------------------------------------------
#psi4
#
memory 32 gb

molecule  {
0 1
  N       -1.3887980     0.0000000    -0.3392240
  N        1.3442871    -0.0143406     0.3594195
  C        0.7344320    -1.1908000    -0.1932070
  C       -0.7344320    -1.1907990     0.1932070
  C        0.7344330     1.1908010    -0.1932060
  C       -0.7344330     1.1908010     0.1932070
  C       -2.8075490    -0.0000010    -0.0148730
  C        2.8075480    -0.0000010     0.0148720
  H        0.8178840    -1.2446340    -1.2957380
  H        1.2273880    -2.0759070     0.2263630
  H        1.2273890     2.0759080     0.2263640
  H        0.8178840     1.2446360    -1.2957370
  H       -1.2273880    -2.0759070    -0.2263610
  H       -0.8178840    -1.2446340     1.2957380
  H       -0.8178830     1.2446350     1.2957380
  H       -1.2273890     2.0759080    -0.2263620
  H       -3.2785690     0.8871010    -0.4480200
  H       -2.9984770    -0.0000010     1.0736860
  H       -3.2785690    -0.8871030    -0.4480190
  H        2.9984750    -0.0000010    -1.0736880
  H        3.2785690    -0.8871030     0.4480170
  H        3.2785700     0.8871010     0.4480170
units angstrom
no_reorient  #important for SAPT in psi4, default
symmetry c1  #important for SAPT in psi4, default
}

set PROPERTIES_ORIGIN ["COM"]
properties('MP2/aug-cc-pvtz', properties = ['dipole'])
--------------------------------------------------------------------------

    Molecular point group: c1
  Charge       = 0
  Multiplicity = 1
  Basis Set: AUG-CC-PVTZ
    Blend: AUG-CC-PVTZ
  Basis Set: (AUG-CC-PVTZ AUX)
    Blend: AUG-CC-PVTZ-JKFIT

    Orbital Energies [Eh]
    ---------------------

    Doubly Occupied:

       1A    -15.547933     2A    -15.544178     3A    -11.243401
       4A    -11.242593     5A    -11.240927     6A    -11.240913
       7A    -11.240268     8A    -11.239359     9A     -1.255027
      10A     -1.199450    11A     -1.023070    12A     -0.983677
      13A     -0.906618    14A     -0.861893    15A     -0.834114
      16A     -0.756891    17A     -0.662462    18A     -0.630525
      19A     -0.626171    20A     -0.624965    21A     -0.619263
      22A     -0.575437    23A     -0.547866    24A     -0.543906
      25A     -0.538422    26A     -0.516746    27A     -0.496451
      28A     -0.488260    29A     -0.463599    30A     -0.445712
      31A     -0.363747    32A     -0.357445

  @DF-RHF Final Energy:  -344.34808887160079

   => Energetics <=

    Nuclear Repulsion Energy =            420.5968840646006583
    One-Electron Energy =               -1300.1673663314493297
    Two-Electron Energy =                 535.2223933952478774
    Total Energy =                       -344.3480888716007939
  Basis Set: (AUG-CC-PVTZ AUX)
    Blend: AUG-CC-PVTZ-RI
    Molecular point group: c1

    Geometry (in Angstrom), charge = 0, multiplicity = 1:

       Center              X                  Y                   Z               Mass
    ------------   -----------------  -----------------  -----------------  -----------------
         N           -1.383335987016     0.001759630740    -0.341702160930    14.003074004430
         N            1.349749112984    -0.012580969260     0.356941339070    14.003074004430
         C            0.739894012984    -1.189040369260    -0.195685160930    12.000000000000
         C           -0.728969987016    -1.189039369260     0.190728839070    12.000000000000
         C            0.739895012984     1.192560630740    -0.195684160930    12.000000000000
         C           -0.728970987016     1.192560630740     0.190728839070    12.000000000000
         C           -2.802086987016     0.001758630740    -0.017351160930    12.000000000000
         C            2.813010012984     0.001758630740     0.012393839070    12.000000000000
         H            0.823346012984    -1.242874369260    -1.298216160930     1.007825032230
         H            1.232850012984    -2.074147369260     0.223884839070     1.007825032230
         H            1.232851012984     2.077667630740     0.223885839070     1.007825032230
         H            0.823346012984     1.246395630740    -1.298215160930     1.007825032230
         H           -1.221925987016    -2.074147369260    -0.228839160930     1.007825032230
         H           -0.812421987016    -1.242874369260     1.293259839070     1.007825032230
         H           -0.812420987016     1.246394630740     1.293259839070     1.007825032230
         H           -1.221926987016     2.077667630740    -0.228840160930     1.007825032230
         H           -3.273106987016     0.888860630740    -0.450498160930     1.007825032230
         H           -2.993014987016     0.001758630740     1.071207839070     1.007825032230
         H           -3.273106987016    -0.885343369260    -0.450497160930     1.007825032230
         H            3.003937012984     0.001758630740    -1.076166160930     1.007825032230
         H            3.284031012984    -0.885343369260     0.445538839070     1.007825032230
         H            3.284032012984     0.888860630740     0.445538839070     1.007825032230

  Basis Set: AUG-CC-PVTZ
    Blend: AUG-CC-PVTZ
  Basis Set: (AUG-CC-PVTZ AUX)
    Blend: AUG-CC-PVTZ-JKFIT
	 Reference Energy          =    -344.3480888716007939 [Eh]
	 Singles Energy            =      -0.0000000000000000 [Eh]
	 Same-Spin Energy          =      -0.3691900327764558 [Eh]
	 Opposite-Spin Energy      =      -1.2712250982661781 [Eh]
	 Correlation Energy        =      -1.6404151310426340 [Eh]
	 Total Energy              =    -345.9885040026434240 [Eh]

	 ================> DF-SCS-MP2 Energies <==================
	-----------------------------------------------------------
	 SCS Same-Spin Scale       =       0.3333333333333333 [-]
	 SCS Opposite-Spin Scale   =       1.2000000000000000 [-]
	 SCS Same-Spin Energy      =      -0.1230633442588186 [Eh]
	 SCS Opposite-Spin Energy  =      -1.5254701179194137 [Eh]
	 SCS Correlation Energy    =      -1.6485334621782324 [Eh]
	 SCS Total Energy          =    -345.9966223337790439 [Eh]
	-----------------------------------------------------------

  Dipole Moment: [D]
     X:     0.1450      Y:     0.0413      Z:    -0.0679     Total:     0.1654

*** Psi4 exiting successfully. Buy a developer a beer!
