                               Psi4 1.4a3.dev225

  ==> Input File <==

--------------------------------------------------------------------------
#psi4
#
memory 32 gb

molecule  {
0 1
  N       -1.3887980     0.0000000    -0.3392240
  N        1.3887980     0.0000000     0.3392250
  C        0.7344320    -1.1908000    -0.1932070
  C       -0.7344320    -1.1907990     0.1932070
  C        0.7344330     1.1908010    -0.1932060
  C       -0.7344330     1.1908010     0.1932070
  C       -2.8075490    -0.0000010    -0.0148730
  C        2.8075480    -0.0000010     0.0148720
  H        0.8178840    -1.2446340    -1.2957380
  H        1.2273880    -2.0759070     0.2263630
  H        1.2273890     2.0759080     0.2263640
  H        0.8178840     1.2446360    -1.2957370
  H       -1.2273880    -2.0759070    -0.2263610
  H       -0.8178840    -1.2446340     1.2957380
  H       -0.8178830     1.2446350     1.2957380
  H       -1.2273890     2.0759080    -0.2263620
  H       -3.2785690     0.8871010    -0.4480200
  H       -2.9984770    -0.0000010     1.0736860
  H       -3.2785690    -0.8871030    -0.4480190
  H        2.9984750    -0.0000010    -1.0736880
  H        3.2785690    -0.8871030     0.4480170
  H        3.3646948     1.0493046     0.5272161
units angstrom
no_reorient  #important for SAPT in psi4, default
symmetry c1  #important for SAPT in psi4, default
}

set PROPERTIES_ORIGIN ["COM"]
properties('MP2/aug-cc-pvtz', properties = ['dipole'])
--------------------------------------------------------------------------

    Molecular point group: c1
  Charge       = 0
  Multiplicity = 1
  Basis Set: AUG-CC-PVTZ
    Blend: AUG-CC-PVTZ
  Basis Set: (AUG-CC-PVTZ AUX)
    Blend: AUG-CC-PVTZ-JKFIT

    Orbital Energies [Eh]
    ---------------------

    Doubly Occupied:

       1A    -15.547939     2A    -15.545852     3A    -11.263393
       4A    -11.245385     5A    -11.244151     6A    -11.243351
       7A    -11.242688     8A    -11.240758     9A     -1.255802
      10A     -1.203807    11A     -1.023458    12A     -0.986383
      13A     -0.900266    14A     -0.862867    15A     -0.830027
      16A     -0.757786    17A     -0.663809    18A     -0.633548
      19A     -0.627021    20A     -0.625359    21A     -0.616276
      22A     -0.581824    23A     -0.545845    24A     -0.542273
      25A     -0.530146    26A     -0.515412    27A     -0.492216
      28A     -0.480761    29A     -0.460981    30A     -0.453862
      31A     -0.360287    32A     -0.358955

  @DF-RHF Final Energy:  -344.33142734709071

   => Energetics <=

    Nuclear Repulsion Energy =            419.5811838929118380
    One-Electron Energy =               -1298.0602494299512273
    Two-Electron Energy =                 534.1476381899485659
    Total Energy =                       -344.3314273470907665
  Basis Set: (AUG-CC-PVTZ AUX)
    Blend: AUG-CC-PVTZ-RI
    Molecular point group: c1

    Geometry (in Angstrom), charge = 0, multiplicity = 1:

       Center              X                  Y                   Z               Mass
    ------------   -----------------  -----------------  -----------------  -----------------
         N           -1.389558515253    -0.001432614818    -0.339923560394    14.003074004430
         N            1.388037484747    -0.001432614818     0.338525439606    14.003074004430
         C            0.733671484747    -1.192232614818    -0.193906560394    12.000000000000
         C           -0.735192515253    -1.192231614818     0.192507439606    12.000000000000
         C            0.733672484747     1.189368385182    -0.193905560394    12.000000000000
         C           -0.735193515253     1.189368385182     0.192507439606    12.000000000000
         C           -2.808309515253    -0.001433614818    -0.015572560394    12.000000000000
         C            2.806787484747    -0.001433614818     0.014172439606    12.000000000000
         H            0.817123484747    -1.246066614818    -1.296437560394     1.007825032230
         H            1.226627484747    -2.077339614818     0.225663439606     1.007825032230
         H            1.226628484747     2.074475385182     0.225664439606     1.007825032230
         H            0.817123484747     1.243203385182    -1.296436560394     1.007825032230
         H           -1.228148515253    -2.077339614818    -0.227060560394     1.007825032230
         H           -0.818644515253    -1.246066614818     1.295038439606     1.007825032230
         H           -0.818643515253     1.243202385182     1.295038439606     1.007825032230
         H           -1.228149515253     2.074475385182    -0.227061560394     1.007825032230
         H           -3.279329515253     0.885668385182    -0.448719560394     1.007825032230
         H           -2.999237515253    -0.001433614818     1.072986439606     1.007825032230
         H           -3.279329515253    -0.888535614818    -0.448718560394     1.007825032230
         H            2.997714484747    -0.001433614818    -1.074387560394     1.007825032230
         H            3.277808484747    -0.888535614818     0.447317439606     1.007825032230
         H            3.363934284747     1.047871985182     0.526516539606     1.007825032230

  Basis Set: AUG-CC-PVTZ
    Blend: AUG-CC-PVTZ
  Basis Set: (AUG-CC-PVTZ AUX)
    Blend: AUG-CC-PVTZ-JKFIT
	 Reference Energy          =    -344.3314273470907096 [Eh]
	 Singles Energy            =      -0.0000000000000000 [Eh]
	 Same-Spin Energy          =      -0.3690393684818976 [Eh]
	 Opposite-Spin Energy      =      -1.2720409411572238 [Eh]
	 Correlation Energy        =      -1.6410803096391213 [Eh]
	 Total Energy              =    -345.9725076567298174 [Eh]

	 ================> DF-SCS-MP2 Energies <==================
	-----------------------------------------------------------
	 SCS Same-Spin Scale       =       0.3333333333333333 [-]
	 SCS Opposite-Spin Scale   =       1.2000000000000000 [-]
	 SCS Same-Spin Energy      =      -0.1230131228272992 [Eh]
	 SCS Opposite-Spin Energy  =      -1.5264491293886684 [Eh]
	 SCS Correlation Energy    =      -1.6494622522159677 [Eh]
	 SCS Total Energy          =    -345.9808895993066926 [Eh]
	-----------------------------------------------------------

  Dipole Moment: [D]
     X:    -0.1375      Y:    -0.1132      Z:    -0.0497     Total:     0.1850

*** Psi4 exiting successfully. Buy a developer a beer!
