                               Psi4 1.4a3.dev225

  ==> Input File <==

--------------------------------------------------------------------------
#psi4
#
memory 32 gb

molecule  {
0 1
  N       -1.3887980     0.0000000    -0.3392240
  N        1.3887980     0.0000000     0.3392250
  C        0.7344320    -1.1908000    -0.1932070
  C       -0.7344320    -1.1907990     0.1932070
  C        0.7344330     1.1908010    -0.1932060
  C       -0.7344330     1.1908010     0.1932070
  C       -2.8075490    -0.0000010    -0.0148730
  C        2.8270450    -0.0000010     0.0104146
  H        0.8178840    -1.2446340    -1.2957380
  H        1.2273880    -2.0759070     0.2263630
  H        1.2273890     2.0759080     0.2263640
  H        0.8178840     1.2446360    -1.2957370
  H       -1.2273880    -2.0759070    -0.2263610
  H       -0.8178840    -1.2446340     1.2957380
  H       -0.8178830     1.2446350     1.2957380
  H       -1.2273890     2.0759080    -0.2263620
  H       -3.2785690     0.8871010    -0.4480200
  H       -2.9984770    -0.0000010     1.0736860
  H       -3.2785690    -0.8871030    -0.4480190
  H        2.9984750    -0.0000010    -1.0736880
  H        3.2785690    -0.8871030     0.4480170
  H        3.2785700     0.8871010     0.4480170
units angstrom
no_reorient  #important for SAPT in psi4, default
symmetry c1  #important for SAPT in psi4, default
}

set PROPERTIES_ORIGIN ["COM"]
properties('MP2/aug-cc-pvtz', properties = ['dipole'])
--------------------------------------------------------------------------

    Molecular point group: c1
  Charge       = 0
  Multiplicity = 1
  Basis Set: AUG-CC-PVTZ
    Blend: AUG-CC-PVTZ
  Basis Set: (AUG-CC-PVTZ AUX)
    Blend: AUG-CC-PVTZ-JKFIT

    Orbital Energies [Eh]
    ---------------------

    Doubly Occupied:

       1A    -15.544871     2A    -15.544737     3A    -11.242568
       4A    -11.242551     5A    -11.241893     6A    -11.241883
       7A    -11.239876     8A    -11.239690     9A     -1.252609
      10A     -1.199909    11A     -1.021789    12A     -0.987694
      13A     -0.907945    14A     -0.861192    15A     -0.833545
      16A     -0.755888    17A     -0.661810    18A     -0.631606
      19A     -0.627105    20A     -0.624855    21A     -0.620721
      22A     -0.577942    23A     -0.549307    24A     -0.541272
      25A     -0.540849    26A     -0.517592    27A     -0.496637
      28A     -0.489165    29A     -0.461254    30A     -0.452399
      31A     -0.358961    32A     -0.357386

  @DF-RHF Final Energy:  -344.35116799234390

   => Energetics <=

    Nuclear Repulsion Energy =            420.0073109430393288
    One-Electron Energy =               -1298.9819535455721962
    Two-Electron Energy =                 534.6234746101889641
    Total Energy =                       -344.3511679923439033
  Basis Set: (AUG-CC-PVTZ AUX)
    Blend: AUG-CC-PVTZ-RI
    Molecular point group: c1

    Geometry (in Angstrom), charge = 0, multiplicity = 1:

       Center              X                  Y                   Z               Mass
    ------------   -----------------  -----------------  -----------------  -----------------
         N           -1.390848129852    -0.000000096325    -0.338755380754    14.003074004430
         N            1.386747870148    -0.000000096325     0.339693619246    14.003074004430
         C            0.732381870148    -1.190800096325    -0.192738380754    12.000000000000
         C           -0.736482129852    -1.190799096325     0.193675619246    12.000000000000
         C            0.732382870148     1.190800903675    -0.192737380754    12.000000000000
         C           -0.736483129852     1.190800903675     0.193675619246    12.000000000000
         C           -2.809599129852    -0.000001096325    -0.014404380754    12.000000000000
         C            2.824994870148    -0.000001096325     0.010883219246    12.000000000000
         H            0.815833870148    -1.244634096325    -1.295269380754     1.007825032230
         H            1.225337870148    -2.075907096325     0.226831619246     1.007825032230
         H            1.225338870148     2.075907903675     0.226832619246     1.007825032230
         H            0.815833870148     1.244635903675    -1.295268380754     1.007825032230
         H           -1.229438129852    -2.075907096325    -0.225892380754     1.007825032230
         H           -0.819934129852    -1.244634096325     1.296206619246     1.007825032230
         H           -0.819933129852     1.244634903675     1.296206619246     1.007825032230
         H           -1.229439129852     2.075907903675    -0.225893380754     1.007825032230
         H           -3.280619129852     0.887100903675    -0.447551380754     1.007825032230
         H           -3.000527129852    -0.000001096325     1.074154619246     1.007825032230
         H           -3.280619129852    -0.887103096325    -0.447550380754     1.007825032230
         H            2.996424870148    -0.000001096325    -1.073219380754     1.007825032230
         H            3.276518870148    -0.887103096325     0.448485619246     1.007825032230
         H            3.276519870148     0.887100903675     0.448485619246     1.007825032230

  Basis Set: AUG-CC-PVTZ
    Blend: AUG-CC-PVTZ
  Basis Set: (AUG-CC-PVTZ AUX)
    Blend: AUG-CC-PVTZ-JKFIT
	 Reference Energy          =    -344.3511679923439033 [Eh]
	 Singles Energy            =      -0.0000000000000000 [Eh]
	 Same-Spin Energy          =      -0.3688433861674801 [Eh]
	 Opposite-Spin Energy      =      -1.2704671317718454 [Eh]
	 Correlation Energy        =      -1.6393105179393255 [Eh]
	 Total Energy              =    -345.9904785102832534 [Eh]

	 ================> DF-SCS-MP2 Energies <==================
	-----------------------------------------------------------
	 SCS Same-Spin Scale       =       0.3333333333333333 [-]
	 SCS Opposite-Spin Scale   =       1.2000000000000000 [-]
	 SCS Same-Spin Energy      =      -0.1229477953891600 [Eh]
	 SCS Opposite-Spin Energy  =      -1.5245605581262145 [Eh]
	 SCS Correlation Energy    =      -1.6475083535153745 [Eh]
	 SCS Total Energy          =    -345.9986763458592804 [Eh]
	-----------------------------------------------------------

  Dipole Moment: [D]
     X:     0.0495      Y:     0.0000      Z:    -0.0164     Total:     0.0522

*** Psi4 exiting successfully. Buy a developer a beer!
