                               Psi4 1.4a3.dev225

  ==> Input File <==

--------------------------------------------------------------------------
#psi4
#
memory 32 gb

molecule  {
0 1
  N       -1.3887980     0.0000000    -0.3392240
  N        1.3887980     0.0000000     0.3392250
  C        0.7344320    -1.1908000    -0.1932070
  C       -0.7471698    -1.0546694     0.1120829
  C        0.7344330     1.1908010    -0.1932060
  C       -0.7344330     1.1908010     0.1932070
  C       -2.8075490    -0.0000010    -0.0148730
  C        2.8075480    -0.0000010     0.0148720
  H        0.8178840    -1.2446340    -1.2957380
  H        1.2273880    -2.0759070     0.2263630
  H        1.2273890     2.0759080     0.2263640
  H        0.8178840     1.2446360    -1.2957370
  H       -1.2273880    -2.0759070    -0.2263610
  H       -0.8178840    -1.2446340     1.2957380
  H       -0.8178830     1.2446350     1.2957380
  H       -1.2273890     2.0759080    -0.2263620
  H       -3.2785690     0.8871010    -0.4480200
  H       -2.9984770    -0.0000010     1.0736860
  H       -3.2785690    -0.8871030    -0.4480190
  H        2.9984750    -0.0000010    -1.0736880
  H        3.2785690    -0.8871030     0.4480170
  H        3.2785700     0.8871010     0.4480170
units angstrom
no_reorient  #important for SAPT in psi4, default
symmetry c1  #important for SAPT in psi4, default
}

set PROPERTIES_ORIGIN ["COM"]
properties('MP2/aug-cc-pvtz', properties = ['dipole'])
--------------------------------------------------------------------------

    Molecular point group: c1
  Charge       = 0
  Multiplicity = 1
  Basis Set: AUG-CC-PVTZ
    Blend: AUG-CC-PVTZ
  Basis Set: (AUG-CC-PVTZ AUX)
    Blend: AUG-CC-PVTZ-JKFIT

    Orbital Energies [Eh]
    ---------------------

    Doubly Occupied:

       1A    -15.548124     2A    -15.544023     3A    -11.249925
       4A    -11.247647     5A    -11.246827     6A    -11.245493
       7A    -11.243155     8A    -11.239618     9A     -1.283819
      10A     -1.217279    11A     -1.023367    12A     -0.992989
      13A     -0.917987    14A     -0.871450    15A     -0.831768
      16A     -0.751525    17A     -0.673121    18A     -0.642772
      19A     -0.635475    20A     -0.623679    21A     -0.620280
      22A     -0.591312    23A     -0.552101    24A     -0.544564
      25A     -0.538197    26A     -0.515919    27A     -0.505254
      28A     -0.476749    29A     -0.470750    30A     -0.438909
      31A     -0.358461    32A     -0.351093

  @DF-RHF Final Energy:  -344.32282985090126

   => Energetics <=

    Nuclear Repulsion Energy =            423.1277519441670734
    One-Electron Energy =               -1304.9138995233106471
    Two-Electron Energy =                 537.4633177282422594
    Total Energy =                       -344.3228298509012575
  Basis Set: (AUG-CC-PVTZ AUX)
    Blend: AUG-CC-PVTZ-RI
    Molecular point group: c1

    Geometry (in Angstrom), charge = 0, multiplicity = 1:

       Center              X                  Y                   Z               Mass
    ------------   -----------------  -----------------  -----------------  -----------------
         N           -1.387458433209    -0.014314999726    -0.330693383917    14.003074004430
         N            1.390137566791    -0.014314999726     0.347755616083    14.003074004430
         C            0.735771566791    -1.205114999726    -0.184676383917    12.000000000000
         C           -0.745830233209    -1.068984399726     0.120613516083    12.000000000000
         C            0.735772566791     1.176486000274    -0.184675383917    12.000000000000
         C           -0.733093433209     1.176486000274     0.201737616083    12.000000000000
         C           -2.806209433209    -0.014315999726    -0.006342383917    12.000000000000
         C            2.808887566791    -0.014315999726     0.023402616083    12.000000000000
         H            0.819223566791    -1.258948999726    -1.287207383917     1.007825032230
         H            1.228727566791    -2.090221999726     0.234893616083     1.007825032230
         H            1.228728566791     2.061593000274     0.234894616083     1.007825032230
         H            0.819223566791     1.230321000274    -1.287206383917     1.007825032230
         H           -1.226048433209    -2.090221999726    -0.217830383917     1.007825032230
         H           -0.816544433209    -1.258948999726     1.304268616083     1.007825032230
         H           -0.816543433209     1.230320000274     1.304268616083     1.007825032230
         H           -1.226049433209     2.061593000274    -0.217831383917     1.007825032230
         H           -3.277229433209     0.872786000274    -0.439489383917     1.007825032230
         H           -2.997137433209    -0.014315999726     1.082216616083     1.007825032230
         H           -3.277229433209    -0.901417999726    -0.439488383917     1.007825032230
         H            2.999814566791    -0.014315999726    -1.065157383917     1.007825032230
         H            3.279908566791    -0.901417999726     0.456547616083     1.007825032230
         H            3.279909566791     0.872786000274     0.456547616083     1.007825032230

  Basis Set: AUG-CC-PVTZ
    Blend: AUG-CC-PVTZ
  Basis Set: (AUG-CC-PVTZ AUX)
    Blend: AUG-CC-PVTZ-JKFIT
	 Reference Energy          =    -344.3228298509012575 [Eh]
	 Singles Energy            =      -0.0000000000000000 [Eh]
	 Same-Spin Energy          =      -0.3709537142914861 [Eh]
	 Opposite-Spin Energy      =      -1.2721277600217586 [Eh]
	 Correlation Energy        =      -1.6430814743132447 [Eh]
	 Total Energy              =    -345.9659113252145062 [Eh]

	 ================> DF-SCS-MP2 Energies <==================
	-----------------------------------------------------------
	 SCS Same-Spin Scale       =       0.3333333333333333 [-]
	 SCS Opposite-Spin Scale   =       1.2000000000000000 [-]
	 SCS Same-Spin Energy      =      -0.1236512380971620 [Eh]
	 SCS Opposite-Spin Energy  =      -1.5265533120261103 [Eh]
	 SCS Correlation Energy    =      -1.6502045501232723 [Eh]
	 SCS Total Energy          =    -345.9730344010245062 [Eh]
	-----------------------------------------------------------

  Dipole Moment: [D]
     X:    -0.1428      Y:     0.3849      Z:    -0.2566     Total:     0.4842

*** Psi4 exiting successfully. Buy a developer a beer!
