                               Psi4 1.4a3.dev225

  ==> Input File <==

--------------------------------------------------------------------------
#psi4
#
memory 32 gb

molecule  {
0 1
  N       -1.3887980     0.0000000    -0.3392240
  N        1.3887980     0.0000000     0.3392250
  C        0.7344320    -1.1908000    -0.1932070
  C       -0.7344320    -1.1907990     0.1932070
  C        0.7344330     1.1908010    -0.1932060
  C       -0.7344330     1.1908010     0.1932070
  C       -2.8075490    -0.0000010    -0.0148730
  C        2.7880510    -0.0000010     0.0193294
  H        0.8178840    -1.2446340    -1.2957380
  H        1.2273880    -2.0759070     0.2263630
  H        1.2273890     2.0759080     0.2263640
  H        0.8178840     1.2446360    -1.2957370
  H       -1.2273880    -2.0759070    -0.2263610
  H       -0.8178840    -1.2446340     1.2957380
  H       -0.8178830     1.2446350     1.2957380
  H       -1.2273890     2.0759080    -0.2263620
  H       -3.2785690     0.8871010    -0.4480200
  H       -2.9984770    -0.0000010     1.0736860
  H       -3.2785690    -0.8871030    -0.4480190
  H        2.9984750    -0.0000010    -1.0736880
  H        3.2785690    -0.8871030     0.4480170
  H        3.2785700     0.8871010     0.4480170
units angstrom
no_reorient  #important for SAPT in psi4, default
symmetry c1  #important for SAPT in psi4, default
}

set PROPERTIES_ORIGIN ["COM"]
properties('MP2/aug-cc-pvtz', properties = ['dipole'])
--------------------------------------------------------------------------

    Molecular point group: c1
  Charge       = 0
  Multiplicity = 1
  Basis Set: AUG-CC-PVTZ
    Blend: AUG-CC-PVTZ
  Basis Set: (AUG-CC-PVTZ AUX)
    Blend: AUG-CC-PVTZ-JKFIT

    Orbital Energies [Eh]
    ---------------------

    Doubly Occupied:

       1A    -15.545363     2A    -15.545200     3A    -11.243445
       4A    -11.243428     5A    -11.242765     6A    -11.242755
       7A    -11.240656     8A    -11.240362     9A     -1.256663
      10A     -1.205606    11A     -1.022919    12A     -0.990132
      13A     -0.906046    14A     -0.862836    15A     -0.833055
      16A     -0.757510    17A     -0.664702    18A     -0.633539
      19A     -0.628390    20A     -0.625886    21A     -0.621606
      22A     -0.581786    23A     -0.546007    24A     -0.541190
      25A     -0.540866    26A     -0.515134    27A     -0.494325
      28A     -0.488980    29A     -0.461470    30A     -0.456067
      31A     -0.359333    32A     -0.358314

  @DF-RHF Final Energy:  -344.35116954513052

   => Energetics <=

    Nuclear Repulsion Energy =            420.7863287328636375
    One-Electron Energy =               -1300.4823259169174889
    Two-Electron Energy =                 535.3448276389232205
    Total Energy =                       -344.3511695451305741
  Basis Set: (AUG-CC-PVTZ AUX)
    Blend: AUG-CC-PVTZ-RI
    Molecular point group: c1

    Geometry (in Angstrom), charge = 0, multiplicity = 1:

       Center              X                  Y                   Z               Mass
    ------------   -----------------  -----------------  -----------------  -----------------
         N           -1.386747659835    -0.000000096325    -0.339692829339    14.003074004430
         N            1.390848340165    -0.000000096325     0.338756170661    14.003074004430
         C            0.736482340165    -1.190800096325    -0.193675829339    12.000000000000
         C           -0.732381659835    -1.190799096325     0.192738170661    12.000000000000
         C            0.736483340165     1.190800903675    -0.193674829339    12.000000000000
         C           -0.732382659835     1.190800903675     0.192738170661    12.000000000000
         C           -2.805498659835    -0.000001096325    -0.015341829339    12.000000000000
         C            2.790101340165    -0.000001096325     0.018860570661    12.000000000000
         H            0.819934340165    -1.244634096325    -1.296206829339     1.007825032230
         H            1.229438340165    -2.075907096325     0.225894170661     1.007825032230
         H            1.229439340165     2.075907903675     0.225895170661     1.007825032230
         H            0.819934340165     1.244635903675    -1.296205829339     1.007825032230
         H           -1.225337659835    -2.075907096325    -0.226829829339     1.007825032230
         H           -0.815833659835    -1.244634096325     1.295269170661     1.007825032230
         H           -0.815832659835     1.244634903675     1.295269170661     1.007825032230
         H           -1.225338659835     2.075907903675    -0.226830829339     1.007825032230
         H           -3.276518659835     0.887100903675    -0.448488829339     1.007825032230
         H           -2.996426659835    -0.000001096325     1.073217170661     1.007825032230
         H           -3.276518659835    -0.887103096325    -0.448487829339     1.007825032230
         H            3.000525340165    -0.000001096325    -1.074156829339     1.007825032230
         H            3.280619340165    -0.887103096325     0.447548170661     1.007825032230
         H            3.280620340165     0.887100903675     0.447548170661     1.007825032230

  Basis Set: AUG-CC-PVTZ
    Blend: AUG-CC-PVTZ
  Basis Set: (AUG-CC-PVTZ AUX)
    Blend: AUG-CC-PVTZ-JKFIT
	 Reference Energy          =    -344.3511695451305172 [Eh]
	 Singles Energy            =      -0.0000000000000000 [Eh]
	 Same-Spin Energy          =      -0.3690523654920633 [Eh]
	 Opposite-Spin Energy      =      -1.2703305380654835 [Eh]
	 Correlation Energy        =      -1.6393829035575469 [Eh]
	 Total Energy              =    -345.9905524486880495 [Eh]

	 ================> DF-SCS-MP2 Energies <==================
	-----------------------------------------------------------
	 SCS Same-Spin Scale       =       0.3333333333333333 [-]
	 SCS Opposite-Spin Scale   =       1.2000000000000000 [-]
	 SCS Same-Spin Energy      =      -0.1230174551640211 [Eh]
	 SCS Opposite-Spin Energy  =      -1.5243966456785800 [Eh]
	 SCS Correlation Energy    =      -1.6474141008426011 [Eh]
	 SCS Total Energy          =    -345.9985836459730990 [Eh]
	-----------------------------------------------------------

  Dipole Moment: [D]
     X:    -0.0537      Y:     0.0000      Z:     0.0174     Total:     0.0565

*** Psi4 exiting successfully. Buy a developer a beer!
