                               Psi4 1.4a3.dev225

  ==> Input File <==

--------------------------------------------------------------------------
#psi4
#
memory 32 gb

molecule  {
0 1
  N       -1.3236632    -0.0559409    -0.2844182
  N        1.3887980     0.0000000     0.3392250
  C        0.7344320    -1.1908000    -0.1932070
  C       -0.7344320    -1.1907990     0.1932070
  C        0.7344330     1.1908010    -0.1932060
  C       -0.7344330     1.1908010     0.1932070
  C       -2.8075490    -0.0000010    -0.0148730
  C        2.8075480    -0.0000010     0.0148720
  H        0.8178840    -1.2446340    -1.2957380
  H        1.2273880    -2.0759070     0.2263630
  H        1.2273890     2.0759080     0.2263640
  H        0.8178840     1.2446360    -1.2957370
  H       -1.2273880    -2.0759070    -0.2263610
  H       -0.8178840    -1.2446340     1.2957380
  H       -0.8178830     1.2446350     1.2957380
  H       -1.2273890     2.0759080    -0.2263620
  H       -3.2785690     0.8871010    -0.4480200
  H       -2.9984770    -0.0000010     1.0736860
  H       -3.2785690    -0.8871030    -0.4480190
  H        2.9984750    -0.0000010    -1.0736880
  H        3.2785690    -0.8871030     0.4480170
  H        3.2785700     0.8871010     0.4480170
units angstrom
no_reorient  #important for SAPT in psi4, default
symmetry c1  #important for SAPT in psi4, default
}

set PROPERTIES_ORIGIN ["COM"]
properties('MP2/aug-cc-pvtz', properties = ['dipole'])
--------------------------------------------------------------------------

    Molecular point group: c1
  Charge       = 0
  Multiplicity = 1
  Basis Set: AUG-CC-PVTZ
    Blend: AUG-CC-PVTZ
  Basis Set: (AUG-CC-PVTZ AUX)
    Blend: AUG-CC-PVTZ-JKFIT

    Orbital Energies [Eh]
    ---------------------

    Doubly Occupied:

       1A    -15.544112     2A    -15.540532     3A    -11.245470
       4A    -11.244279     5A    -11.241340     6A    -11.239698
       7A    -11.239232     8A    -11.235666     9A     -1.262869
      10A     -1.204417    11A     -1.026172    12A     -0.983212
      13A     -0.909940    14A     -0.867579    15A     -0.833597
      16A     -0.754000    17A     -0.665302    18A     -0.635252
      19A     -0.629190    20A     -0.624788    21A     -0.621029
      22A     -0.575000    23A     -0.551711    24A     -0.546837
      25A     -0.542044    26A     -0.516227    27A     -0.498212
      28A     -0.489312    29A     -0.471532    30A     -0.442772
      31A     -0.357722    32A     -0.348199

  @DF-RHF Final Energy:  -344.34215575760265

   => Energetics <=

    Nuclear Repulsion Energy =            421.7886184294978307
    One-Electron Energy =               -1302.4870583357658234
    Two-Electron Energy =                 536.3562841486653952
    Total Energy =                       -344.3421557576026544
  Basis Set: (AUG-CC-PVTZ AUX)
    Blend: AUG-CC-PVTZ-RI
    Molecular point group: c1

    Geometry (in Angstrom), charge = 0, multiplicity = 1:

       Center              X                  Y                   Z               Mass
    ------------   -----------------  -----------------  -----------------  -----------------
         N           -1.331655749991    -0.049076519543    -0.291143494338    14.003074004430
         N            1.380805450009     0.006864380457     0.332499705662    14.003074004430
         C            0.726439450009    -1.183935619543    -0.199932294338    12.000000000000
         C           -0.742424549991    -1.183934619543     0.186481705662    12.000000000000
         C            0.726440450009     1.197665380457    -0.199931294338    12.000000000000
         C           -0.742425549991     1.197665380457     0.186481705662    12.000000000000
         C           -2.815541549991     0.006863380457    -0.021598294338    12.000000000000
         C            2.799555450009     0.006863380457     0.008146705662    12.000000000000
         H            0.809891450009    -1.237769619543    -1.302463294338     1.007825032230
         H            1.219395450009    -2.069042619543     0.219637705662     1.007825032230
         H            1.219396450009     2.082772380457     0.219638705662     1.007825032230
         H            0.809891450009     1.251500380457    -1.302462294338     1.007825032230
         H           -1.235380549991    -2.069042619543    -0.233086294338     1.007825032230
         H           -0.825876549991    -1.237769619543     1.289012705662     1.007825032230
         H           -0.825875549991     1.251499380457     1.289012705662     1.007825032230
         H           -1.235381549991     2.082772380457    -0.233087294338     1.007825032230
         H           -3.286561549991     0.893965380457    -0.454745294338     1.007825032230
         H           -3.006469549991     0.006863380457     1.066960705662     1.007825032230
         H           -3.286561549991    -0.880238619543    -0.454744294338     1.007825032230
         H            2.990482450009     0.006863380457    -1.080413294338     1.007825032230
         H            3.270576450009    -0.880238619543     0.441291705662     1.007825032230
         H            3.270577450009     0.893965380457     0.441291705662     1.007825032230

  Basis Set: AUG-CC-PVTZ
    Blend: AUG-CC-PVTZ
  Basis Set: (AUG-CC-PVTZ AUX)
    Blend: AUG-CC-PVTZ-JKFIT
	 Reference Energy          =    -344.3421557576026544 [Eh]
	 Singles Energy            =      -0.0000000000000000 [Eh]
	 Same-Spin Energy          =      -0.3694517276454389 [Eh]
	 Opposite-Spin Energy      =      -1.2705473529378213 [Eh]
	 Correlation Energy        =      -1.6399990805832600 [Eh]
	 Total Energy              =    -345.9821548381859202 [Eh]

	 ================> DF-SCS-MP2 Energies <==================
	-----------------------------------------------------------
	 SCS Same-Spin Scale       =       0.3333333333333333 [-]
	 SCS Opposite-Spin Scale   =       1.2000000000000000 [-]
	 SCS Same-Spin Energy      =      -0.1231505758818130 [Eh]
	 SCS Opposite-Spin Energy  =      -1.5246568235253855 [Eh]
	 SCS Correlation Energy    =      -1.6478073994071984 [Eh]
	 SCS Total Energy          =    -345.9899631570098677 [Eh]
	-----------------------------------------------------------

  Dipole Moment: [D]
     X:    -0.2207      Y:     0.1824      Z:    -0.1685     Total:     0.3322

*** Psi4 exiting successfully. Buy a developer a beer!
