                               Psi4 1.4a3.dev225

  ==> Input File <==

--------------------------------------------------------------------------
#psi4
#
memory 32 gb

molecule  {
0 1
  N       -1.3887980     0.0000000    -0.3392240
  N        1.3887980     0.0000000     0.3392250
  C        0.7344320    -1.1908000    -0.1932070
  C       -0.7344320    -1.1907990     0.1932070
  C        0.7344330     1.1908010    -0.1932060
  C       -0.7344330     1.1908010     0.1932070
  C       -2.8075490    -0.0000010    -0.0148730
  C        2.8075480    -0.0000010     0.0148720
  H        0.8178840    -1.2446340    -1.2957380
  H        1.2273880    -2.0759070     0.2263630
  H        1.2273890     2.0759080     0.2263640
  H        0.8178840     1.2446360    -1.2957370
  H       -1.2273880    -2.0759070    -0.2263610
  H       -0.8216533    -1.2470656     1.3455364
  H       -0.8178830     1.2446350     1.2957380
  H       -1.2273890     2.0759080    -0.2263620
  H       -3.2785690     0.8871010    -0.4480200
  H       -2.9984770    -0.0000010     1.0736860
  H       -3.2785690    -0.8871030    -0.4480190
  H        2.9984750    -0.0000010    -1.0736880
  H        3.2785690    -0.8871030     0.4480170
  H        3.2785700     0.8871010     0.4480170
units angstrom
no_reorient  #important for SAPT in psi4, default
symmetry c1  #important for SAPT in psi4, default
}

set PROPERTIES_ORIGIN ["COM"]
properties('MP2/aug-cc-pvtz', properties = ['dipole'])
--------------------------------------------------------------------------

    Molecular point group: c1
  Charge       = 0
  Multiplicity = 1
  Basis Set: AUG-CC-PVTZ
    Blend: AUG-CC-PVTZ
  Basis Set: (AUG-CC-PVTZ AUX)
    Blend: AUG-CC-PVTZ-JKFIT

    Orbital Energies [Eh]
    ---------------------

    Doubly Occupied:

       1A    -15.546297     2A    -15.545134     3A    -11.248670
       4A    -11.243257     5A    -11.243200     6A    -11.242554
       7A    -11.240355     8A    -11.240220     9A     -1.254654
      10A     -1.203056    11A     -1.021648    12A     -0.988748
      13A     -0.907044    14A     -0.861148    15A     -0.833088
      16A     -0.753979    17A     -0.663572    18A     -0.632820
      19A     -0.628008    20A     -0.623269    21A     -0.619497
      22A     -0.579713    23A     -0.547526    24A     -0.541573
      25A     -0.541026    26A     -0.515167    27A     -0.494959
      28A     -0.486520    29A     -0.461793    30A     -0.454760
      31A     -0.359098    32A     -0.358071

  @DF-RHF Final Energy:  -344.34938954995550

   => Energetics <=

    Nuclear Repulsion Energy =            420.1521635713791056
    One-Electron Energy =               -1299.2422583732522980
    Two-Electron Energy =                 534.7407052519176887
    Total Energy =                       -344.3493895499555038
  Basis Set: (AUG-CC-PVTZ AUX)
    Blend: AUG-CC-PVTZ-RI
    Molecular point group: c1

    Geometry (in Angstrom), charge = 0, multiplicity = 1:

       Center              X                  Y                   Z               Mass
    ------------   -----------------  -----------------  -----------------  -----------------
         N           -1.388764605866     0.000021378611    -0.339663904958    14.003074004430
         N            1.388831394134     0.000021378611     0.338785095042    14.003074004430
         C            0.734465394134    -1.190778621389    -0.193646904958    12.000000000000
         C           -0.734398605866    -1.190777621389     0.192767095042    12.000000000000
         C            0.734466394134     1.190822378611    -0.193645904958    12.000000000000
         C           -0.734399605866     1.190822378611     0.192767095042    12.000000000000
         C           -2.807515605866     0.000020378611    -0.015312904958    12.000000000000
         C            2.807581394134     0.000020378611     0.014432095042    12.000000000000
         H            0.817917394134    -1.244612621389    -1.296177904958     1.007825032230
         H            1.227421394134    -2.075885621389     0.225923095042     1.007825032230
         H            1.227422394134     2.075929378611     0.225924095042     1.007825032230
         H            0.817917394134     1.244657378611    -1.296176904958     1.007825032230
         H           -1.227354605866    -2.075885621389    -0.226800904958     1.007825032230
         H           -0.821619905866    -1.247044221389     1.345096495042     1.007825032230
         H           -0.817849605866     1.244656378611     1.295298095042     1.007825032230
         H           -1.227355605866     2.075929378611    -0.226801904958     1.007825032230
         H           -3.278535605866     0.887122378611    -0.448459904958     1.007825032230
         H           -2.998443605866     0.000020378611     1.073246095042     1.007825032230
         H           -3.278535605866    -0.887081621389    -0.448458904958     1.007825032230
         H            2.998508394134     0.000020378611    -1.074127904958     1.007825032230
         H            3.278602394134    -0.887081621389     0.447577095042     1.007825032230
         H            3.278603394134     0.887122378611     0.447577095042     1.007825032230

  Basis Set: AUG-CC-PVTZ
    Blend: AUG-CC-PVTZ
  Basis Set: (AUG-CC-PVTZ AUX)
    Blend: AUG-CC-PVTZ-JKFIT
	 Reference Energy          =    -344.3493895499555038 [Eh]
	 Singles Energy            =      -0.0000000000000000 [Eh]
	 Same-Spin Energy          =      -0.3690498964419557 [Eh]
	 Opposite-Spin Energy      =      -1.2708065493189091 [Eh]
	 Correlation Energy        =      -1.6398564457608649 [Eh]
	 Total Energy              =    -345.9892459957163737 [Eh]

	 ================> DF-SCS-MP2 Energies <==================
	-----------------------------------------------------------
	 SCS Same-Spin Scale       =       0.3333333333333333 [-]
	 SCS Opposite-Spin Scale   =       1.2000000000000000 [-]
	 SCS Same-Spin Energy      =      -0.1230166321473186 [Eh]
	 SCS Opposite-Spin Energy  =      -1.5249678591826910 [Eh]
	 SCS Correlation Energy    =      -1.6479844913300095 [Eh]
	 SCS Total Energy          =    -345.9973740412855250 [Eh]
	-----------------------------------------------------------

  Dipole Moment: [D]
     X:     0.0026      Y:     0.0249      Z:    -0.0521     Total:     0.0578

*** Psi4 exiting successfully. Buy a developer a beer!
