                               Psi4 1.4a3.dev225

  ==> Input File <==

--------------------------------------------------------------------------
#psi4
#
memory 32 gb

molecule  {
0 1
  N       -1.3887980     0.0000000    -0.3392240
  N        1.3887980     0.0000000     0.3392250
  C        0.7344320    -1.1908000    -0.1932070
  C       -0.7344320    -1.1907990     0.1932070
  C        0.7344330     1.1908010    -0.1932060
  C       -0.7344330     1.1908010     0.1932070
  C       -2.8075490    -0.0000010    -0.0148730
  C        2.8075480    -0.0000010     0.0148720
  H        0.8178840    -1.2446340    -1.2957380
  H        1.2273880    -2.0759070     0.2263630
  H        1.2273890     2.0759080     0.2263640
  H        0.8178840     1.2446360    -1.2957370
  H       -1.1374790    -1.9144745    -0.1498371
  H       -0.8178840    -1.2446340     1.2957380
  H       -0.8178830     1.2446350     1.2957380
  H       -1.2273890     2.0759080    -0.2263620
  H       -3.2785690     0.8871010    -0.4480200
  H       -2.9984770    -0.0000010     1.0736860
  H       -3.2785690    -0.8871030    -0.4480190
  H        2.9984750    -0.0000010    -1.0736880
  H        3.2785690    -0.8871030     0.4480170
  H        3.2785700     0.8871010     0.4480170
units angstrom
no_reorient  #important for SAPT in psi4, default
symmetry c1  #important for SAPT in psi4, default
}

set PROPERTIES_ORIGIN ["COM"]
properties('MP2/aug-cc-pvtz', properties = ['dipole'])
--------------------------------------------------------------------------

    Molecular point group: c1
  Charge       = 0
  Multiplicity = 1
  Basis Set: AUG-CC-PVTZ
    Blend: AUG-CC-PVTZ
  Basis Set: (AUG-CC-PVTZ AUX)
    Blend: AUG-CC-PVTZ-JKFIT

    Orbital Energies [Eh]
    ---------------------

    Doubly Occupied:

       1A    -15.544030     2A    -15.543431     3A    -11.241893
       4A    -11.241529     5A    -11.240997     6A    -11.240204
       7A    -11.239294     8A    -11.217417     9A     -1.254399
      10A     -1.202473    11A     -1.030951    12A     -0.989841
      13A     -0.907734    14A     -0.874028    15A     -0.836375
      16A     -0.759589    17A     -0.673801    18A     -0.642445
      19A     -0.627080    20A     -0.624342    21A     -0.620216
      22A     -0.578960    23A     -0.555807    24A     -0.544278
      25A     -0.540330    26A     -0.517054    27A     -0.497381
      28A     -0.488211    29A     -0.465641    30A     -0.454066
      31A     -0.358366    32A     -0.357057

  @DF-RHF Final Energy:  -344.31878210982399

   => Energetics <=

    Nuclear Repulsion Energy =            421.5818009186230597
    One-Electron Energy =               -1301.9827277683507418
    Two-Electron Energy =                 536.0821447399036970
    Total Energy =                       -344.3187821098240420
  Basis Set: (AUG-CC-PVTZ AUX)
    Blend: AUG-CC-PVTZ-RI
    Molecular point group: c1

    Geometry (in Angstrom), charge = 0, multiplicity = 1:

       Center              X                  Y                   Z               Mass
    ------------   -----------------  -----------------  -----------------  -----------------
         N           -1.389591935822    -0.001425804766    -0.339899934078    14.003074004430
         N            1.388004064178    -0.001425804766     0.338549065922    14.003074004430
         C            0.733638064178    -1.192225804766    -0.193882934078    12.000000000000
         C           -0.735225935822    -1.192224804766     0.192531065922    12.000000000000
         C            0.733639064178     1.189375195234    -0.193881934078    12.000000000000
         C           -0.735226935822     1.189375195234     0.192531065922    12.000000000000
         C           -2.808342935822    -0.001426804766    -0.015548934078    12.000000000000
         C            2.806754064178    -0.001426804766     0.014196065922    12.000000000000
         H            0.817090064178    -1.246059804766    -1.296413934078     1.007825032230
         H            1.226594064178    -2.077332804766     0.225687065922     1.007825032230
         H            1.226595064178     2.074482195234     0.225688065922     1.007825032230
         H            0.817090064178     1.243210195234    -1.296412934078     1.007825032230
         H           -1.138272935822    -1.915900304766    -0.150513034078     1.007825032230
         H           -0.818677935822    -1.246059804766     1.295062065922     1.007825032230
         H           -0.818676935822     1.243209195234     1.295062065922     1.007825032230
         H           -1.228182935822     2.074482195234    -0.227037934078     1.007825032230
         H           -3.279362935822     0.885675195234    -0.448695934078     1.007825032230
         H           -2.999270935822    -0.001426804766     1.073010065922     1.007825032230
         H           -3.279362935822    -0.888528804766    -0.448694934078     1.007825032230
         H            2.997681064178    -0.001426804766    -1.074363934078     1.007825032230
         H            3.277775064178    -0.888528804766     0.447341065922     1.007825032230
         H            3.277776064178     0.885675195234     0.447341065922     1.007825032230

  Basis Set: AUG-CC-PVTZ
    Blend: AUG-CC-PVTZ
  Basis Set: (AUG-CC-PVTZ AUX)
    Blend: AUG-CC-PVTZ-JKFIT
	 Reference Energy          =    -344.3187821098239851 [Eh]
	 Singles Energy            =      -0.0000000000000000 [Eh]
	 Same-Spin Energy          =      -0.3688154786428175 [Eh]
	 Opposite-Spin Energy      =      -1.2695562979189985 [Eh]
	 Correlation Energy        =      -1.6383717765618160 [Eh]
	 Total Energy              =    -345.9571538863858109 [Eh]

	 ================> DF-SCS-MP2 Energies <==================
	-----------------------------------------------------------
	 SCS Same-Spin Scale       =       0.3333333333333333 [-]
	 SCS Opposite-Spin Scale   =       1.2000000000000000 [-]
	 SCS Same-Spin Energy      =      -0.1229384928809392 [Eh]
	 SCS Opposite-Spin Energy  =      -1.5234675575027981 [Eh]
	 SCS Correlation Energy    =      -1.6464060503837372 [Eh]
	 SCS Total Energy          =    -345.9651881602077310 [Eh]
	-----------------------------------------------------------

  Dipole Moment: [D]
     X:    -0.0514      Y:    -0.0957      Z:    -0.0117     Total:     0.1092

*** Psi4 exiting successfully. Buy a developer a beer!
