                               Psi4 1.4a3.dev225

  ==> Input File <==

--------------------------------------------------------------------------
#psi4
#
memory 32 gb

molecule  {
0 1
  N       -1.3887980     0.0000000    -0.3392240
  N        1.3887980     0.0000000     0.3392250
  C        0.7344320    -1.1908000    -0.1932070
  C       -0.7344320    -1.1907990     0.1932070
  C        0.7344330     1.1908010    -0.1932060
  C       -0.7344330     1.1908010     0.1932070
  C       -2.8075490    -0.0000010    -0.0148730
  C        2.8075480    -0.0000010     0.0148720
  H        0.8178840    -1.2446340    -1.2957380
  H        1.2183971    -2.0597638     0.2187106
  H        1.2273890     2.0759080     0.2263640
  H        0.8178840     1.2446360    -1.2957370
  H       -1.2273880    -2.0759070    -0.2263610
  H       -0.8178840    -1.2446340     1.2957380
  H       -0.8178830     1.2446350     1.2957380
  H       -1.2273890     2.0759080    -0.2263620
  H       -3.2785690     0.8871010    -0.4480200
  H       -2.9984770    -0.0000010     1.0736860
  H       -3.2785690    -0.8871030    -0.4480190
  H        2.9984750    -0.0000010    -1.0736880
  H        3.2785690    -0.8871030     0.4480170
  H        3.2785700     0.8871010     0.4480170
units angstrom
no_reorient  #important for SAPT in psi4, default
symmetry c1  #important for SAPT in psi4, default
}

set PROPERTIES_ORIGIN ["COM"]
properties('MP2/aug-cc-pvtz', properties = ['dipole'])
--------------------------------------------------------------------------

    Molecular point group: c1
  Charge       = 0
  Multiplicity = 1
  Basis Set: AUG-CC-PVTZ
    Blend: AUG-CC-PVTZ
  Basis Set: (AUG-CC-PVTZ AUX)
    Blend: AUG-CC-PVTZ-JKFIT

    Orbital Energies [Eh]
    ---------------------

    Doubly Occupied:

       1A    -15.544901     2A    -15.544828     3A    -11.242815
       4A    -11.242535     5A    -11.242165     6A    -11.240121
       7A    -11.240105     8A    -11.240004     9A     -1.254403
      10A     -1.202656    11A     -1.022841    12A     -0.988908
      13A     -0.906964    14A     -0.862777    15A     -0.833652
      16A     -0.756847    17A     -0.663818    18A     -0.633662
      19A     -0.627591    20A     -0.625233    21A     -0.620994
      22A     -0.579647    23A     -0.547841    24A     -0.541924
      25A     -0.540973    26A     -0.516560    27A     -0.495661
      28A     -0.489079    29A     -0.461922    30A     -0.454344
      31A     -0.359063    32A     -0.357764

  @DF-RHF Final Energy:  -344.35163230659032

   => Energetics <=

    Nuclear Repulsion Energy =            420.5003187685412058
    One-Electron Energy =               -1299.9387037499366215
    Two-Electron Energy =                 535.0867526748050977
    Total Energy =                       -344.3516323065903180
  Basis Set: (AUG-CC-PVTZ AUX)
    Blend: AUG-CC-PVTZ-RI
    Molecular point group: c1

    Geometry (in Angstrom), charge = 0, multiplicity = 1:

       Center              X                  Y                   Z               Mass
    ------------   -----------------  -----------------  -----------------  -----------------
         N           -1.388718490746    -0.000142666727    -0.339156522055    14.003074004430
         N            1.388877509254    -0.000142666727     0.339292477945    14.003074004430
         C            0.734511509254    -1.190942666727    -0.193139522055    12.000000000000
         C           -0.734352490746    -1.190941666727     0.193274477945    12.000000000000
         C            0.734512509254     1.190658333273    -0.193138522055    12.000000000000
         C           -0.734353490746     1.190658333273     0.193274477945    12.000000000000
         C           -2.807469490746    -0.000143666727    -0.014805522055    12.000000000000
         C            2.807627509254    -0.000143666727     0.014939477945    12.000000000000
         H            0.817963509254    -1.244776666727    -1.295670522055     1.007825032230
         H            1.218476609254    -2.059906466727     0.218778077945     1.007825032230
         H            1.227468509254     2.075765333273     0.226431477945     1.007825032230
         H            0.817963509254     1.244493333273    -1.295669522055     1.007825032230
         H           -1.227308490746    -2.076049666727    -0.226293522055     1.007825032230
         H           -0.817804490746    -1.244776666727     1.295805477945     1.007825032230
         H           -0.817803490746     1.244492333273     1.295805477945     1.007825032230
         H           -1.227309490746     2.075765333273    -0.226294522055     1.007825032230
         H           -3.278489490746     0.886958333273    -0.447952522055     1.007825032230
         H           -2.998397490746    -0.000143666727     1.073753477945     1.007825032230
         H           -3.278489490746    -0.887245666727    -0.447951522055     1.007825032230
         H            2.998554509254    -0.000143666727    -1.073620522055     1.007825032230
         H            3.278648509254    -0.887245666727     0.448084477945     1.007825032230
         H            3.278649509254     0.886958333273     0.448084477945     1.007825032230

  Basis Set: AUG-CC-PVTZ
    Blend: AUG-CC-PVTZ
  Basis Set: (AUG-CC-PVTZ AUX)
    Blend: AUG-CC-PVTZ-JKFIT
	 Reference Energy          =    -344.3516323065903180 [Eh]
	 Singles Energy            =      -0.0000000000000000 [Eh]
	 Same-Spin Energy          =      -0.3689104503327645 [Eh]
	 Opposite-Spin Energy      =      -1.2702323988920434 [Eh]
	 Correlation Energy        =      -1.6391428492248079 [Eh]
	 Total Energy              =    -345.9907751558151290 [Eh]

	 ================> DF-SCS-MP2 Energies <==================
	-----------------------------------------------------------
	 SCS Same-Spin Scale       =       0.3333333333333333 [-]
	 SCS Opposite-Spin Scale   =       1.2000000000000000 [-]
	 SCS Same-Spin Energy      =      -0.1229701501109215 [Eh]
	 SCS Opposite-Spin Energy  =      -1.5242788786704520 [Eh]
	 SCS Correlation Energy    =      -1.6472490287813735 [Eh]
	 SCS Total Energy          =    -345.9988813353716637 [Eh]
	-----------------------------------------------------------

  Dipole Moment: [D]
     X:     0.0069      Y:    -0.0130      Z:     0.0021     Total:     0.0149

*** Psi4 exiting successfully. Buy a developer a beer!
