                               Psi4 1.4a3.dev225

  ==> Input File <==

--------------------------------------------------------------------------
#psi4
#
memory 32 gb

molecule  {
0 1
  N       -1.3887980     0.0000000    -0.3392240
  N        1.3887980     0.0000000     0.3392250
  C        0.7344320    -1.1908000    -0.1932070
  C       -0.7404766    -1.1453487     0.1665930
  C        0.7344330     1.1908010    -0.1932060
  C       -0.7344330     1.1908010     0.1932070
  C       -2.8075490    -0.0000010    -0.0148730
  C        2.8075480    -0.0000010     0.0148720
  H        0.8178840    -1.2446340    -1.2957380
  H        1.2273880    -2.0759070     0.2263630
  H        1.2273890     2.0759080     0.2263640
  H        0.8178840     1.2446360    -1.2957370
  H       -1.2273880    -2.0759070    -0.2263610
  H       -0.8178840    -1.2446340     1.2957380
  H       -0.8178830     1.2446350     1.2957380
  H       -1.2273890     2.0759080    -0.2263620
  H       -3.2785690     0.8871010    -0.4480200
  H       -2.9984770    -0.0000010     1.0736860
  H       -3.2785690    -0.8871030    -0.4480190
  H        2.9984750    -0.0000010    -1.0736880
  H        3.2785690    -0.8871030     0.4480170
  H        3.2785700     0.8871010     0.4480170
units angstrom
no_reorient  #important for SAPT in psi4, default
symmetry c1  #important for SAPT in psi4, default
}

set PROPERTIES_ORIGIN ["COM"]
properties('MP2/aug-cc-pvtz', properties = ['dipole'])
--------------------------------------------------------------------------

    Molecular point group: c1
  Charge       = 0
  Multiplicity = 1
  Basis Set: AUG-CC-PVTZ
    Blend: AUG-CC-PVTZ
  Basis Set: (AUG-CC-PVTZ AUX)
    Blend: AUG-CC-PVTZ-JKFIT

    Orbital Energies [Eh]
    ---------------------

    Doubly Occupied:

       1A    -15.545958     2A    -15.544612     3A    -11.244389
       4A    -11.244182     5A    -11.243305     6A    -11.242386
       7A    -11.242059     8A    -11.239888     9A     -1.261658
      10A     -1.208258    11A     -1.022301    12A     -0.989913
      13A     -0.909809    14A     -0.863981    15A     -0.833644
      16A     -0.755016    17A     -0.665929    18A     -0.633129
      19A     -0.631088    20A     -0.623996    21A     -0.621908
      22A     -0.583047    23A     -0.548169    24A     -0.542113
      25A     -0.540675    26A     -0.515494    27A     -0.497354
      28A     -0.484477    29A     -0.465448    30A     -0.451825
      31A     -0.359200    32A     -0.357031

  @DF-RHF Final Energy:  -344.34848988115965

   => Energetics <=

    Nuclear Repulsion Energy =            421.2762413403516462
    One-Electron Energy =               -1301.4249817845391135
    Two-Electron Energy =                 535.8002505630279302
    Total Energy =                       -344.3484898811595940
  Basis Set: (AUG-CC-PVTZ AUX)
    Blend: AUG-CC-PVTZ-RI
    Molecular point group: c1

    Geometry (in Angstrom), charge = 0, multiplicity = 1:

       Center              X                  Y                   Z               Mass
    ------------   -----------------  -----------------  -----------------  -----------------
         N           -1.388162266258    -0.004779487832    -0.336425471692    14.003074004430
         N            1.389433733742    -0.004779487832     0.342023528308    14.003074004430
         C            0.735067733742    -1.195579487832    -0.190408471692    12.000000000000
         C           -0.739840866258    -1.150128187832     0.169391528308    12.000000000000
         C            0.735068733742     1.186021512168    -0.190407471692    12.000000000000
         C           -0.733797266258     1.186021512168     0.196005528308    12.000000000000
         C           -2.806913266258    -0.004780487832    -0.012074471692    12.000000000000
         C            2.808183733742    -0.004780487832     0.017670528308    12.000000000000
         H            0.818519733742    -1.249413487832    -1.292939471692     1.007825032230
         H            1.228023733742    -2.080686487832     0.229161528308     1.007825032230
         H            1.228024733742     2.071128512168     0.229162528308     1.007825032230
         H            0.818519733742     1.239856512168    -1.292938471692     1.007825032230
         H           -1.226752266258    -2.080686487832    -0.223562471692     1.007825032230
         H           -0.817248266258    -1.249413487832     1.298536528308     1.007825032230
         H           -0.817247266258     1.239855512168     1.298536528308     1.007825032230
         H           -1.226753266258     2.071128512168    -0.223563471692     1.007825032230
         H           -3.277933266258     0.882321512168    -0.445221471692     1.007825032230
         H           -2.997841266258    -0.004780487832     1.076484528308     1.007825032230
         H           -3.277933266258    -0.891882487832    -0.445220471692     1.007825032230
         H            2.999110733742    -0.004780487832    -1.070889471692     1.007825032230
         H            3.279204733742    -0.891882487832     0.450815528308     1.007825032230
         H            3.279205733742     0.882321512168     0.450815528308     1.007825032230

  Basis Set: AUG-CC-PVTZ
    Blend: AUG-CC-PVTZ
  Basis Set: (AUG-CC-PVTZ AUX)
    Blend: AUG-CC-PVTZ-JKFIT
	 Reference Energy          =    -344.3484898811596508 [Eh]
	 Singles Energy            =      -0.0000000000000000 [Eh]
	 Same-Spin Energy          =      -0.3693779172670892 [Eh]
	 Opposite-Spin Energy      =      -1.2705460890790057 [Eh]
	 Correlation Energy        =      -1.6399240063460949 [Eh]
	 Total Energy              =    -345.9884138875057715 [Eh]

	 ================> DF-SCS-MP2 Energies <==================
	-----------------------------------------------------------
	 SCS Same-Spin Scale       =       0.3333333333333333 [-]
	 SCS Opposite-Spin Scale   =       1.2000000000000000 [-]
	 SCS Same-Spin Energy      =      -0.1231259724223631 [Eh]
	 SCS Opposite-Spin Energy  =      -1.5246553068948068 [Eh]
	 SCS Correlation Energy    =      -1.6477812793171698 [Eh]
	 SCS Total Energy          =    -345.9962711604767946 [Eh]
	-----------------------------------------------------------

  Dipole Moment: [D]
     X:    -0.0461      Y:     0.1076      Z:    -0.0702     Total:     0.1365

*** Psi4 exiting successfully. Buy a developer a beer!
