                               Psi4 1.4a3.dev225

  ==> Input File <==

--------------------------------------------------------------------------
#psi4
#
memory 32 gb

molecule  {
0 1
  N       -1.3728010     0.0145403    -0.3257555
  N        1.3887980     0.0000000     0.3392250
  C        0.7344320    -1.1908000    -0.1932070
  C       -0.7344320    -1.1907990     0.1932070
  C        0.7344330     1.1908010    -0.1932060
  C       -0.7344330     1.1908010     0.1932070
  C       -2.8075490    -0.0000010    -0.0148730
  C        2.8075480    -0.0000010     0.0148720
  H        0.8178840    -1.2446340    -1.2957380
  H        1.2273880    -2.0759070     0.2263630
  H        1.2273890     2.0759080     0.2263640
  H        0.8178840     1.2446360    -1.2957370
  H       -1.2273880    -2.0759070    -0.2263610
  H       -0.8178840    -1.2446340     1.2957380
  H       -0.8178830     1.2446350     1.2957380
  H       -1.2273890     2.0759080    -0.2263620
  H       -3.2785690     0.8871010    -0.4480200
  H       -2.9984770    -0.0000010     1.0736860
  H       -3.2785690    -0.8871030    -0.4480190
  H        2.9984750    -0.0000010    -1.0736880
  H        3.2785690    -0.8871030     0.4480170
  H        3.2785700     0.8871010     0.4480170
units angstrom
no_reorient  #important for SAPT in psi4, default
symmetry c1  #important for SAPT in psi4, default
}

set PROPERTIES_ORIGIN ["COM"]
properties('MP2/aug-cc-pvtz', properties = ['dipole'])
--------------------------------------------------------------------------

    Molecular point group: c1
  Charge       = 0
  Multiplicity = 1
  Basis Set: AUG-CC-PVTZ
    Blend: AUG-CC-PVTZ
  Basis Set: (AUG-CC-PVTZ AUX)
    Blend: AUG-CC-PVTZ-JKFIT

    Orbital Energies [Eh]
    ---------------------

    Doubly Occupied:

       1A    -15.544797     2A    -15.543895     3A    -11.243042
       4A    -11.242155     5A    -11.242021     6A    -11.241396
       7A    -11.240879     8A    -11.239885     9A     -1.256094
      10A     -1.202942    11A     -1.023153    12A     -0.987474
      13A     -0.907567    14A     -0.863306    15A     -0.833610
      16A     -0.755981    17A     -0.663570    18A     -0.632908
      19A     -0.627931    20A     -0.625153    21A     -0.621253
      22A     -0.578193    23A     -0.547551    24A     -0.543388
      25A     -0.541294    26A     -0.516361    27A     -0.495978
      28A     -0.489204    29A     -0.464393    30A     -0.452045
      31A     -0.358610    32A     -0.355906

  @DF-RHF Final Energy:  -344.35123766021997

   => Energetics <=

    Nuclear Repulsion Energy =            420.7312599028805380
    One-Electron Energy =               -1300.4011287780856492
    Two-Electron Energy =                 535.3186312149850892
    Total Energy =                       -344.3512376602200220
  Basis Set: (AUG-CC-PVTZ AUX)
    Blend: AUG-CC-PVTZ-RI
    Molecular point group: c1

    Geometry (in Angstrom), charge = 0, multiplicity = 1:

       Center              X                  Y                   Z               Mass
    ------------   -----------------  -----------------  -----------------  -----------------
         N           -1.374763877833     0.012755971535    -0.327408317204    14.003074004430
         N            1.386835122167    -0.001784328465     0.337572182796    14.003074004430
         C            0.732469122167    -1.192584328465    -0.194859817204    12.000000000000
         C           -0.736394877833    -1.192583328465     0.191554182796    12.000000000000
         C            0.732470122167     1.189016671535    -0.194858817204    12.000000000000
         C           -0.736395877833     1.189016671535     0.191554182796    12.000000000000
         C           -2.809511877833    -0.001785328465    -0.016525817204    12.000000000000
         C            2.805585122167    -0.001785328465     0.013219182796    12.000000000000
         H            0.815921122167    -1.246418328465    -1.297390817204     1.007825032230
         H            1.225425122167    -2.077691328465     0.224710182796     1.007825032230
         H            1.225426122167     2.074123671535     0.224711182796     1.007825032230
         H            0.815921122167     1.242851671535    -1.297389817204     1.007825032230
         H           -1.229350877833    -2.077691328465    -0.228013817204     1.007825032230
         H           -0.819846877833    -1.246418328465     1.294085182796     1.007825032230
         H           -0.819845877833     1.242850671535     1.294085182796     1.007825032230
         H           -1.229351877833     2.074123671535    -0.228014817204     1.007825032230
         H           -3.280531877833     0.885316671535    -0.449672817204     1.007825032230
         H           -3.000439877833    -0.001785328465     1.072033182796     1.007825032230
         H           -3.280531877833    -0.888887328465    -0.449671817204     1.007825032230
         H            2.996512122167    -0.001785328465    -1.075340817204     1.007825032230
         H            3.276606122167    -0.888887328465     0.446364182796     1.007825032230
         H            3.276607122167     0.885316671535     0.446364182796     1.007825032230

  Basis Set: AUG-CC-PVTZ
    Blend: AUG-CC-PVTZ
  Basis Set: (AUG-CC-PVTZ AUX)
    Blend: AUG-CC-PVTZ-JKFIT
	 Reference Energy          =    -344.3512376602199652 [Eh]
	 Singles Energy            =      -0.0000000000000000 [Eh]
	 Same-Spin Energy          =      -0.3689812962406783 [Eh]
	 Opposite-Spin Energy      =      -1.2702609115436234 [Eh]
	 Correlation Energy        =      -1.6392422077843016 [Eh]
	 Total Energy              =    -345.9904798680042859 [Eh]

	 ================> DF-SCS-MP2 Energies <==================
	-----------------------------------------------------------
	 SCS Same-Spin Scale       =       0.3333333333333333 [-]
	 SCS Opposite-Spin Scale   =       1.2000000000000000 [-]
	 SCS Same-Spin Energy      =      -0.1229937654135594 [Eh]
	 SCS Opposite-Spin Energy  =      -1.5243130938523481 [Eh]
	 SCS Correlation Energy    =      -1.6473068592659075 [Eh]
	 SCS Total Energy          =    -345.9985445194858471 [Eh]
	-----------------------------------------------------------

  Dipole Moment: [D]
     X:    -0.0545      Y:    -0.0427      Z:    -0.0389     Total:     0.0794

*** Psi4 exiting successfully. Buy a developer a beer!
