                               Psi4 1.4a3.dev225

  ==> Input File <==

--------------------------------------------------------------------------
#psi4
#
memory 32 gb

molecule  {
0 1
  N       -1.3887980     0.0000000    -0.3392240
  N        1.3887980     0.0000000     0.3392250
  C        0.7344320    -1.1908000    -0.1932070
  C       -0.7344320    -1.1907990     0.1932070
  C        0.7344330     1.1908010    -0.1932060
  C       -0.7344330     1.1908010     0.1932070
  C       -2.8075490    -0.0000010    -0.0148730
  C        2.9050328    -0.0000011    -0.0074149
  H        0.8178840    -1.2446340    -1.2957380
  H        1.2273880    -2.0759070     0.2263630
  H        1.2273890     2.0759080     0.2263640
  H        0.8178840     1.2446360    -1.2957370
  H       -1.2273880    -2.0759070    -0.2263610
  H       -0.8178840    -1.2446340     1.2957380
  H       -0.8178830     1.2446350     1.2957380
  H       -1.2273890     2.0759080    -0.2263620
  H       -3.2785690     0.8871010    -0.4480200
  H       -2.9984770    -0.0000010     1.0736860
  H       -3.2785690    -0.8871030    -0.4480190
  H        2.9984750    -0.0000010    -1.0736880
  H        3.2785690    -0.8871030     0.4480170
  H        3.2785700     0.8871010     0.4480170
units angstrom
no_reorient  #important for SAPT in psi4, default
symmetry c1  #important for SAPT in psi4, default
}

set PROPERTIES_ORIGIN ["COM"]
properties('MP2/aug-cc-pvtz', properties = ['dipole'])
--------------------------------------------------------------------------

    Molecular point group: c1
  Charge       = 0
  Multiplicity = 1
  Basis Set: AUG-CC-PVTZ
    Blend: AUG-CC-PVTZ
  Basis Set: (AUG-CC-PVTZ AUX)
    Blend: AUG-CC-PVTZ-JKFIT

    Orbital Energies [Eh]
    ---------------------

    Doubly Occupied:

       1A    -15.544042     2A    -15.543669     3A    -11.241286
       4A    -11.241270     5A    -11.240247     6A    -11.240236
       7A    -11.239273     8A    -11.239046     9A     -1.247199
      10A     -1.189271    11A     -1.019880    12A     -0.983812
      13A     -0.912088    14A     -0.858394    15A     -0.833839
      16A     -0.753121    17A     -0.657332    18A     -0.628670
      19A     -0.625751    20A     -0.623227    21A     -0.620252
      22A     -0.574053    23A     -0.558034    24A     -0.541110
      25A     -0.539470    26A     -0.519464    27A     -0.500522
      28A     -0.488125    29A     -0.460249    30A     -0.443477
      31A     -0.357832    32A     -0.354774

  @DF-RHF Final Energy:  -344.34324297056247

   => Energetics <=

    Nuclear Repulsion Energy =            418.5139366469608717
    One-Electron Energy =               -1296.0763271076909859
    Two-Electron Energy =                 533.2191474901676429
    Total Energy =                       -344.3432429705624145
  Basis Set: (AUG-CC-PVTZ AUX)
    Blend: AUG-CC-PVTZ-RI
    Molecular point group: c1

    Geometry (in Angstrom), charge = 0, multiplicity = 1:

       Center              X                  Y                   Z               Mass
    ------------   -----------------  -----------------  -----------------  -----------------
         N           -1.399049048855    -0.000000085809    -0.336880494100    14.003074004430
         N            1.378546951145    -0.000000085809     0.341568505900    14.003074004430
         C            0.724180951145    -1.190800085809    -0.190863494100    12.000000000000
         C           -0.744683048855    -1.190799085809     0.195550505900    12.000000000000
         C            0.724181951145     1.190800914191    -0.190862494100    12.000000000000
         C           -0.744684048855     1.190800914191     0.195550505900    12.000000000000
         C           -2.817800048855    -0.000001085809    -0.012529494100    12.000000000000
         C            2.894781751145    -0.000001185809    -0.005071394100    12.000000000000
         H            0.807632951145    -1.244634085809    -1.293394494100     1.007825032230
         H            1.217136951145    -2.075907085809     0.228706505900     1.007825032230
         H            1.217137951145     2.075907914191     0.228707505900     1.007825032230
         H            0.807632951145     1.244635914191    -1.293393494100     1.007825032230
         H           -1.237639048855    -2.075907085809    -0.224017494100     1.007825032230
         H           -0.828135048855    -1.244634085809     1.298081505900     1.007825032230
         H           -0.828134048855     1.244634914191     1.298081505900     1.007825032230
         H           -1.237640048855     2.075907914191    -0.224018494100     1.007825032230
         H           -3.288820048855     0.887100914191    -0.445676494100     1.007825032230
         H           -3.008728048855    -0.000001085809     1.076029505900     1.007825032230
         H           -3.288820048855    -0.887103085809    -0.445675494100     1.007825032230
         H            2.988223951145    -0.000001085809    -1.071344494100     1.007825032230
         H            3.268317951145    -0.887103085809     0.450360505900     1.007825032230
         H            3.268318951145     0.887100914191     0.450360505900     1.007825032230

  Basis Set: AUG-CC-PVTZ
    Blend: AUG-CC-PVTZ
  Basis Set: (AUG-CC-PVTZ AUX)
    Blend: AUG-CC-PVTZ-JKFIT
	 Reference Energy          =    -344.3432429705624713 [Eh]
	 Singles Energy            =      -0.0000000000000000 [Eh]
	 Same-Spin Energy          =      -0.3687910422099127 [Eh]
	 Opposite-Spin Energy      =      -1.2713484704458025 [Eh]
	 Correlation Energy        =      -1.6401395126557152 [Eh]
	 Total Energy              =    -345.9833824832181790 [Eh]

	 ================> DF-SCS-MP2 Energies <==================
	-----------------------------------------------------------
	 SCS Same-Spin Scale       =       0.3333333333333333 [-]
	 SCS Opposite-Spin Scale   =       1.2000000000000000 [-]
	 SCS Same-Spin Energy      =      -0.1229303474033042 [Eh]
	 SCS Opposite-Spin Energy  =      -1.5256181645349629 [Eh]
	 SCS Correlation Energy    =      -1.6485485119382670 [Eh]
	 SCS Total Energy          =    -345.9917914825007301 [Eh]
	-----------------------------------------------------------

  Dipole Moment: [D]
     X:     0.2083      Y:     0.0000      Z:    -0.0723     Total:     0.2205

*** Psi4 exiting successfully. Buy a developer a beer!
