                               Psi4 1.4a3.dev225

  ==> Input File <==

--------------------------------------------------------------------------
#psi4
#
memory 32 gb

molecule  {
0 1
  N       -1.3566096     0.0287134    -0.3121290
  N        1.3887980     0.0000000     0.3392250
  C        0.7344320    -1.1908000    -0.1932070
  C       -0.7344320    -1.1907990     0.1932070
  C        0.7344330     1.1908010    -0.1932060
  C       -0.7344330     1.1908010     0.1932070
  C       -2.8075490    -0.0000010    -0.0148730
  C        2.8075480    -0.0000010     0.0148720
  H        0.8178840    -1.2446340    -1.2957380
  H        1.2273880    -2.0759070     0.2263630
  H        1.2273890     2.0759080     0.2263640
  H        0.8178840     1.2446360    -1.2957370
  H       -1.2273880    -2.0759070    -0.2263610
  H       -0.8178840    -1.2446340     1.2957380
  H       -0.8178830     1.2446350     1.2957380
  H       -1.2273890     2.0759080    -0.2263620
  H       -3.2785690     0.8871010    -0.4480200
  H       -2.9984770    -0.0000010     1.0736860
  H       -3.2785690    -0.8871030    -0.4480190
  H        2.9984750    -0.0000010    -1.0736880
  H        3.2785690    -0.8871030     0.4480170
  H        3.2785700     0.8871010     0.4480170
units angstrom
no_reorient  #important for SAPT in psi4, default
symmetry c1  #important for SAPT in psi4, default
}

set PROPERTIES_ORIGIN ["COM"]
properties('MP2/aug-cc-pvtz', properties = ['dipole'])
--------------------------------------------------------------------------

    Molecular point group: c1
  Charge       = 0
  Multiplicity = 1
  Basis Set: AUG-CC-PVTZ
    Blend: AUG-CC-PVTZ
  Basis Set: (AUG-CC-PVTZ AUX)
    Blend: AUG-CC-PVTZ-JKFIT

    Orbital Energies [Eh]
    ---------------------

    Doubly Occupied:

       1A    -15.544559     2A    -15.542761     3A    -11.243327
       4A    -11.242725     5A    -11.241886     6A    -11.241232
       7A    -11.239661     8A    -11.239203     9A     -1.257999
      10A     -1.203297    11A     -1.024062    12A     -0.986061
      13A     -0.908264    14A     -0.864698    15A     -0.833728
      16A     -0.755298    17A     -0.664038    18A     -0.633489
      19A     -0.628256    20A     -0.624982    21A     -0.621282
      22A     -0.576809    23A     -0.548072    24A     -0.545409
      25A     -0.541525    26A     -0.516277    27A     -0.496648
      28A     -0.489205    29A     -0.467170    30A     -0.449261
      31A     -0.358280    32A     -0.353535

  @DF-RHF Final Energy:  -344.34962526677543

   => Energetics <=

    Nuclear Repulsion Energy =            421.0759774725448210
    One-Electron Energy =               -1301.0852104800555935
    Two-Electron Energy =                 535.6596077407353960
    Total Energy =                       -344.3496252667754334
  Basis Set: (AUG-CC-PVTZ AUX)
    Blend: AUG-CC-PVTZ-RI
    Molecular point group: c1

    Geometry (in Angstrom), charge = 0, multiplicity = 1:

       Center              X                  Y                   Z               Mass
    ------------   -----------------  -----------------  -----------------  -----------------
         N           -1.360559315538     0.025189898302    -0.315453917454    14.003074004430
         N            1.384848284462    -0.003523501698     0.335900082546    14.003074004430
         C            0.730482284462    -1.194323501698    -0.196531917454    12.000000000000
         C           -0.738381715538    -1.194322501698     0.189882082546    12.000000000000
         C            0.730483284462     1.187277498302    -0.196530917454    12.000000000000
         C           -0.738382715538     1.187277498302     0.189882082546    12.000000000000
         C           -2.811498715538    -0.003524501698    -0.018197917454    12.000000000000
         C            2.803598284462    -0.003524501698     0.011547082546    12.000000000000
         H            0.813934284462    -1.248157501698    -1.299062917454     1.007825032230
         H            1.223438284462    -2.079430501698     0.223038082546     1.007825032230
         H            1.223439284462     2.072384498302     0.223039082546     1.007825032230
         H            0.813934284462     1.241112498302    -1.299061917454     1.007825032230
         H           -1.231337715538    -2.079430501698    -0.229685917454     1.007825032230
         H           -0.821833715538    -1.248157501698     1.292413082546     1.007825032230
         H           -0.821832715538     1.241111498302     1.292413082546     1.007825032230
         H           -1.231338715538     2.072384498302    -0.229686917454     1.007825032230
         H           -3.282518715538     0.883577498302    -0.451344917454     1.007825032230
         H           -3.002426715538    -0.003524501698     1.070361082546     1.007825032230
         H           -3.282518715538    -0.890626501698    -0.451343917454     1.007825032230
         H            2.994525284462    -0.003524501698    -1.077012917454     1.007825032230
         H            3.274619284462    -0.890626501698     0.444692082546     1.007825032230
         H            3.274620284462     0.883577498302     0.444692082546     1.007825032230

  Basis Set: AUG-CC-PVTZ
    Blend: AUG-CC-PVTZ
  Basis Set: (AUG-CC-PVTZ AUX)
    Blend: AUG-CC-PVTZ-JKFIT
	 Reference Energy          =    -344.3496252667754334 [Eh]
	 Singles Energy            =      -0.0000000000000000 [Eh]
	 Same-Spin Energy          =      -0.3690834627012326 [Eh]
	 Opposite-Spin Energy      =      -1.2702520253518661 [Eh]
	 Correlation Energy        =      -1.6393354880530988 [Eh]
	 Total Energy              =    -345.9889607548285539 [Eh]

	 ================> DF-SCS-MP2 Energies <==================
	-----------------------------------------------------------
	 SCS Same-Spin Scale       =       0.3333333333333333 [-]
	 SCS Opposite-Spin Scale   =       1.2000000000000000 [-]
	 SCS Same-Spin Energy      =      -0.1230278209004109 [Eh]
	 SCS Opposite-Spin Energy  =      -1.5243024304222392 [Eh]
	 SCS Correlation Energy    =      -1.6473302513226500 [Eh]
	 SCS Total Energy          =    -345.9969555180981047 [Eh]
	-----------------------------------------------------------

  Dipole Moment: [D]
     X:    -0.1097      Y:    -0.0874      Z:    -0.0799     Total:     0.1614

*** Psi4 exiting successfully. Buy a developer a beer!
