                               Psi4 1.4a3.dev225

  ==> Input File <==

--------------------------------------------------------------------------
#psi4
#
memory 32 gb

molecule  {
0 1
  N       -1.3626662     0.0000000    -0.1891473
  N        1.3887980     0.0000000     0.3392250
  C        0.7344320    -1.1908000    -0.1932070
  C       -0.7344320    -1.1907990     0.1932070
  C        0.7344330     1.1908010    -0.1932060
  C       -0.7344330     1.1908010     0.1932070
  C       -2.8075490    -0.0000010    -0.0148730
  C        2.8075480    -0.0000010     0.0148720
  H        0.8178840    -1.2446340    -1.2957380
  H        1.2273880    -2.0759070     0.2263630
  H        1.2273890     2.0759080     0.2263640
  H        0.8178840     1.2446360    -1.2957370
  H       -1.2273880    -2.0759070    -0.2263610
  H       -0.8178840    -1.2446340     1.2957380
  H       -0.8178830     1.2446350     1.2957380
  H       -1.2273890     2.0759080    -0.2263620
  H       -3.2785690     0.8871010    -0.4480200
  H       -2.9984770    -0.0000010     1.0736860
  H       -3.2785690    -0.8871030    -0.4480190
  H        2.9984750    -0.0000010    -1.0736880
  H        3.2785690    -0.8871030     0.4480170
  H        3.2785700     0.8871010     0.4480170
units angstrom
no_reorient  #important for SAPT in psi4, default
symmetry c1  #important for SAPT in psi4, default
}

set PROPERTIES_ORIGIN ["COM"]
properties('MP2/aug-cc-pvtz', properties = ['dipole'])
--------------------------------------------------------------------------

    Molecular point group: c1
  Charge       = 0
  Multiplicity = 1
  Basis Set: AUG-CC-PVTZ
    Blend: AUG-CC-PVTZ
  Basis Set: (AUG-CC-PVTZ AUX)
    Blend: AUG-CC-PVTZ-JKFIT

    Orbital Energies [Eh]
    ---------------------

    Doubly Occupied:

       1A    -15.545202     2A    -15.531424     3A    -11.243183
       4A    -11.242786     5A    -11.242772     6A    -11.240437
       7A    -11.240422     8A    -11.240099     9A     -1.266437
      10A     -1.209495    11A     -1.027480    12A     -0.989389
      13A     -0.912041    14A     -0.872460    15A     -0.834478
      16A     -0.750883    17A     -0.667845    18A     -0.642447
      19A     -0.635650    20A     -0.623570    21A     -0.621953
      22A     -0.577122    23A     -0.551009    24A     -0.549790
      25A     -0.548213    26A     -0.514851    27A     -0.500139
      28A     -0.489371    29A     -0.472436    30A     -0.455581
      31A     -0.358898    32A     -0.329800

  @DF-RHF Final Energy:  -344.34314325513390

   => Energetics <=

    Nuclear Repulsion Energy =            422.3545973275578831
    One-Electron Energy =               -1303.5401518052635765
    Two-Electron Energy =                 536.8424112225717408
    Total Energy =                       -344.3431432551338958
  Basis Set: (AUG-CC-PVTZ AUX)
    Blend: AUG-CC-PVTZ-RI
    Molecular point group: c1

    Geometry (in Angstrom), charge = 0, multiplicity = 1:

       Center              X                  Y                   Z               Mass
    ------------   -----------------  -----------------  -----------------  -----------------
         N           -1.365872713514    -0.000000096325    -0.207563233585    14.003074004430
         N            1.385591486486    -0.000000096325     0.320809066415    14.003074004430
         C            0.731225486486    -1.190800096325    -0.211622933585    12.000000000000
         C           -0.737638513514    -1.190799096325     0.174791066415    12.000000000000
         C            0.731226486486     1.190800903675    -0.211621933585    12.000000000000
         C           -0.737639513514     1.190800903675     0.174791066415    12.000000000000
         C           -2.810755513514    -0.000001096325    -0.033288933585    12.000000000000
         C            2.804341486486    -0.000001096325    -0.003543933585    12.000000000000
         H            0.814677486486    -1.244634096325    -1.314153933585     1.007825032230
         H            1.224181486486    -2.075907096325     0.207947066415     1.007825032230
         H            1.224182486486     2.075907903675     0.207948066415     1.007825032230
         H            0.814677486486     1.244635903675    -1.314152933585     1.007825032230
         H           -1.230594513514    -2.075907096325    -0.244776933585     1.007825032230
         H           -0.821090513514    -1.244634096325     1.277322066415     1.007825032230
         H           -0.821089513514     1.244634903675     1.277322066415     1.007825032230
         H           -1.230595513514     2.075907903675    -0.244777933585     1.007825032230
         H           -3.281775513514     0.887100903675    -0.466435933585     1.007825032230
         H           -3.001683513514    -0.000001096325     1.055270066415     1.007825032230
         H           -3.281775513514    -0.887103096325    -0.466434933585     1.007825032230
         H            2.995268486486    -0.000001096325    -1.092103933585     1.007825032230
         H            3.275362486486    -0.887103096325     0.429601066415     1.007825032230
         H            3.275363486486     0.887100903675     0.429601066415     1.007825032230

  Basis Set: AUG-CC-PVTZ
    Blend: AUG-CC-PVTZ
  Basis Set: (AUG-CC-PVTZ AUX)
    Blend: AUG-CC-PVTZ-JKFIT
	 Reference Energy          =    -344.3431432551338958 [Eh]
	 Singles Energy            =      -0.0000000000000000 [Eh]
	 Same-Spin Energy          =      -0.3693182524062624 [Eh]
	 Opposite-Spin Energy      =      -1.2689908919685631 [Eh]
	 Correlation Energy        =      -1.6383091443748254 [Eh]
	 Total Energy              =    -345.9814523995087256 [Eh]

	 ================> DF-SCS-MP2 Energies <==================
	-----------------------------------------------------------
	 SCS Same-Spin Scale       =       0.3333333333333333 [-]
	 SCS Opposite-Spin Scale   =       1.2000000000000000 [-]
	 SCS Same-Spin Energy      =      -0.1231060841354208 [Eh]
	 SCS Opposite-Spin Energy  =      -1.5227890703622757 [Eh]
	 SCS Correlation Energy    =      -1.6458951544976965 [Eh]
	 SCS Total Energy          =    -345.9890384096315756 [Eh]
	-----------------------------------------------------------

  Dipole Moment: [D]
     X:    -0.0913      Y:     0.0000      Z:    -0.4880     Total:     0.4964

*** Psi4 exiting successfully. Buy a developer a beer!
