                               Psi4 1.4a3.dev225

  ==> Input File <==

--------------------------------------------------------------------------
#psi4
#
memory 32 gb

molecule  {
0 1
  N       -1.3887980     0.0000000    -0.3392240
  N        1.3887980     0.0000000     0.3392250
  C        0.7344320    -1.1908000    -0.1932070
  C       -0.7344320    -1.1907990     0.1932070
  C        0.7344330     1.1908010    -0.1932060
  C       -0.7344330     1.1908010     0.1932070
  C       -2.6125792    -0.0000009    -0.0594465
  C        2.8075480    -0.0000010     0.0148720
  H        0.8178840    -1.2446340    -1.2957380
  H        1.2273880    -2.0759070     0.2263630
  H        1.2273890     2.0759080     0.2263640
  H        0.8178840     1.2446360    -1.2957370
  H       -1.2273880    -2.0759070    -0.2263610
  H       -0.8178840    -1.2446340     1.2957380
  H       -0.8178830     1.2446350     1.2957380
  H       -1.2273890     2.0759080    -0.2263620
  H       -3.2785690     0.8871010    -0.4480200
  H       -2.9984770    -0.0000010     1.0736860
  H       -3.2785690    -0.8871030    -0.4480190
  H        2.9984750    -0.0000010    -1.0736880
  H        3.2785690    -0.8871030     0.4480170
  H        3.2785700     0.8871010     0.4480170
units angstrom
no_reorient  #important for SAPT in psi4, default
symmetry c1  #important for SAPT in psi4, default
}

set PROPERTIES_ORIGIN ["COM"]
properties('MP2/aug-cc-pvtz', properties = ['dipole'])
--------------------------------------------------------------------------

    Molecular point group: c1
  Charge       = 0
  Multiplicity = 1
  Basis Set: AUG-CC-PVTZ
    Blend: AUG-CC-PVTZ
  Basis Set: (AUG-CC-PVTZ AUX)
    Blend: AUG-CC-PVTZ-JKFIT

    Orbital Energies [Eh]
    ---------------------

    Doubly Occupied:

       1A    -15.549397     2A    -15.547009     3A    -11.250494
       4A    -11.250482     5A    -11.250083     6A    -11.247405
       7A    -11.247393     8A    -11.243487     9A     -1.297760
      10A     -1.227819    11A     -1.030291    12A     -1.005891
      13A     -0.902200    14A     -0.873286    15A     -0.826188
      16A     -0.766883    17A     -0.682668    18A     -0.647065
      19A     -0.641887    20A     -0.631189    21A     -0.629138
      22A     -0.602162    23A     -0.549280    24A     -0.543129
      25A     -0.536683    26A     -0.501963    27A     -0.497116
      28A     -0.478705    29A     -0.467000    30A     -0.445782
      31A     -0.363043    32A     -0.352188

  @DF-RHF Final Energy:  -344.30249052971624

   => Energetics <=

    Nuclear Repulsion Energy =            424.6577762346377654
    One-Electron Energy =               -1307.7504000326316600
    Two-Electron Energy =                 538.7901332682776001
    Total Energy =                       -344.3024905297162377
  Basis Set: (AUG-CC-PVTZ AUX)
    Blend: AUG-CC-PVTZ-RI
    Molecular point group: c1

    Geometry (in Angstrom), charge = 0, multiplicity = 1:

       Center              X                  Y                   Z               Mass
    ------------   -----------------  -----------------  -----------------  -----------------
         N           -1.409300223897    -0.000000106840    -0.334536914702    14.003074004430
         N            1.368295776103    -0.000000106840     0.343912085298    14.003074004430
         C            0.713929776103    -1.190800106840    -0.188519914702    12.000000000000
         C           -0.754934223897    -1.190799106840     0.197894085298    12.000000000000
         C            0.713930776103     1.190800893160    -0.188518914702    12.000000000000
         C           -0.754935223897     1.190800893160     0.197894085298    12.000000000000
         C           -2.633081423897    -0.000001006840    -0.054759414702    12.000000000000
         C            2.787045776103    -0.000001106840     0.019559085298    12.000000000000
         H            0.797381776103    -1.244634106840    -1.291050914702     1.007825032230
         H            1.206885776103    -2.075907106840     0.231050085298     1.007825032230
         H            1.206886776103     2.075907893160     0.231051085298     1.007825032230
         H            0.797381776103     1.244635893160    -1.291049914702     1.007825032230
         H           -1.247890223897    -2.075907106840    -0.221673914702     1.007825032230
         H           -0.838386223897    -1.244634106840     1.300425085298     1.007825032230
         H           -0.838385223897     1.244634893160     1.300425085298     1.007825032230
         H           -1.247891223897     2.075907893160    -0.221674914702     1.007825032230
         H           -3.299071223897     0.887100893160    -0.443332914702     1.007825032230
         H           -3.018979223897    -0.000001106840     1.078373085298     1.007825032230
         H           -3.299071223897    -0.887103106840    -0.443331914702     1.007825032230
         H            2.977972776103    -0.000001106840    -1.069000914702     1.007825032230
         H            3.258066776103    -0.887103106840     0.452704085298     1.007825032230
         H            3.258067776103     0.887100893160     0.452704085298     1.007825032230

  Basis Set: AUG-CC-PVTZ
    Blend: AUG-CC-PVTZ
  Basis Set: (AUG-CC-PVTZ AUX)
    Blend: AUG-CC-PVTZ-JKFIT
	 Reference Energy          =    -344.3024905297162377 [Eh]
	 Singles Energy            =      -0.0000000000000000 [Eh]
	 Same-Spin Energy          =      -0.3716438473328563 [Eh]
	 Opposite-Spin Energy      =      -1.2724710672975443 [Eh]
	 Correlation Energy        =      -1.6441149146304006 [Eh]
	 Total Energy              =    -345.9466054443466305 [Eh]

	 ================> DF-SCS-MP2 Energies <==================
	-----------------------------------------------------------
	 SCS Same-Spin Scale       =       0.3333333333333333 [-]
	 SCS Opposite-Spin Scale   =       1.2000000000000000 [-]
	 SCS Same-Spin Energy      =      -0.1238812824442854 [Eh]
	 SCS Opposite-Spin Energy  =      -1.5269652807570531 [Eh]
	 SCS Correlation Energy    =      -1.6508465632013385 [Eh]
	 SCS Total Energy          =    -345.9533370929175931 [Eh]
	-----------------------------------------------------------

  Dipole Moment: [D]
     X:     0.7659      Y:     0.0000      Z:    -0.2258     Total:     0.7985

*** Psi4 exiting successfully. Buy a developer a beer!
