                               Psi4 1.4a3.dev225

  ==> Input File <==

--------------------------------------------------------------------------
#psi4
#
memory 32 gb

molecule  {
0 1
  N       -1.3887980     0.0000000    -0.3392240
  N        1.3887980     0.0000000     0.3392250
  C        0.7344320    -1.1908000    -0.1932070
  C       -0.7344320    -1.1907990     0.1932070
  C        0.7344330     1.1908010    -0.1932060
  C       -0.7344330     1.1908010     0.1932070
  C       -2.8075490    -0.0000010    -0.0148730
  C        2.8075480    -0.0000010     0.0148720
  H        0.8178840    -1.2446340    -1.2957380
  H        1.2273880    -2.0759070     0.2263630
  H        1.2498662     2.1162661     0.2454951
  H        0.8178840     1.2446360    -1.2957370
  H       -1.2273880    -2.0759070    -0.2263610
  H       -0.8178840    -1.2446340     1.2957380
  H       -0.8178830     1.2446350     1.2957380
  H       -1.2273890     2.0759080    -0.2263620
  H       -3.2785690     0.8871010    -0.4480200
  H       -2.9984770    -0.0000010     1.0736860
  H       -3.2785690    -0.8871030    -0.4480190
  H        2.9984750    -0.0000010    -1.0736880
  H        3.2785690    -0.8871030     0.4480170
  H        3.2785700     0.8871010     0.4480170
units angstrom
no_reorient  #important for SAPT in psi4, default
symmetry c1  #important for SAPT in psi4, default
}

set PROPERTIES_ORIGIN ["COM"]
properties('MP2/aug-cc-pvtz', properties = ['dipole'])
--------------------------------------------------------------------------

    Molecular point group: c1
  Charge       = 0
  Multiplicity = 1
  Basis Set: AUG-CC-PVTZ
    Blend: AUG-CC-PVTZ
  Basis Set: (AUG-CC-PVTZ AUX)
    Blend: AUG-CC-PVTZ-JKFIT

    Orbital Energies [Eh]
    ---------------------

    Doubly Occupied:

       1A    -15.545626     2A    -15.545430     3A    -11.248783
       4A    -11.243417     5A    -11.243059     6A    -11.242738
       7A    -11.240409     8A    -11.240115     9A     -1.254771
      10A     -1.203021    11A     -1.021334    12A     -0.988833
      13A     -0.907045    14A     -0.860387    15A     -0.832575
      16A     -0.756371    17A     -0.661994    18A     -0.629807
      19A     -0.627935    20A     -0.625680    21A     -0.621451
      22A     -0.580053    23A     -0.547039    24A     -0.541348
      25A     -0.538660    26A     -0.516246    27A     -0.494771
      28A     -0.489632    29A     -0.460158    30A     -0.453886
      31A     -0.359493    32A     -0.358186

  @DF-RHF Final Energy:  -344.34934598167433

   => Energetics <=

    Nuclear Repulsion Energy =            420.1372701283572155
    One-Electron Energy =               -1299.2127289891768669
    Two-Electron Energy =                 534.7261128791453757
    Total Energy =                       -344.3493459816743325
  Basis Set: (AUG-CC-PVTZ AUX)
    Blend: AUG-CC-PVTZ-RI
    Molecular point group: c1

    Geometry (in Angstrom), charge = 0, multiplicity = 1:

       Center              X                  Y                   Z               Mass
    ------------   -----------------  -----------------  -----------------  -----------------
         N           -1.388996404647    -0.000356523214    -0.339393063408    14.003074004430
         N            1.388599595353    -0.000356523214     0.339055936592    14.003074004430
         C            0.734233595353    -1.191156523214    -0.193376063408    12.000000000000
         C           -0.734630404647    -1.191155523214     0.193037936592    12.000000000000
         C            0.734234595353     1.190444476786    -0.193375063408    12.000000000000
         C           -0.734631404647     1.190444476786     0.193037936592    12.000000000000
         C           -2.807747404647    -0.000357523214    -0.015042063408    12.000000000000
         C            2.807349595353    -0.000357523214     0.014702936592    12.000000000000
         H            0.817685595353    -1.244990523214    -1.295907063408     1.007825032230
         H            1.227189595353    -2.076263523214     0.226193936592     1.007825032230
         H            1.249667795353     2.115909576786     0.245326036592     1.007825032230
         H            0.817685595353     1.244279476786    -1.295906063408     1.007825032230
         H           -1.227586404647    -2.076263523214    -0.226530063408     1.007825032230
         H           -0.818082404647    -1.244990523214     1.295568936592     1.007825032230
         H           -0.818081404647     1.244278476786     1.295568936592     1.007825032230
         H           -1.227587404647     2.075551476786    -0.226531063408     1.007825032230
         H           -3.278767404647     0.886744476786    -0.448189063408     1.007825032230
         H           -2.998675404647    -0.000357523214     1.073516936592     1.007825032230
         H           -3.278767404647    -0.887459523214    -0.448188063408     1.007825032230
         H            2.998276595353    -0.000357523214    -1.073857063408     1.007825032230
         H            3.278370595353    -0.887459523214     0.447847936592     1.007825032230
         H            3.278371595353     0.886744476786     0.447847936592     1.007825032230

  Basis Set: AUG-CC-PVTZ
    Blend: AUG-CC-PVTZ
  Basis Set: (AUG-CC-PVTZ AUX)
    Blend: AUG-CC-PVTZ-JKFIT
	 Reference Energy          =    -344.3493459816743325 [Eh]
	 Singles Energy            =      -0.0000000000000000 [Eh]
	 Same-Spin Energy          =      -0.3689901656191625 [Eh]
	 Opposite-Spin Energy      =      -1.2707612214075554 [Eh]
	 Correlation Energy        =      -1.6397513870267180 [Eh]
	 Total Energy              =    -345.9890973687010387 [Eh]

	 ================> DF-SCS-MP2 Energies <==================
	-----------------------------------------------------------
	 SCS Same-Spin Scale       =       0.3333333333333333 [-]
	 SCS Opposite-Spin Scale   =       1.2000000000000000 [-]
	 SCS Same-Spin Energy      =      -0.1229967218730542 [Eh]
	 SCS Opposite-Spin Energy  =      -1.5249134656890664 [Eh]
	 SCS Correlation Energy    =      -1.6479101875621205 [Eh]
	 SCS Total Energy          =    -345.9972561692364366 [Eh]
	-----------------------------------------------------------

  Dipole Moment: [D]
     X:    -0.0190      Y:    -0.0359      Z:    -0.0062     Total:     0.0411

*** Psi4 exiting successfully. Buy a developer a beer!
