                               Psi4 1.4a3.dev225

  ==> Input File <==

--------------------------------------------------------------------------
#psi4
#
memory 32 gb

molecule  {
0 1
  N       -1.3887980     0.0000000    -0.3392240
  N        1.3887980     0.0000000     0.3392250
  C        0.7344320    -1.1908000    -0.1932070
  C       -0.7344320    -1.1907990     0.1932070
  C        0.7344330     1.1908010    -0.1932060
  C       -0.7344330     1.1908010     0.1932070
  C       -2.8075490    -0.0000010    -0.0148730
  C        2.6125783    -0.0000009     0.0594457
  H        0.8178840    -1.2446340    -1.2957380
  H        1.2273880    -2.0759070     0.2263630
  H        1.2273890     2.0759080     0.2263640
  H        0.8178840     1.2446360    -1.2957370
  H       -1.2273880    -2.0759070    -0.2263610
  H       -0.8178840    -1.2446340     1.2957380
  H       -0.8178830     1.2446350     1.2957380
  H       -1.2273890     2.0759080    -0.2263620
  H       -3.2785690     0.8871010    -0.4480200
  H       -2.9984770    -0.0000010     1.0736860
  H       -3.2785690    -0.8871030    -0.4480190
  H        2.9984750    -0.0000010    -1.0736880
  H        3.2785690    -0.8871030     0.4480170
  H        3.2785700     0.8871010     0.4480170
units angstrom
no_reorient  #important for SAPT in psi4, default
symmetry c1  #important for SAPT in psi4, default
}

set PROPERTIES_ORIGIN ["COM"]
properties('MP2/aug-cc-pvtz', properties = ['dipole'])
--------------------------------------------------------------------------

    Molecular point group: c1
  Charge       = 0
  Multiplicity = 1
  Basis Set: AUG-CC-PVTZ
    Blend: AUG-CC-PVTZ
  Basis Set: (AUG-CC-PVTZ AUX)
    Blend: AUG-CC-PVTZ-JKFIT

    Orbital Energies [Eh]
    ---------------------

    Doubly Occupied:

       1A    -15.549397     2A    -15.547009     3A    -11.250494
       4A    -11.250482     5A    -11.250083     6A    -11.247405
       7A    -11.247393     8A    -11.243487     9A     -1.297760
      10A     -1.227819    11A     -1.030291    12A     -1.005891
      13A     -0.902200    14A     -0.873286    15A     -0.826188
      16A     -0.766883    17A     -0.682667    18A     -0.647065
      19A     -0.641887    20A     -0.631189    21A     -0.629138
      22A     -0.602163    23A     -0.549280    24A     -0.543129
      25A     -0.536683    26A     -0.501962    27A     -0.497116
      28A     -0.478706    29A     -0.467000    30A     -0.445781
      31A     -0.363043    32A     -0.352188

  @DF-RHF Final Energy:  -344.30249017239299

   => Energetics <=

    Nuclear Repulsion Energy =            424.6577768781040163
    One-Electron Energy =               -1307.7504000949461442
    Two-Electron Energy =                 538.7901330444491350
    Total Energy =                       -344.3024901723930498
  Basis Set: (AUG-CC-PVTZ AUX)
    Blend: AUG-CC-PVTZ-RI
    Molecular point group: c1

    Geometry (in Angstrom), charge = 0, multiplicity = 1:

       Center              X                  Y                   Z               Mass
    ------------   -----------------  -----------------  -----------------  -----------------
         N           -1.368295576306    -0.000000106840    -0.343911316422    14.003074004430
         N            1.409300423694    -0.000000106840     0.334537683578    14.003074004430
         C            0.754934423694    -1.190800106840    -0.197894316422    12.000000000000
         C           -0.713929576306    -1.190799106840     0.188519683578    12.000000000000
         C            0.754935423694     1.190800893160    -0.197893316422    12.000000000000
         C           -0.713930576306     1.190800893160     0.188519683578    12.000000000000
         C           -2.787046576306    -0.000001106840    -0.019560316422    12.000000000000
         C            2.633080723694    -0.000001006840     0.054758383578    12.000000000000
         H            0.838386423694    -1.244634106840    -1.300425316422     1.007825032230
         H            1.247890423694    -2.075907106840     0.221675683578     1.007825032230
         H            1.247891423694     2.075907893160     0.221676683578     1.007825032230
         H            0.838386423694     1.244635893160    -1.300424316422     1.007825032230
         H           -1.206885576306    -2.075907106840    -0.231048316422     1.007825032230
         H           -0.797381576306    -1.244634106840     1.291050683578     1.007825032230
         H           -0.797380576306     1.244634893160     1.291050683578     1.007825032230
         H           -1.206886576306     2.075907893160    -0.231049316422     1.007825032230
         H           -3.258066576306     0.887100893160    -0.452707316422     1.007825032230
         H           -2.977974576306    -0.000001106840     1.068998683578     1.007825032230
         H           -3.258066576306    -0.887103106840    -0.452706316422     1.007825032230
         H            3.018977423694    -0.000001106840    -1.078375316422     1.007825032230
         H            3.299071423694    -0.887103106840     0.443329683578     1.007825032230
         H            3.299072423694     0.887100893160     0.443329683578     1.007825032230

  Basis Set: AUG-CC-PVTZ
    Blend: AUG-CC-PVTZ
  Basis Set: (AUG-CC-PVTZ AUX)
    Blend: AUG-CC-PVTZ-JKFIT
	 Reference Energy          =    -344.3024901723929929 [Eh]
	 Singles Energy            =      -0.0000000000000000 [Eh]
	 Same-Spin Energy          =      -0.3716438589519689 [Eh]
	 Opposite-Spin Energy      =      -1.2724710866658002 [Eh]
	 Correlation Energy        =      -1.6441149456177691 [Eh]
	 Total Energy              =    -345.9466051180107797 [Eh]

	 ================> DF-SCS-MP2 Energies <==================
	-----------------------------------------------------------
	 SCS Same-Spin Scale       =       0.3333333333333333 [-]
	 SCS Opposite-Spin Scale   =       1.2000000000000000 [-]
	 SCS Same-Spin Energy      =      -0.1238812863173230 [Eh]
	 SCS Opposite-Spin Energy  =      -1.5269653039989601 [Eh]
	 SCS Correlation Energy    =      -1.6508465903162830 [Eh]
	 SCS Total Energy          =    -345.9533367627092844 [Eh]
	-----------------------------------------------------------

  Dipole Moment: [D]
     X:    -0.7659      Y:     0.0000      Z:     0.2258     Total:     0.7985

*** Psi4 exiting successfully. Buy a developer a beer!
