                               Psi4 1.4a3.dev225

  ==> Input File <==

--------------------------------------------------------------------------
#psi4
#
memory 32 gb

molecule  {
0 1
  N       -1.3887980     0.0000000    -0.3392240
  N        1.3887980     0.0000000     0.3392250
  C        0.6895922    -1.2723983    -0.2296914
  C       -0.7344320    -1.1907990     0.1932070
  C        0.7344330     1.1908010    -0.1932060
  C       -0.7344330     1.1908010     0.1932070
  C       -2.8075490    -0.0000010    -0.0148730
  C        2.8075480    -0.0000010     0.0148720
  H        0.8178840    -1.2446340    -1.2957380
  H        1.2273880    -2.0759070     0.2263630
  H        1.2273890     2.0759080     0.2263640
  H        0.8178840     1.2446360    -1.2957370
  H       -1.2273880    -2.0759070    -0.2263610
  H       -0.8178840    -1.2446340     1.2957380
  H       -0.8178830     1.2446350     1.2957380
  H       -1.2273890     2.0759080    -0.2263620
  H       -3.2785690     0.8871010    -0.4480200
  H       -2.9984770    -0.0000010     1.0736860
  H       -3.2785690    -0.8871030    -0.4480190
  H        2.9984750    -0.0000010    -1.0736880
  H        3.2785690    -0.8871030     0.4480170
  H        3.2785700     0.8871010     0.4480170
units angstrom
no_reorient  #important for SAPT in psi4, default
symmetry c1  #important for SAPT in psi4, default
}

set PROPERTIES_ORIGIN ["COM"]
properties('MP2/aug-cc-pvtz', properties = ['dipole'])
--------------------------------------------------------------------------

    Molecular point group: c1
  Charge       = 0
  Multiplicity = 1
  Basis Set: AUG-CC-PVTZ
    Blend: AUG-CC-PVTZ
  Basis Set: (AUG-CC-PVTZ AUX)
    Blend: AUG-CC-PVTZ-JKFIT

    Orbital Energies [Eh]
    ---------------------

    Doubly Occupied:

       1A    -15.546302     2A    -15.542570     3A    -11.243483
       4A    -11.242736     5A    -11.241618     6A    -11.240891
       7A    -11.239904     8A    -11.237352     9A     -1.247131
      10A     -1.190747    11A     -1.026767    12A     -0.989048
      13A     -0.903341    14A     -0.859939    15A     -0.831440
      16A     -0.758443    17A     -0.660292    18A     -0.635572
      19A     -0.630185    20A     -0.620562    21A     -0.618326
      22A     -0.575718    23A     -0.549702    24A     -0.541216
      25A     -0.537684    26A     -0.519769    27A     -0.497646
      28A     -0.493783    29A     -0.462728    30A     -0.442757
      31A     -0.359973    32A     -0.354716

  @DF-RHF Final Energy:  -344.34307328178124

   => Energetics <=

    Nuclear Repulsion Energy =            419.1107172453709495
    One-Electron Energy =               -1297.2228926722032156
    Two-Electron Energy =                 533.7691021450509652
    Total Energy =                       -344.3430732817812441
  Basis Set: (AUG-CC-PVTZ AUX)
    Blend: AUG-CC-PVTZ-RI
    Molecular point group: c1

    Geometry (in Angstrom), charge = 0, multiplicity = 1:

       Center              X                  Y                   Z               Mass
    ------------   -----------------  -----------------  -----------------  -----------------
         N           -1.384082701340     0.008580489985    -0.335387535618    14.003074004430
         N            1.393513298660     0.008580489985     0.343061464382    14.003074004430
         C            0.694307498660    -1.263817810015    -0.225854935618    12.000000000000
         C           -0.729716701340    -1.182218510015     0.197043464382    12.000000000000
         C            0.739148298660     1.199381489985    -0.189369535618    12.000000000000
         C           -0.729717701340     1.199381489985     0.197043464382    12.000000000000
         C           -2.802833701340     0.008579489985    -0.011036535618    12.000000000000
         C            2.812263298660     0.008579489985     0.018708464382    12.000000000000
         H            0.822599298660    -1.236053510015    -1.291901535618     1.007825032230
         H            1.232103298660    -2.067326510014     0.230199464382     1.007825032230
         H            1.232104298660     2.084488489985     0.230200464382     1.007825032230
         H            0.822599298660     1.253216489985    -1.291900535618     1.007825032230
         H           -1.222672701340    -2.067326510014    -0.222524535618     1.007825032230
         H           -0.813168701340    -1.236053510015     1.299574464382     1.007825032230
         H           -0.813167701340     1.253215489985     1.299574464382     1.007825032230
         H           -1.222673701340     2.084488489985    -0.222525535618     1.007825032230
         H           -3.273853701340     0.895681489985    -0.444183535618     1.007825032230
         H           -2.993761701340     0.008579489985     1.077522464382     1.007825032230
         H           -3.273853701340    -0.878522510015    -0.444182535618     1.007825032230
         H            3.003190298660     0.008579489985    -1.069851535618     1.007825032230
         H            3.283284298660    -0.878522510015     0.451853464382     1.007825032230
         H            3.283285298660     0.895681489985     0.451853464382     1.007825032230

  Basis Set: AUG-CC-PVTZ
    Blend: AUG-CC-PVTZ
  Basis Set: (AUG-CC-PVTZ AUX)
    Blend: AUG-CC-PVTZ-JKFIT
	 Reference Energy          =    -344.3430732817812441 [Eh]
	 Singles Energy            =      -0.0000000000000000 [Eh]
	 Same-Spin Energy          =      -0.3689105629658685 [Eh]
	 Opposite-Spin Energy      =      -1.2712649816516306 [Eh]
	 Correlation Energy        =      -1.6401755446174990 [Eh]
	 Total Energy              =    -345.9832488263987216 [Eh]

	 ================> DF-SCS-MP2 Energies <==================
	-----------------------------------------------------------
	 SCS Same-Spin Scale       =       0.3333333333333333 [-]
	 SCS Opposite-Spin Scale   =       1.2000000000000000 [-]
	 SCS Same-Spin Energy      =      -0.1229701876552895 [Eh]
	 SCS Opposite-Spin Energy  =      -1.5255179779819568 [Eh]
	 SCS Correlation Energy    =      -1.6484881656372463 [Eh]
	 SCS Total Energy          =    -345.9915614474184622 [Eh]
	-----------------------------------------------------------

  Dipole Moment: [D]
     X:    -0.1020      Y:    -0.1667      Z:    -0.0832     Total:     0.2124

*** Psi4 exiting successfully. Buy a developer a beer!
