                               Psi4 1.4a3.dev225

  ==> Input File <==

--------------------------------------------------------------------------
#psi4
#
memory 32 gb

molecule  {
0 1
  N       -1.3887980     0.0000000    -0.3392240
  N        1.3887980     0.0000000     0.3392250
  C        0.7344320    -1.1908000    -0.1932070
  C       -0.7344320    -1.1907990     0.1932070
  C        0.7344330     1.1908010    -0.1932060
  C       -0.7344330     1.1908010     0.1932070
  C       -2.8075490    -0.0000010    -0.0148730
  C        2.8075480    -0.0000010     0.0148720
  H        0.8178840    -1.2446340    -1.2957380
  H        1.2273880    -2.0759070     0.2263630
  H        1.2273890     2.0759080     0.2263640
  H        0.8178840     1.2446360    -1.2957370
  H       -1.2273880    -2.0759070    -0.2263610
  H       -0.8178840    -1.2446340     1.2957380
  H       -0.8178830     1.2446350     1.2957380
  H       -1.2273890     2.0759080    -0.2263620
  H       -3.2785690     0.8871010    -0.4480200
  H       -2.9984770    -0.0000010     1.0736860
  H       -3.2785690    -0.8871030    -0.4480190
  H        2.9984750    -0.0000010    -1.0736880
  H        3.2785690    -0.8871030     0.4480170
  H        3.1924452     0.7248974     0.3688179
units angstrom
no_reorient  #important for SAPT in psi4, default
symmetry c1  #important for SAPT in psi4, default
}

set PROPERTIES_ORIGIN ["COM"]
properties('MP2/aug-cc-pvtz', properties = ['dipole'])
--------------------------------------------------------------------------

    Molecular point group: c1
  Charge       = 0
  Multiplicity = 1
  Basis Set: AUG-CC-PVTZ
    Blend: AUG-CC-PVTZ
  Basis Set: (AUG-CC-PVTZ AUX)
    Blend: AUG-CC-PVTZ-JKFIT

    Orbital Energies [Eh]
    ---------------------

    Doubly Occupied:

       1A    -15.544591     2A    -15.543368     3A    -11.242893
       4A    -11.242235     5A    -11.241778     6A    -11.240892
       7A    -11.239751     8A    -11.215136     9A     -1.254177
      10A     -1.203156    11A     -1.021772    12A     -0.998207
      13A     -0.921298    14A     -0.861718    15A     -0.838613
      16A     -0.756224    17A     -0.666099    18A     -0.641969
      19A     -0.630778    20A     -0.625251    21A     -0.621493
      22A     -0.578716    23A     -0.564123    24A     -0.541853
      25A     -0.540418    26A     -0.517108    27A     -0.499327
      28A     -0.489349    29A     -0.461354    30A     -0.453687
      31A     -0.358629    32A     -0.357257

  @DF-RHF Final Energy:  -344.31767281182448

   => Energetics <=

    Nuclear Repulsion Energy =            421.4272944297990762
    One-Electron Energy =               -1301.6634983206015477
    Two-Electron Energy =                 535.9185310789779351
    Total Energy =                       -344.3176728118245364
  Basis Set: (AUG-CC-PVTZ AUX)
    Blend: AUG-CC-PVTZ-RI
    Molecular point group: c1

    Geometry (in Angstrom), charge = 0, multiplicity = 1:

       Center              X                  Y                   Z               Mass
    ------------   -----------------  -----------------  -----------------  -----------------
         N           -1.388037274434     0.001432422168    -0.338524649699    14.003074004430
         N            1.389558725566     0.001432422168     0.339924350301    14.003074004430
         C            0.735192725566    -1.189367577832    -0.192507649699    12.000000000000
         C           -0.733671274434    -1.189366577832     0.193906350301    12.000000000000
         C            0.735193725566     1.192233422168    -0.192506649699    12.000000000000
         C           -0.733672274434     1.192233422168     0.193906350301    12.000000000000
         C           -2.806788274434     0.001431422168    -0.014173649699    12.000000000000
         C            2.808308725566     0.001431422168     0.015571350301    12.000000000000
         H            0.818644725566    -1.243201577832    -1.295038649699     1.007825032230
         H            1.228148725566    -2.074474577832     0.227062350301     1.007825032230
         H            1.228149725566     2.077340422168     0.227063350301     1.007825032230
         H            0.818644725566     1.246068422168    -1.295037649699     1.007825032230
         H           -1.226627274434    -2.074474577832    -0.225661649699     1.007825032230
         H           -0.817123274434    -1.243201577832     1.296437350301     1.007825032230
         H           -0.817122274434     1.246067422168     1.296437350301     1.007825032230
         H           -1.226628274434     2.077340422168    -0.225662649699     1.007825032230
         H           -3.277808274434     0.888533422168    -0.447320649699     1.007825032230
         H           -2.997716274434     0.001431422168     1.074385350301     1.007825032230
         H           -3.277808274434    -0.885670577832    -0.447319649699     1.007825032230
         H            2.999235725566     0.001431422168    -1.072988649699     1.007825032230
         H            3.279329725566    -0.885670577832     0.448716350301     1.007825032230
         H            3.193205925566     0.726329822168     0.369517250301     1.007825032230

  Basis Set: AUG-CC-PVTZ
    Blend: AUG-CC-PVTZ
  Basis Set: (AUG-CC-PVTZ AUX)
    Blend: AUG-CC-PVTZ-JKFIT
	 Reference Energy          =    -344.3176728118244796 [Eh]
	 Singles Energy            =      -0.0000000000000000 [Eh]
	 Same-Spin Energy          =      -0.3689482070478819 [Eh]
	 Opposite-Spin Energy      =      -1.2697177974082041 [Eh]
	 Correlation Energy        =      -1.6386660044560859 [Eh]
	 Total Energy              =    -345.9563388162805495 [Eh]

	 ================> DF-SCS-MP2 Energies <==================
	-----------------------------------------------------------
	 SCS Same-Spin Scale       =       0.3333333333333333 [-]
	 SCS Opposite-Spin Scale   =       1.2000000000000000 [-]
	 SCS Same-Spin Energy      =      -0.1229827356826273 [Eh]
	 SCS Opposite-Spin Energy  =      -1.5236613568898449 [Eh]
	 SCS Correlation Energy    =      -1.6466440925724721 [Eh]
	 SCS Total Energy          =    -345.9643169043969237 [Eh]
	-----------------------------------------------------------

  Dipole Moment: [D]
     X:     0.0821      Y:     0.0622      Z:     0.0230     Total:     0.1056

*** Psi4 exiting successfully. Buy a developer a beer!
