                               Psi4 1.4a3.dev225

  ==> Input File <==

--------------------------------------------------------------------------
#psi4
#
memory 32 gb

molecule  {
0 1
  N       -1.3887980     0.0000000    -0.3392240
  N        1.3887980     0.0000000     0.3392250
  C        0.7344320    -1.1908000    -0.1932070
  C       -0.5410129    -1.1907991     0.1423242
  C        0.7344330     1.1908010    -0.1932060
  C       -0.7344330     1.1908010     0.1932070
  C       -2.8075490    -0.0000010    -0.0148730
  C        2.8075480    -0.0000010     0.0148720
  H        0.8178840    -1.2446340    -1.2957380
  H        1.2273880    -2.0759070     0.2263630
  H        1.2273890     2.0759080     0.2263640
  H        0.8178840     1.2446360    -1.2957370
  H       -1.2273880    -2.0759070    -0.2263610
  H       -0.8178840    -1.2446340     1.2957380
  H       -0.8178830     1.2446350     1.2957380
  H       -1.2273890     2.0759080    -0.2263620
  H       -3.2785690     0.8871010    -0.4480200
  H       -2.9984770    -0.0000010     1.0736860
  H       -3.2785690    -0.8871030    -0.4480190
  H        2.9984750    -0.0000010    -1.0736880
  H        3.2785690    -0.8871030     0.4480170
  H        3.2785700     0.8871010     0.4480170
units angstrom
no_reorient  #important for SAPT in psi4, default
symmetry c1  #important for SAPT in psi4, default
}

set PROPERTIES_ORIGIN ["COM"]
properties('MP2/aug-cc-pvtz', properties = ['dipole'])
--------------------------------------------------------------------------

    Molecular point group: c1
  Charge       = 0
  Multiplicity = 1
  Basis Set: AUG-CC-PVTZ
    Blend: AUG-CC-PVTZ
  Basis Set: (AUG-CC-PVTZ AUX)
    Blend: AUG-CC-PVTZ-JKFIT

    Orbital Energies [Eh]
    ---------------------

    Doubly Occupied:

       1A    -15.547492     2A    -15.543507     3A    -11.253866
       4A    -11.243205     5A    -11.242087     6A    -11.241993
       7A    -11.238780     8A    -11.236470     9A     -1.259195
      10A     -1.192280    11A     -1.057075    12A     -0.995723
      13A     -0.905827    14A     -0.849259    15A     -0.841199
      16A     -0.751576    17A     -0.671843    18A     -0.641863
      19A     -0.636489    20A     -0.621445    21A     -0.613750
      22A     -0.580486    23A     -0.556376    24A     -0.548829
      25A     -0.535852    26A     -0.516611    27A     -0.508794
      28A     -0.477358    29A     -0.457471    30A     -0.436344
      31A     -0.363052    32A     -0.347036

  @DF-RHF Final Energy:  -344.29842982481455

   => Energetics <=

    Nuclear Repulsion Energy =            421.9467790976403307
    One-Electron Energy =               -1302.6641495116834903
    Two-Electron Energy =                 536.4189405892286686
    Total Energy =                       -344.2984298248145478
  Basis Set: (AUG-CC-PVTZ AUX)
    Blend: AUG-CC-PVTZ-RI
    Molecular point group: c1

    Geometry (in Angstrom), charge = 0, multiplicity = 1:

       Center              X                  Y                   Z               Mass
    ------------   -----------------  -----------------  -----------------  -----------------
         N           -1.409137157814    -0.000000085809    -0.333873451208    14.003074004430
         N            1.368458842186    -0.000000085809     0.344575548792    14.003074004430
         C            0.714092842186    -1.190800085809    -0.187856451208    12.000000000000
         C           -0.561352057814    -1.190799185809     0.147674748792    12.000000000000
         C            0.714093842186     1.190800914191    -0.187855451208    12.000000000000
         C           -0.754772157814     1.190800914191     0.198557548792    12.000000000000
         C           -2.827888157814    -0.000001085809    -0.009522451208    12.000000000000
         C            2.787208842186    -0.000001085809     0.020222548792    12.000000000000
         H            0.797544842186    -1.244634085809    -1.290387451208     1.007825032230
         H            1.207048842186    -2.075907085809     0.231713548792     1.007825032230
         H            1.207049842186     2.075907914191     0.231714548792     1.007825032230
         H            0.797544842186     1.244635914191    -1.290386451208     1.007825032230
         H           -1.247727157814    -2.075907085809    -0.221010451208     1.007825032230
         H           -0.838223157814    -1.244634085809     1.301088548792     1.007825032230
         H           -0.838222157814     1.244634914191     1.301088548792     1.007825032230
         H           -1.247728157814     2.075907914191    -0.221011451208     1.007825032230
         H           -3.298908157814     0.887100914191    -0.442669451208     1.007825032230
         H           -3.018816157814    -0.000001085809     1.079036548792     1.007825032230
         H           -3.298908157814    -0.887103085809    -0.442668451208     1.007825032230
         H            2.978135842186    -0.000001085809    -1.068337451208     1.007825032230
         H            3.258229842186    -0.887103085809     0.453367548792     1.007825032230
         H            3.258230842186     0.887100914191     0.453367548792     1.007825032230

  Basis Set: AUG-CC-PVTZ
    Blend: AUG-CC-PVTZ
  Basis Set: (AUG-CC-PVTZ AUX)
    Blend: AUG-CC-PVTZ-JKFIT
	 Reference Energy          =    -344.2984298248145478 [Eh]
	 Singles Energy            =      -0.0000000000000000 [Eh]
	 Same-Spin Energy          =      -0.3718650518649915 [Eh]
	 Opposite-Spin Energy      =      -1.2747392288829813 [Eh]
	 Correlation Energy        =      -1.6466042807479728 [Eh]
	 Total Energy              =    -345.9450341055625131 [Eh]

	 ================> DF-SCS-MP2 Energies <==================
	-----------------------------------------------------------
	 SCS Same-Spin Scale       =       0.3333333333333333 [-]
	 SCS Opposite-Spin Scale   =       1.2000000000000000 [-]
	 SCS Same-Spin Energy      =      -0.1239550172883305 [Eh]
	 SCS Opposite-Spin Energy  =      -1.5296870746595774 [Eh]
	 SCS Correlation Energy    =      -1.6536420919479080 [Eh]
	 SCS Total Energy          =    -345.9520719167624634 [Eh]
	-----------------------------------------------------------

  Dipole Moment: [D]
     X:     0.2024      Y:    -0.0906      Z:    -0.0818     Total:     0.2364

*** Psi4 exiting successfully. Buy a developer a beer!
