                               Psi4 1.4a3.dev225

  ==> Input File <==

--------------------------------------------------------------------------
#psi4
#
memory 32 gb

molecule  {
0 1
  N       -1.3887980     0.0000000    -0.3392240
  N        1.3887980     0.0000000     0.3392250
  C        0.8241115    -1.0276033    -0.1202383
  C       -0.7344320    -1.1907990     0.1932070
  C        0.7344330     1.1908010    -0.1932060
  C       -0.7344330     1.1908010     0.1932070
  C       -2.8075490    -0.0000010    -0.0148730
  C        2.8075480    -0.0000010     0.0148720
  H        0.8178840    -1.2446340    -1.2957380
  H        1.2273880    -2.0759070     0.2263630
  H        1.2273890     2.0759080     0.2263640
  H        0.8178840     1.2446360    -1.2957370
  H       -1.2273880    -2.0759070    -0.2263610
  H       -0.8178840    -1.2446340     1.2957380
  H       -0.8178830     1.2446350     1.2957380
  H       -1.2273890     2.0759080    -0.2263620
  H       -3.2785690     0.8871010    -0.4480200
  H       -2.9984770    -0.0000010     1.0736860
  H       -3.2785690    -0.8871030    -0.4480190
  H        2.9984750    -0.0000010    -1.0736880
  H        3.2785690    -0.8871030     0.4480170
  H        3.2785700     0.8871010     0.4480170
units angstrom
no_reorient  #important for SAPT in psi4, default
symmetry c1  #important for SAPT in psi4, default
}

set PROPERTIES_ORIGIN ["COM"]
properties('MP2/aug-cc-pvtz', properties = ['dipole'])
--------------------------------------------------------------------------

    Molecular point group: c1
  Charge       = 0
  Multiplicity = 1
  Basis Set: AUG-CC-PVTZ
    Blend: AUG-CC-PVTZ
  Basis Set: (AUG-CC-PVTZ AUX)
    Blend: AUG-CC-PVTZ-JKFIT

    Orbital Energies [Eh]
    ---------------------

    Doubly Occupied:

       1A    -15.548578     2A    -15.543104     3A    -11.250844
       4A    -11.249621     5A    -11.247962     6A    -11.246080
       7A    -11.243189     8A    -11.238734     9A     -1.300426
      10A     -1.219528    11A     -1.021706    12A     -0.987152
      13A     -0.920394    14A     -0.876422    15A     -0.828108
      16A     -0.752780    17A     -0.673943    18A     -0.648149
      19A     -0.641443    20A     -0.622396    21A     -0.619475
      22A     -0.594001    23A     -0.553584    24A     -0.543680
      25A     -0.537661    26A     -0.517281    27A     -0.504108
      28A     -0.478577    29A     -0.471989    30A     -0.426412
      31A     -0.357628    32A     -0.348977

  @DF-RHF Final Energy:  -344.30224428561866

   => Energetics <=

    Nuclear Repulsion Energy =            423.2724124313191965
    One-Electron Energy =               -1305.1214505936654859
    Two-Electron Energy =                 537.5467938767275200
    Total Energy =                       -344.3022442856187126
  Basis Set: (AUG-CC-PVTZ AUX)
    Blend: AUG-CC-PVTZ-RI
    Molecular point group: c1

    Geometry (in Angstrom), charge = 0, multiplicity = 1:

       Center              X                  Y                   Z               Mass
    ------------   -----------------  -----------------  -----------------  -----------------
         N           -1.398228271334    -0.017161279461    -0.346897233387    14.003074004430
         N            1.379367728666    -0.017161279461     0.331551766613    14.003074004430
         C            0.814681228666    -1.044764579461    -0.127911533387    12.000000000000
         C           -0.743862271334    -1.207960279461     0.185533766613    12.000000000000
         C            0.725002728666     1.173639720539    -0.200879233387    12.000000000000
         C           -0.743863271334     1.173639720539     0.185533766613    12.000000000000
         C           -2.816979271334    -0.017162279461    -0.022546233387    12.000000000000
         C            2.798117728666    -0.017162279461     0.007198766613    12.000000000000
         H            0.808453728666    -1.261795279461    -1.303411233387     1.007825032230
         H            1.217957728666    -2.093068279461     0.218689766613     1.007825032230
         H            1.217958728666     2.058746720539     0.218690766613     1.007825032230
         H            0.808453728666     1.227474720539    -1.303410233387     1.007825032230
         H           -1.236818271334    -2.093068279461    -0.234034233387     1.007825032230
         H           -0.827314271334    -1.261795279461     1.288064766613     1.007825032230
         H           -0.827313271334     1.227473720539     1.288064766613     1.007825032230
         H           -1.236819271334     2.058746720539    -0.234035233387     1.007825032230
         H           -3.287999271334     0.869939720539    -0.455693233387     1.007825032230
         H           -3.007907271334    -0.017162279461     1.066012766613     1.007825032230
         H           -3.287999271334    -0.904264279461    -0.455692233387     1.007825032230
         H            2.989044728666    -0.017162279461    -1.081361233387     1.007825032230
         H            3.269138728666    -0.904264279461     0.440343766613     1.007825032230
         H            3.269139728666     0.869939720539     0.440343766613     1.007825032230

  Basis Set: AUG-CC-PVTZ
    Blend: AUG-CC-PVTZ
  Basis Set: (AUG-CC-PVTZ AUX)
    Blend: AUG-CC-PVTZ-JKFIT
	 Reference Energy          =    -344.3022442856186558 [Eh]
	 Singles Energy            =      -0.0000000000000000 [Eh]
	 Same-Spin Energy          =      -0.3717765760916019 [Eh]
	 Opposite-Spin Energy      =      -1.2732017900347903 [Eh]
	 Correlation Energy        =      -1.6449783661263921 [Eh]
	 Total Energy              =    -345.9472226517450508 [Eh]

	 ================> DF-SCS-MP2 Energies <==================
	-----------------------------------------------------------
	 SCS Same-Spin Scale       =       0.3333333333333333 [-]
	 SCS Opposite-Spin Scale   =       1.2000000000000000 [-]
	 SCS Same-Spin Energy      =      -0.1239255253638673 [Eh]
	 SCS Opposite-Spin Energy  =      -1.5278421480417483 [Eh]
	 SCS Correlation Energy    =      -1.6517676734056157 [Eh]
	 SCS Total Energy          =    -345.9540119590242853 [Eh]
	-----------------------------------------------------------

  Dipole Moment: [D]
     X:     0.2503      Y:     0.5299      Z:     0.2807     Total:     0.6498

*** Psi4 exiting successfully. Buy a developer a beer!
