                               Psi4 1.4a3.dev225

  ==> Input File <==

--------------------------------------------------------------------------
#psi4
#
memory 32 gb

molecule  {
0 1
  N       -1.3887980     0.0000000    -0.3392240
  N        1.3887980     0.0000000     0.3392250
  C        0.7344320    -1.1908000    -0.1932070
  C       -0.7344320    -1.1907990     0.1932070
  C        0.7344330     1.1908010    -0.1932060
  C       -0.7344330     1.1908010     0.1932070
  C       -2.8075490    -0.0000010    -0.0148730
  C        2.8075480    -0.0000010     0.0148720
  H        0.8178840    -1.2446340    -1.2957380
  H        1.2273880    -2.0759070     0.2263630
  H        1.1989286     2.0352553     0.3298616
  H        0.8178840     1.2446360    -1.2957370
  H       -1.2273880    -2.0759070    -0.2263610
  H       -0.8178840    -1.2446340     1.2957380
  H       -0.8178830     1.2446350     1.2957380
  H       -1.2273890     2.0759080    -0.2263620
  H       -3.2785690     0.8871010    -0.4480200
  H       -2.9984770    -0.0000010     1.0736860
  H       -3.2785690    -0.8871030    -0.4480190
  H        2.9984750    -0.0000010    -1.0736880
  H        3.2785690    -0.8871030     0.4480170
  H        3.2785700     0.8871010     0.4480170
units angstrom
no_reorient  #important for SAPT in psi4, default
symmetry c1  #important for SAPT in psi4, default
}

set PROPERTIES_ORIGIN ["COM"]
properties('MP2/aug-cc-pvtz', properties = ['dipole'])
--------------------------------------------------------------------------

    Molecular point group: c1
  Charge       = 0
  Multiplicity = 1
  Basis Set: AUG-CC-PVTZ
    Blend: AUG-CC-PVTZ
  Basis Set: (AUG-CC-PVTZ AUX)
    Blend: AUG-CC-PVTZ-JKFIT

    Orbital Energies [Eh]
    ---------------------

    Doubly Occupied:

       1A    -15.544771     2A    -15.544294     3A    -11.242796
       4A    -11.242657     5A    -11.242059     6A    -11.241936
       7A    -11.240027     8A    -11.239961     9A     -1.254506
      10A     -1.202657    11A     -1.022736    12A     -0.988920
      13A     -0.906889    14A     -0.861603    15A     -0.832901
      16A     -0.755274    17A     -0.662438    18A     -0.635049
      19A     -0.627667    20A     -0.625547    21A     -0.621118
      22A     -0.579477    23A     -0.548262    24A     -0.541192
      25A     -0.538121    26A     -0.517718    27A     -0.496685
      28A     -0.489644    29A     -0.459634    30A     -0.452862
      31A     -0.359492    32A     -0.358006

  @DF-RHF Final Energy:  -344.35007383635389

   => Energetics <=

    Nuclear Repulsion Energy =            420.4953099234483602
    One-Electron Energy =               -1299.9369684577718544
    Two-Electron Energy =                 535.0915846979696653
    Total Energy =                       -344.3500738363538858
  Basis Set: (AUG-CC-PVTZ AUX)
    Blend: AUG-CC-PVTZ-RI
    Molecular point group: c1

    Geometry (in Angstrom), charge = 0, multiplicity = 1:

       Center              X                  Y                   Z               Mass
    ------------   -----------------  -----------------  -----------------  -----------------
         N           -1.388546543768     0.000358932356    -0.340138155203    14.003074004430
         N            1.389049456232     0.000358932356     0.338310844797    14.003074004430
         C            0.734683456232    -1.190441067644    -0.194121155203    12.000000000000
         C           -0.734180543768    -1.190440067644     0.192292844797    12.000000000000
         C            0.734684456232     1.191159932356    -0.194120155203    12.000000000000
         C           -0.734181543768     1.191159932356     0.192292844797    12.000000000000
         C           -2.807297543768     0.000357932356    -0.015787155203    12.000000000000
         C            2.807799456232     0.000357932356     0.013957844797    12.000000000000
         H            0.818135456232    -1.244275067644    -1.296652155203     1.007825032230
         H            1.227639456232    -2.075548067644     0.225448844797     1.007825032230
         H            1.199180056232     2.035614232356     0.328947444797     1.007825032230
         H            0.818135456232     1.244994932356    -1.296651155203     1.007825032230
         H           -1.227136543768    -2.075548067644    -0.227275155203     1.007825032230
         H           -0.817632543768    -1.244275067644     1.294823844797     1.007825032230
         H           -0.817631543768     1.244993932356     1.294823844797     1.007825032230
         H           -1.227137543768     2.076266932356    -0.227276155203     1.007825032230
         H           -3.278317543768     0.887459932356    -0.448934155203     1.007825032230
         H           -2.998225543768     0.000357932356     1.072771844797     1.007825032230
         H           -3.278317543768    -0.886744067644    -0.448933155203     1.007825032230
         H            2.998726456232     0.000357932356    -1.074602155203     1.007825032230
         H            3.278820456232    -0.886744067644     0.447102844797     1.007825032230
         H            3.278821456232     0.887459932356     0.447102844797     1.007825032230

  Basis Set: AUG-CC-PVTZ
    Blend: AUG-CC-PVTZ
  Basis Set: (AUG-CC-PVTZ AUX)
    Blend: AUG-CC-PVTZ-JKFIT
	 Reference Energy          =    -344.3500738363538858 [Eh]
	 Singles Energy            =      -0.0000000000000000 [Eh]
	 Same-Spin Energy          =      -0.3690599796830702 [Eh]
	 Opposite-Spin Energy      =      -1.2706618066922366 [Eh]
	 Correlation Energy        =      -1.6397217863753069 [Eh]
	 Total Energy              =    -345.9897956227292184 [Eh]

	 ================> DF-SCS-MP2 Energies <==================
	-----------------------------------------------------------
	 SCS Same-Spin Scale       =       0.3333333333333333 [-]
	 SCS Opposite-Spin Scale   =       1.2000000000000000 [-]
	 SCS Same-Spin Energy      =      -0.1230199932276901 [Eh]
	 SCS Opposite-Spin Energy  =      -1.5247941680306838 [Eh]
	 SCS Correlation Energy    =      -1.6478141612583739 [Eh]
	 SCS Total Energy          =    -345.9978879976122812 [Eh]
	-----------------------------------------------------------

  Dipole Moment: [D]
     X:    -0.0136      Y:    -0.0090      Z:     0.0183     Total:     0.0245

*** Psi4 exiting successfully. Buy a developer a beer!
