                               Psi4 1.4a3.dev225

  ==> Input File <==

--------------------------------------------------------------------------
#psi4
#
memory 32 gb

molecule  {
0 1
  N       -1.3887980     0.0000000    -0.3392240
  N        1.3887980     0.0000000     0.3392250
  C        0.7344320    -1.1908000    -0.1932070
  C       -0.7447242    -1.0999537     0.1395406
  C        0.7344330     1.1908010    -0.1932060
  C       -0.7344330     1.1908010     0.1932070
  C       -2.8075490    -0.0000010    -0.0148730
  C        2.8075480    -0.0000010     0.0148720
  H        0.8178840    -1.2446340    -1.2957380
  H        1.2273880    -2.0759070     0.2263630
  H        1.2273890     2.0759080     0.2263640
  H        0.8178840     1.2446360    -1.2957370
  H       -1.2273880    -2.0759070    -0.2263610
  H       -0.8178840    -1.2446340     1.2957380
  H       -0.8178830     1.2446350     1.2957380
  H       -1.2273890     2.0759080    -0.2263620
  H       -3.2785690     0.8871010    -0.4480200
  H       -2.9984770    -0.0000010     1.0736860
  H       -3.2785690    -0.8871030    -0.4480190
  H        2.9984750    -0.0000010    -1.0736880
  H        3.2785690    -0.8871030     0.4480170
  H        3.2785700     0.8871010     0.4480170
units angstrom
no_reorient  #important for SAPT in psi4, default
symmetry c1  #important for SAPT in psi4, default
}

set PROPERTIES_ORIGIN ["COM"]
properties('MP2/aug-cc-pvtz', properties = ['dipole'])
--------------------------------------------------------------------------

    Molecular point group: c1
  Charge       = 0
  Multiplicity = 1
  Basis Set: AUG-CC-PVTZ
    Blend: AUG-CC-PVTZ
  Basis Set: (AUG-CC-PVTZ AUX)
    Blend: AUG-CC-PVTZ-JKFIT

    Orbital Energies [Eh]
    ---------------------

    Doubly Occupied:

       1A    -15.546930     2A    -15.544268     3A    -11.246806
       4A    -11.245743     5A    -11.244323     6A    -11.244277
       7A    -11.242582     8A    -11.239720     9A     -1.271357
      10A     -1.213136    11A     -1.022632    12A     -0.991259
      13A     -0.913444    14A     -0.867293    15A     -0.832992
      16A     -0.753266    17A     -0.669209    18A     -0.637513
      19A     -0.632785    20A     -0.623605    21A     -0.621428
      22A     -0.586947    23A     -0.549985    24A     -0.543262
      25A     -0.539411    26A     -0.515386    27A     -0.500945
      28A     -0.479418    29A     -0.469261    30A     -0.446178
      31A     -0.358799    32A     -0.355077

  @DF-RHF Final Energy:  -344.33913563298375

   => Energetics <=

    Nuclear Repulsion Energy =            422.1874021877891323
    One-Electron Energy =               -1303.1546046462538015
    Two-Electron Energy =                 536.6280668254809143
    Total Energy =                       -344.3391356329838118
  Basis Set: (AUG-CC-PVTZ AUX)
    Blend: AUG-CC-PVTZ-RI
    Molecular point group: c1

    Geometry (in Angstrom), charge = 0, multiplicity = 1:

       Center              X                  Y                   Z               Mass
    ------------   -----------------  -----------------  -----------------  -----------------
         N           -1.387715603786    -0.009553064187    -0.333580737756    14.003074004430
         N            1.389880396214    -0.009553064187     0.344868262244    14.003074004430
         C            0.735514396214    -1.200353064187    -0.187563737756    12.000000000000
         C           -0.743641803786    -1.109506764187     0.145183862244    12.000000000000
         C            0.735515396214     1.181247935813    -0.187562737756    12.000000000000
         C           -0.733350603786     1.181247935813     0.198850262244    12.000000000000
         C           -2.806466603786    -0.009554064187    -0.009229737756    12.000000000000
         C            2.808630396214    -0.009554064187     0.020515262244    12.000000000000
         H            0.818966396214    -1.254187064187    -1.290094737756     1.007825032230
         H            1.228470396214    -2.085460064187     0.232006262244     1.007825032230
         H            1.228471396214     2.066354935813     0.232007262244     1.007825032230
         H            0.818966396214     1.235082935813    -1.290093737756     1.007825032230
         H           -1.226305603786    -2.085460064187    -0.220717737756     1.007825032230
         H           -0.816801603786    -1.254187064187     1.301381262244     1.007825032230
         H           -0.816800603786     1.235081935813     1.301381262244     1.007825032230
         H           -1.226306603786     2.066354935813    -0.220718737756     1.007825032230
         H           -3.277486603786     0.877547935813    -0.442376737756     1.007825032230
         H           -2.997394603786    -0.009554064187     1.079329262244     1.007825032230
         H           -3.277486603786    -0.896656064187    -0.442375737756     1.007825032230
         H            2.999557396214    -0.009554064187    -1.068044737756     1.007825032230
         H            3.279651396214    -0.896656064187     0.453660262244     1.007825032230
         H            3.279652396214     0.877547935813     0.453660262244     1.007825032230

  Basis Set: AUG-CC-PVTZ
    Blend: AUG-CC-PVTZ
  Basis Set: (AUG-CC-PVTZ AUX)
    Blend: AUG-CC-PVTZ-JKFIT
	 Reference Energy          =    -344.3391356329837549 [Eh]
	 Singles Energy            =      -0.0000000000000000 [Eh]
	 Same-Spin Energy          =      -0.3700535696489715 [Eh]
	 Opposite-Spin Energy      =      -1.2711327692942254 [Eh]
	 Correlation Energy        =      -1.6411863389431969 [Eh]
	 Total Energy              =    -345.9803219719269691 [Eh]

	 ================> DF-SCS-MP2 Energies <==================
	-----------------------------------------------------------
	 SCS Same-Spin Scale       =       0.3333333333333333 [-]
	 SCS Opposite-Spin Scale   =       1.2000000000000000 [-]
	 SCS Same-Spin Energy      =      -0.1233511898829905 [Eh]
	 SCS Opposite-Spin Energy  =      -1.5253593231530704 [Eh]
	 SCS Correlation Energy    =      -1.6487105130360609 [Eh]
	 SCS Total Energy          =    -345.9878461460198196 [Eh]
	-----------------------------------------------------------

  Dipole Moment: [D]
     X:    -0.0938      Y:     0.2348      Z:    -0.1550     Total:     0.2966

*** Psi4 exiting successfully. Buy a developer a beer!
