                               Psi4 1.4a3.dev225

  ==> Input File <==

--------------------------------------------------------------------------
#psi4
#
memory 32 gb

molecule  {
0 1
  N       -1.3887980     0.0000000    -0.3392240
  N        1.3887980     0.0000000     0.3392250
  C        0.7344320    -1.1908000    -0.1932070
  C       -0.7344320    -1.1907990     0.1932070
  C        0.7344330     1.1908010    -0.1932060
  C       -0.7344330     1.1908010     0.1932070
  C       -2.8075490    -0.0000010    -0.0148730
  C        2.8075480    -0.0000010     0.0148720
  H        0.8178840    -1.2446340    -1.2957380
  H        1.2273880    -2.0759070     0.2263630
  H        1.2316149     2.0817511     0.2086360
  H        0.8178840     1.2446360    -1.2957370
  H       -1.2273880    -2.0759070    -0.2263610
  H       -0.8178840    -1.2446340     1.2957380
  H       -0.8178830     1.2446350     1.2957380
  H       -1.2273890     2.0759080    -0.2263620
  H       -3.2785690     0.8871010    -0.4480200
  H       -2.9984770    -0.0000010     1.0736860
  H       -3.2785690    -0.8871030    -0.4480190
  H        2.9984750    -0.0000010    -1.0736880
  H        3.2785690    -0.8871030     0.4480170
  H        3.2785700     0.8871010     0.4480170
units angstrom
no_reorient  #important for SAPT in psi4, default
symmetry c1  #important for SAPT in psi4, default
}

set PROPERTIES_ORIGIN ["COM"]
properties('MP2/aug-cc-pvtz', properties = ['dipole'])
--------------------------------------------------------------------------

    Molecular point group: c1
  Charge       = 0
  Multiplicity = 1
  Basis Set: AUG-CC-PVTZ
    Blend: AUG-CC-PVTZ
  Basis Set: (AUG-CC-PVTZ AUX)
    Blend: AUG-CC-PVTZ-JKFIT

    Orbital Energies [Eh]
    ---------------------

    Doubly Occupied:

       1A    -15.545171     2A    -15.545080     3A    -11.243029
       4A    -11.243008     5A    -11.242379     6A    -11.242362
       7A    -11.240135     8A    -11.240129     9A     -1.254491
      10A     -1.202761    11A     -1.022285    12A     -0.988865
      13A     -0.906986    14A     -0.862068    15A     -0.833414
      16A     -0.756940    17A     -0.663329    18A     -0.632334
      19A     -0.627684    20A     -0.625191    21A     -0.621088
      22A     -0.579813    23A     -0.547352    24A     -0.541557
      25A     -0.541028    26A     -0.516275    27A     -0.495222
      28A     -0.489099    29A     -0.461657    30A     -0.454450
      31A     -0.359130    32A     -0.357839

  @DF-RHF Final Energy:  -344.35152171984970

   => Energetics <=

    Nuclear Repulsion Energy =            420.3787321666810612
    One-Electron Energy =               -1299.6962033239908578
    Two-Electron Energy =                 534.9659494374600399
    Total Energy =                       -344.3515217198497567
  Basis Set: (AUG-CC-PVTZ AUX)
    Blend: AUG-CC-PVTZ-RI
    Molecular point group: c1

    Geometry (in Angstrom), charge = 0, multiplicity = 1:

       Center              X                  Y                   Z               Mass
    ------------   -----------------  -----------------  -----------------  -----------------
         N           -1.388835216333    -0.000051700289    -0.339067538313    14.003074004430
         N            1.388760783667    -0.000051700289     0.339381461687    14.003074004430
         C            0.734394783667    -1.190851700289    -0.193050538313    12.000000000000
         C           -0.734469216333    -1.190850700289     0.193363461687    12.000000000000
         C            0.734395783667     1.190749299711    -0.193049538313    12.000000000000
         C           -0.734470216333     1.190749299711     0.193363461687    12.000000000000
         C           -2.807586216333    -0.000052700289    -0.014716538313    12.000000000000
         C            2.807510783667    -0.000052700289     0.015028461687    12.000000000000
         H            0.817846783667    -1.244685700289    -1.295581538313     1.007825032230
         H            1.227350783667    -2.075958700289     0.226519461687     1.007825032230
         H            1.231577683667     2.081699399711     0.208792461687     1.007825032230
         H            0.817846783667     1.244584299711    -1.295580538313     1.007825032230
         H           -1.227425216333    -2.075958700289    -0.226204538313     1.007825032230
         H           -0.817921216333    -1.244685700289     1.295894461687     1.007825032230
         H           -0.817920216333     1.244583299711     1.295894461687     1.007825032230
         H           -1.227426216333     2.075856299711    -0.226205538313     1.007825032230
         H           -3.278606216333     0.887049299711    -0.447863538313     1.007825032230
         H           -2.998514216333    -0.000052700289     1.073842461687     1.007825032230
         H           -3.278606216333    -0.887154700289    -0.447862538313     1.007825032230
         H            2.998437783667    -0.000052700289    -1.073531538313     1.007825032230
         H            3.278531783667    -0.887154700289     0.448173461687     1.007825032230
         H            3.278532783667     0.887049299711     0.448173461687     1.007825032230

  Basis Set: AUG-CC-PVTZ
    Blend: AUG-CC-PVTZ
  Basis Set: (AUG-CC-PVTZ AUX)
    Blend: AUG-CC-PVTZ-JKFIT
	 Reference Energy          =    -344.3515217198496998 [Eh]
	 Singles Energy            =      -0.0000000000000000 [Eh]
	 Same-Spin Energy          =      -0.3689244251902188 [Eh]
	 Opposite-Spin Energy      =      -1.2703459190526836 [Eh]
	 Correlation Energy        =      -1.6392703442429024 [Eh]
	 Total Energy              =    -345.9907920640926022 [Eh]

	 ================> DF-SCS-MP2 Energies <==================
	-----------------------------------------------------------
	 SCS Same-Spin Scale       =       0.3333333333333333 [-]
	 SCS Opposite-Spin Scale   =       1.2000000000000000 [-]
	 SCS Same-Spin Energy      =      -0.1229748083967396 [Eh]
	 SCS Opposite-Spin Energy  =      -1.5244151028632202 [Eh]
	 SCS Correlation Energy    =      -1.6473899112599599 [Eh]
	 SCS Total Energy          =    -345.9989116311096495 [Eh]
	-----------------------------------------------------------

  Dipole Moment: [D]
     X:     0.0022      Y:     0.0013      Z:    -0.0037     Total:     0.0045

*** Psi4 exiting successfully. Buy a developer a beer!
