                               Psi4 1.4a3.dev225

  ==> Input File <==

--------------------------------------------------------------------------
#psi4
#
memory 32 gb

molecule  {
0 1
  N       -1.3887980     0.0000000    -0.3392240
  N        1.3887980     0.0000000     0.3392250
  C        0.7344320    -1.1908000    -0.1932070
  C       -0.7344320    -1.1907990     0.1932070
  C        0.7344330     1.1908010    -0.1932060
  C       -0.7344330     1.1908010     0.1932070
  C       -2.7588066    -0.0000010    -0.0260164
  C        2.8075480    -0.0000010     0.0148720
  H        0.8178840    -1.2446340    -1.2957380
  H        1.2273880    -2.0759070     0.2263630
  H        1.2273890     2.0759080     0.2263640
  H        0.8178840     1.2446360    -1.2957370
  H       -1.2273880    -2.0759070    -0.2263610
  H       -0.8178840    -1.2446340     1.2957380
  H       -0.8178830     1.2446350     1.2957380
  H       -1.2273890     2.0759080    -0.2263620
  H       -3.2785690     0.8871010    -0.4480200
  H       -2.9984770    -0.0000010     1.0736860
  H       -3.2785690    -0.8871030    -0.4480190
  H        2.9984750    -0.0000010    -1.0736880
  H        3.2785690    -0.8871030     0.4480170
  H        3.2785700     0.8871010     0.4480170
units angstrom
no_reorient  #important for SAPT in psi4, default
symmetry c1  #important for SAPT in psi4, default
}

set PROPERTIES_ORIGIN ["COM"]
properties('MP2/aug-cc-pvtz', properties = ['dipole'])
--------------------------------------------------------------------------

    Molecular point group: c1
  Charge       = 0
  Multiplicity = 1
  Basis Set: AUG-CC-PVTZ
    Blend: AUG-CC-PVTZ
  Basis Set: (AUG-CC-PVTZ AUX)
    Blend: AUG-CC-PVTZ-JKFIT

    Orbital Energies [Eh]
    ---------------------

    Doubly Occupied:

       1A    -15.545881     2A    -15.545425     3A    -11.244262
       4A    -11.244246     5A    -11.243416     6A    -11.243406
       7A    -11.241688     8A    -11.240764     9A     -1.260589
      10A     -1.209882    11A     -1.023860    12A     -0.992199
      13A     -0.904780    14A     -0.864197    15A     -0.832479
      16A     -0.758841    17A     -0.667180    18A     -0.635224
      19A     -0.629732    20A     -0.626674    21A     -0.622498
      22A     -0.585097    23A     -0.544913    24A     -0.540701
      25A     -0.540628    26A     -0.512768    27A     -0.493459
      28A     -0.487562    29A     -0.461310    30A     -0.458482
      31A     -0.359516    32A     -0.358784

  @DF-RHF Final Energy:  -344.34905357951823

   => Energetics <=

    Nuclear Repulsion Energy =            421.3872015144116290
    One-Electron Energy =               -1301.6316227222246198
    Two-Electron Energy =                 535.8953676282948209
    Total Energy =                       -344.3490535795182268
  Basis Set: (AUG-CC-PVTZ AUX)
    Blend: AUG-CC-PVTZ-RI
    Molecular point group: c1

    Geometry (in Angstrom), charge = 0, multiplicity = 1:

       Center              X                  Y                   Z               Mass
    ------------   -----------------  -----------------  -----------------  -----------------
         N           -1.393923471849    -0.000000096325    -0.338052304831    14.003074004430
         N            1.383672528151    -0.000000096325     0.340396695169    14.003074004430
         C            0.729306528151    -1.190800096325    -0.192035304831    12.000000000000
         C           -0.739557471849    -1.190799096325     0.194378695169    12.000000000000
         C            0.729307528151     1.190800903675    -0.192034304831    12.000000000000
         C           -0.739558471849     1.190800903675     0.194378695169    12.000000000000
         C           -2.763932071849    -0.000001096325    -0.024844704831    12.000000000000
         C            2.802422528151    -0.000001096325     0.016043695169    12.000000000000
         H            0.812758528151    -1.244634096325    -1.294566304831     1.007825032230
         H            1.222262528151    -2.075907096325     0.227534695169     1.007825032230
         H            1.222263528151     2.075907903675     0.227535695169     1.007825032230
         H            0.812758528151     1.244635903675    -1.294565304831     1.007825032230
         H           -1.232513471849    -2.075907096325    -0.225189304831     1.007825032230
         H           -0.823009471849    -1.244634096325     1.296909695169     1.007825032230
         H           -0.823008471849     1.244634903675     1.296909695169     1.007825032230
         H           -1.232514471849     2.075907903675    -0.225190304831     1.007825032230
         H           -3.283694471849     0.887100903675    -0.446848304831     1.007825032230
         H           -3.003602471849    -0.000001096325     1.074857695169     1.007825032230
         H           -3.283694471849    -0.887103096325    -0.446847304831     1.007825032230
         H            2.993349528151    -0.000001096325    -1.072516304831     1.007825032230
         H            3.273443528151    -0.887103096325     0.449188695169     1.007825032230
         H            3.273444528151     0.887100903675     0.449188695169     1.007825032230

  Basis Set: AUG-CC-PVTZ
    Blend: AUG-CC-PVTZ
  Basis Set: (AUG-CC-PVTZ AUX)
    Blend: AUG-CC-PVTZ-JKFIT
	 Reference Energy          =    -344.3490535795182268 [Eh]
	 Singles Energy            =      -0.0000000000000000 [Eh]
	 Same-Spin Energy          =      -0.3692940210998450 [Eh]
	 Opposite-Spin Energy      =      -1.2703687722701782 [Eh]
	 Correlation Energy        =      -1.6396627933700232 [Eh]
	 Total Energy              =    -345.9887163728882342 [Eh]

	 ================> DF-SCS-MP2 Energies <==================
	-----------------------------------------------------------
	 SCS Same-Spin Scale       =       0.3333333333333333 [-]
	 SCS Opposite-Spin Scale   =       1.2000000000000000 [-]
	 SCS Same-Spin Energy      =      -0.1230980070332817 [Eh]
	 SCS Opposite-Spin Energy  =      -1.5244425267242139 [Eh]
	 SCS Correlation Energy    =      -1.6475405337574955 [Eh]
	 SCS Total Energy          =    -345.9965941132757052 [Eh]
	-----------------------------------------------------------

  Dipole Moment: [D]
     X:     0.1425      Y:     0.0000      Z:    -0.0454     Total:     0.1496

*** Psi4 exiting successfully. Buy a developer a beer!
