                               Psi4 1.4a3.dev225

  ==> Input File <==

--------------------------------------------------------------------------
#psi4
#
memory 32 gb

molecule  {
0 1
  N       -1.3887980     0.0000000    -0.3392240
  N        1.3887980     0.0000000     0.3392250
  C        0.7344320    -1.1908000    -0.1932070
  C       -0.7344320    -1.1907990     0.1932070
  C        0.7344330     1.1908010    -0.1932060
  C       -0.7344330     1.1908010     0.1932070
  C       -2.8075490    -0.0000010    -0.0148730
  C        2.8075480    -0.0000010     0.0148720
  H        0.8178840    -1.2446340    -1.2957380
  H        1.2273880    -2.0759070     0.2263630
  H        1.2089975     2.0498583     0.2959444
  H        0.8178840     1.2446360    -1.2957370
  H       -1.2273880    -2.0759070    -0.2263610
  H       -0.8178840    -1.2446340     1.2957380
  H       -0.8178830     1.2446350     1.2957380
  H       -1.2273890     2.0759080    -0.2263620
  H       -3.2785690     0.8871010    -0.4480200
  H       -2.9984770    -0.0000010     1.0736860
  H       -3.2785690    -0.8871030    -0.4480190
  H        2.9984750    -0.0000010    -1.0736880
  H        3.2785690    -0.8871030     0.4480170
  H        3.2785700     0.8871010     0.4480170
units angstrom
no_reorient  #important for SAPT in psi4, default
symmetry c1  #important for SAPT in psi4, default
}

set PROPERTIES_ORIGIN ["COM"]
properties('MP2/aug-cc-pvtz', properties = ['dipole'])
--------------------------------------------------------------------------

    Molecular point group: c1
  Charge       = 0
  Multiplicity = 1
  Basis Set: AUG-CC-PVTZ
    Blend: AUG-CC-PVTZ
  Basis Set: (AUG-CC-PVTZ AUX)
    Blend: AUG-CC-PVTZ-JKFIT

    Orbital Energies [Eh]
    ---------------------

    Doubly Occupied:

       1A    -15.544867     2A    -15.544536     3A    -11.242845
       4A    -11.242756     5A    -11.242149     6A    -11.242078
       7A    -11.240053     8A    -11.240014     9A     -1.254494
      10A     -1.202683    11A     -1.022586    12A     -0.988898
      13A     -0.906914    14A     -0.861719    15A     -0.833039
      16A     -0.755709    17A     -0.662686    18A     -0.633985
      19A     -0.627670    20A     -0.625630    21A     -0.621141
      22A     -0.579556    23A     -0.547996    24A     -0.541159
      25A     -0.539164    26A     -0.517307    27A     -0.496262
      28A     -0.489558    29A     -0.460242    30A     -0.453466
      31A     -0.359381    32A     -0.357977

  @DF-RHF Final Energy:  -344.35087423863109

   => Energetics <=

    Nuclear Repulsion Energy =            420.4593774944386837
    One-Electron Energy =               -1299.8634618835289984
    Two-Electron Energy =                 535.0532101504592219
    Total Energy =                       -344.3508742386310360
  Basis Set: (AUG-CC-PVTZ AUX)
    Blend: AUG-CC-PVTZ-RI
    Molecular point group: c1

    Geometry (in Angstrom), charge = 0, multiplicity = 1:

       Center              X                  Y                   Z               Mass
    ------------   -----------------  -----------------  -----------------  -----------------
         N           -1.388635468338     0.000229964395    -0.339838611813    14.003074004430
         N            1.388960531662     0.000229964395     0.338610388187    14.003074004430
         C            0.734594531662    -1.190570035605    -0.193821611813    12.000000000000
         C           -0.734269468338    -1.190569035605     0.192592388187    12.000000000000
         C            0.734595531662     1.191030964395    -0.193820611813    12.000000000000
         C           -0.734270468338     1.191030964395     0.192592388187    12.000000000000
         C           -2.807386468338     0.000228964395    -0.015487611813    12.000000000000
         C            2.807710531662     0.000228964395     0.014257388187    12.000000000000
         H            0.818046531662    -1.244404035605    -1.296352611813     1.007825032230
         H            1.227550531662    -2.075677035605     0.225748388187     1.007825032230
         H            1.209160031662     2.050088264395     0.295329788187     1.007825032230
         H            0.818046531662     1.244865964395    -1.296351611813     1.007825032230
         H           -1.227225468338    -2.075677035605    -0.226975611813     1.007825032230
         H           -0.817721468338    -1.244404035605     1.295123388187     1.007825032230
         H           -0.817720468338     1.244864964395     1.295123388187     1.007825032230
         H           -1.227226468338     2.076137964395    -0.226976611813     1.007825032230
         H           -3.278406468338     0.887330964395    -0.448634611813     1.007825032230
         H           -2.998314468338     0.000228964395     1.073071388187     1.007825032230
         H           -3.278406468338    -0.886873035605    -0.448633611813     1.007825032230
         H            2.998637531662     0.000228964395    -1.074302611813     1.007825032230
         H            3.278731531662    -0.886873035605     0.447402388187     1.007825032230
         H            3.278732531662     0.887330964395     0.447402388187     1.007825032230

  Basis Set: AUG-CC-PVTZ
    Blend: AUG-CC-PVTZ
  Basis Set: (AUG-CC-PVTZ AUX)
    Blend: AUG-CC-PVTZ-JKFIT
	 Reference Energy          =    -344.3508742386310928 [Eh]
	 Singles Energy            =      -0.0000000000000000 [Eh]
	 Same-Spin Energy          =      -0.3690015150836435 [Eh]
	 Opposite-Spin Energy      =      -1.2705413321324297 [Eh]
	 Correlation Energy        =      -1.6395428472160734 [Eh]
	 Total Energy              =    -345.9904170858471844 [Eh]

	 ================> DF-SCS-MP2 Energies <==================
	-----------------------------------------------------------
	 SCS Same-Spin Scale       =       0.3333333333333333 [-]
	 SCS Opposite-Spin Scale   =       1.2000000000000000 [-]
	 SCS Same-Spin Energy      =      -0.1230005050278812 [Eh]
	 SCS Opposite-Spin Energy  =      -1.5246495985589157 [Eh]
	 SCS Correlation Energy    =      -1.6476501035867968 [Eh]
	 SCS Total Energy          =    -345.9985243422178769 [Eh]
	-----------------------------------------------------------

  Dipole Moment: [D]
     X:    -0.0090      Y:    -0.0057      Z:     0.0128     Total:     0.0167

*** Psi4 exiting successfully. Buy a developer a beer!
