                               Psi4 1.3.2 release

  ==> Input File <==

--------------------------------------------------------------------------
#psi4
#
memory 32 gb

molecule  {
0 1
  N        1.5809750    -0.0000040    -0.2631210
  C        0.1851580    -0.0000010    -0.1154390
  C       -0.5447150     1.2059360    -0.0650820
  C       -0.5308052    -1.2059381     0.0842533
  C        2.2782760     1.2232720     0.1068400
  C        2.2782740    -1.2232720     0.1068750
  C       -1.9355870     1.1987890     0.0289600
  C       -1.9355910    -1.1987860     0.0289420
  C       -2.6468500     0.0000020     0.0738780
  H       -0.0353100     2.1623660    -0.0908580
  H       -0.0353170    -2.1623680    -0.0908950
  H        1.9822100     2.0441110    -0.5499540
  H        3.3493810     1.0663200    -0.0318300
  H        2.0973190     1.5260350     1.1502070
  H        3.3493810    -1.0663200    -0.0317850
  H        2.0973040    -1.5260120     1.1502460
  H        1.9822180    -2.0441270    -0.5499050
  H       -2.4643420     2.1488140     0.0683770
  H       -2.4643490    -2.1488100     0.0683440
  H       -3.7307980     0.0000040     0.1506540
units angstrom
no_reorient  #important for SAPT in psi4, default
symmetry c1  #important for SAPT in psi4, default
}

set PROPERTIES_ORIGIN ["COM"]
properties('MP2/aug-cc-pvtz', properties = ['dipole'])
--------------------------------------------------------------------------

    Molecular point group: c1
  Charge       = 0
  Multiplicity = 1
  Basis Set: AUG-CC-PVTZ
    Blend: AUG-CC-PVTZ
  Basis Set: (AUG-CC-PVTZ AUX)
    Blend: AUG-CC-PVTZ-JKFIT

    Orbital Energies [Eh]
    ---------------------

    Doubly Occupied:

       1A    -15.569952     2A    -11.277697     3A    -11.254652
       4A    -11.254185     5A    -11.235095     6A    -11.234251
       7A    -11.223426     8A    -11.222236     9A    -11.218348
      10A     -1.253383    11A     -1.130305    12A     -1.009812
      13A     -1.004060    14A     -0.963466    15A     -0.887977
      16A     -0.816554    17A     -0.782467    18A     -0.707182
      19A     -0.646581    20A     -0.642764    21A     -0.636318
      22A     -0.617044    23A     -0.582187    24A     -0.573898
      25A     -0.552756    26A     -0.542525    27A     -0.526405
      28A     -0.503811    29A     -0.496785    30A     -0.475261
      31A     -0.406499    32A     -0.332116    33A     -0.287778

  @DF-RHF Final Energy:  -363.89833077109995

   => Energetics <=

    Nuclear Repulsion Energy =            429.0876821667641252
    One-Electron Energy =               -1342.2364662661811963
    Two-Electron Energy =                 549.2504533283171213
    Total Energy =                       -363.8983307710999497
  Basis Set: (AUG-CC-PVTZ AUX)
    Blend: AUG-CC-PVTZ-RI
    Molecular point group: c1

    Geometry (in Angstrom), charge = 0, multiplicity = 1:

       Center              X                  Y                   Z               Mass
    ------------   -----------------  -----------------  -----------------  -----------------
         N            1.629764888116    -0.000003833919    -0.267733710228    14.003074004430
         C            0.233947888116    -0.000000833919    -0.120051710228    12.000000000000
         C           -0.495925111884     1.205936166081    -0.069694710228    12.000000000000
         C           -0.482015311884    -1.205937933919     0.079640589772    12.000000000000
         C            2.327065888116     1.223272166081     0.102227289772    12.000000000000
         C            2.327063888116    -1.223271833919     0.102262289772    12.000000000000
         C           -1.886797111884     1.198789166081     0.024347289772    12.000000000000
         C           -1.886801111884    -1.198785833919     0.024329289772    12.000000000000
         C           -2.598060111884     0.000002166081     0.069265289772    12.000000000000
         H            0.013479888116     2.162366166081    -0.095470710228     1.007825032230
         H            0.013472888116    -2.162367833919    -0.095507710228     1.007825032230
         H            2.030999888116     2.044111166081    -0.554566710228     1.007825032230
         H            3.398170888116     1.066320166081    -0.036442710228     1.007825032230
         H            2.146108888116     1.526035166081     1.145594289772     1.007825032230
         H            3.398170888116    -1.066319833919    -0.036397710228     1.007825032230
         H            2.146093888116    -1.526011833919     1.145633289772     1.007825032230
         H            2.031007888116    -2.044126833919    -0.554517710228     1.007825032230
         H           -2.415552111884     2.148814166081     0.063764289772     1.007825032230
         H           -2.415559111884    -2.148809833919     0.063731289772     1.007825032230
         H           -3.682008111884     0.000004166081     0.146041289772     1.007825032230

  Basis Set: AUG-CC-PVTZ
    Blend: AUG-CC-PVTZ
  Basis Set: (AUG-CC-PVTZ AUX)
    Blend: AUG-CC-PVTZ-JKFIT
	 Reference Energy          =    -363.8983307710999497 [Eh]
	 Singles Energy            =      -0.0000000000000000 [Eh]
	 Same-Spin Energy          =      -0.4025539398600131 [Eh]
	 Opposite-Spin Energy      =      -1.3077269551351431 [Eh]
	 Correlation Energy        =      -1.7102808949951562 [Eh]
	 Total Energy              =    -365.6086116660951006 [Eh]

	 ================> DF-SCS-MP2 Energies <==================
	-----------------------------------------------------------
	 SCS Same-Spin Scale       =       0.3333333333333333 [-]
	 SCS Opposite-Spin Scale   =       1.2000000000000000 [-]
	 SCS Same-Spin Energy      =      -0.1341846466200043 [Eh]
	 SCS Opposite-Spin Energy  =      -1.5692723461621718 [Eh]
	 SCS Correlation Energy    =      -1.7034569927821761 [Eh]
	 SCS Total Energy          =    -365.6017877638821005 [Eh]
	-----------------------------------------------------------

  Dipole Moment: [D]
     X:     1.5615      Y:     0.0569      Z:     0.3228     Total:     1.5955

*** Psi4 exiting successfully. Buy a developer a beer!
