                               Psi4 1.3.2 release

  ==> Input File <==

--------------------------------------------------------------------------
#psi4
#
memory 32 gb

molecule  {
0 1
  N        1.5809750    -0.0000040    -0.2631210
  C        0.1851580    -0.0000010    -0.1154390
  C       -0.5447150     1.2059360    -0.0650820
  C       -0.5215293    -1.2059389     0.1838222
  C        2.2782760     1.2232720     0.1068400
  C        2.2782740    -1.2232720     0.1068750
  C       -1.9355870     1.1987890     0.0289600
  C       -1.9355910    -1.1987860     0.0289420
  C       -2.6468500     0.0000020     0.0738780
  H       -0.0353100     2.1623660    -0.0908580
  H       -0.0353170    -2.1623680    -0.0908950
  H        1.9822100     2.0441110    -0.5499540
  H        3.3493810     1.0663200    -0.0318300
  H        2.0973190     1.5260350     1.1502070
  H        3.3493810    -1.0663200    -0.0317850
  H        2.0973040    -1.5260120     1.1502460
  H        1.9822180    -2.0441270    -0.5499050
  H       -2.4643420     2.1488140     0.0683770
  H       -2.4643490    -2.1488100     0.0683440
  H       -3.7307980     0.0000040     0.1506540
units angstrom
no_reorient  #important for SAPT in psi4, default
symmetry c1  #important for SAPT in psi4, default
}

set PROPERTIES_ORIGIN ["COM"]
properties('MP2/aug-cc-pvtz', properties = ['dipole'])
--------------------------------------------------------------------------

    Molecular point group: c1
  Charge       = 0
  Multiplicity = 1
  Basis Set: AUG-CC-PVTZ
    Blend: AUG-CC-PVTZ
  Basis Set: (AUG-CC-PVTZ AUX)
    Blend: AUG-CC-PVTZ-JKFIT

    Orbital Energies [Eh]
    ---------------------

    Doubly Occupied:

       1A    -15.571151     2A    -11.280707     3A    -11.255097
       4A    -11.253978     5A    -11.238251     6A    -11.236433
       7A    -11.225878     8A    -11.222343     9A    -11.218307
      10A     -1.253844    11A     -1.129248    12A     -1.008331
      13A     -1.003446    14A     -0.963429    15A     -0.887897
      16A     -0.815886    17A     -0.780801    18A     -0.705886
      19A     -0.645681    20A     -0.641520    21A     -0.636626
      22A     -0.616562    23A     -0.580436    24A     -0.572374
      25A     -0.552238    26A     -0.542413    27A     -0.526494
      28A     -0.501342    29A     -0.496935    30A     -0.472053
      31A     -0.405063    32A     -0.331817    33A     -0.288791

  @DF-RHF Final Energy:  -363.88689077142817

   => Energetics <=

    Nuclear Repulsion Energy =            428.6879301286372765
    One-Electron Energy =               -1341.4271186379589835
    Two-Electron Energy =                 548.8522977378935366
    Total Energy =                       -363.8868907714281704
  Basis Set: (AUG-CC-PVTZ AUX)
    Blend: AUG-CC-PVTZ-RI
    Molecular point group: c1

    Geometry (in Angstrom), charge = 0, multiplicity = 1:

       Center              X                  Y                   Z               Mass
    ------------   -----------------  -----------------  -----------------  -----------------
         N            1.628845641424    -0.000003754639    -0.277601041912    14.003074004430
         C            0.233028641424    -0.000000754639    -0.129919041912    12.000000000000
         C           -0.496844358576     1.205936245361    -0.079562041912    12.000000000000
         C           -0.473658658576    -1.205938654639     0.169342158088    12.000000000000
         C            2.326146641424     1.223272245361     0.092359958088    12.000000000000
         C            2.326144641424    -1.223271754639     0.092394958088    12.000000000000
         C           -1.887716358576     1.198789245361     0.014479958088    12.000000000000
         C           -1.887720358576    -1.198785754639     0.014461958088    12.000000000000
         C           -2.598979358576     0.000002245361     0.059397958088    12.000000000000
         H            0.012560641424     2.162366245361    -0.105338041912     1.007825032230
         H            0.012553641424    -2.162367754639    -0.105375041912     1.007825032230
         H            2.030080641424     2.044111245361    -0.564434041912     1.007825032230
         H            3.397251641424     1.066320245361    -0.046310041912     1.007825032230
         H            2.145189641424     1.526035245361     1.135726958088     1.007825032230
         H            3.397251641424    -1.066319754639    -0.046265041912     1.007825032230
         H            2.145174641424    -1.526011754639     1.135765958088     1.007825032230
         H            2.030088641424    -2.044126754639    -0.564385041912     1.007825032230
         H           -2.416471358576     2.148814245361     0.053896958088     1.007825032230
         H           -2.416478358576    -2.148809754639     0.053863958088     1.007825032230
         H           -3.682927358576     0.000004245361     0.136173958088     1.007825032230

  Basis Set: AUG-CC-PVTZ
    Blend: AUG-CC-PVTZ
  Basis Set: (AUG-CC-PVTZ AUX)
    Blend: AUG-CC-PVTZ-JKFIT
	 Reference Energy          =    -363.8868907714281704 [Eh]
	 Singles Energy            =      -0.0000000000000000 [Eh]
	 Same-Spin Energy          =      -0.4030849378180220 [Eh]
	 Opposite-Spin Energy      =      -1.3094807268047892 [Eh]
	 Correlation Energy        =      -1.7125656646228111 [Eh]
	 Total Energy              =    -365.5994564360509571 [Eh]

	 ================> DF-SCS-MP2 Energies <==================
	-----------------------------------------------------------
	 SCS Same-Spin Scale       =       0.3333333333333333 [-]
	 SCS Opposite-Spin Scale   =       1.2000000000000000 [-]
	 SCS Same-Spin Energy      =      -0.1343616459393406 [Eh]
	 SCS Opposite-Spin Energy  =      -1.5713768721657471 [Eh]
	 SCS Correlation Energy    =      -1.7057385181050877 [Eh]
	 SCS Total Energy          =    -365.5926292895332494 [Eh]
	-----------------------------------------------------------

  Dipole Moment: [D]
     X:     1.5498      Y:     0.1476      Z:     0.2435     Total:     1.5757

*** Psi4 exiting successfully. Buy a developer a beer!
