                               Psi4 1.3.2 release

  ==> Input File <==

--------------------------------------------------------------------------
#psi4
#
memory 32 gb

molecule  {
0 1
  N        1.5809750    -0.0000040    -0.2631210
  C        0.1851580    -0.0000010    -0.1154390
  C       -0.5447150     1.2059360    -0.0650820
  C       -0.5400811    -1.2059374    -0.0153156
  C        2.2782760     1.2232720     0.1068400
  C        2.2782740    -1.2232720     0.1068750
  C       -1.9355870     1.1987890     0.0289600
  C       -1.9355910    -1.1987860     0.0289420
  C       -2.6468500     0.0000020     0.0738780
  H       -0.0353100     2.1623660    -0.0908580
  H       -0.0353170    -2.1623680    -0.0908950
  H        1.9822100     2.0441110    -0.5499540
  H        3.3493810     1.0663200    -0.0318300
  H        2.0973190     1.5260350     1.1502070
  H        3.3493810    -1.0663200    -0.0317850
  H        2.0973040    -1.5260120     1.1502460
  H        1.9822180    -2.0441270    -0.5499050
  H       -2.4643420     2.1488140     0.0683770
  H       -2.4643490    -2.1488100     0.0683440
  H       -3.7307980     0.0000040     0.1506540
units angstrom
no_reorient  #important for SAPT in psi4, default
symmetry c1  #important for SAPT in psi4, default
}

set PROPERTIES_ORIGIN ["COM"]
properties('MP2/aug-cc-pvtz', properties = ['dipole'])
--------------------------------------------------------------------------

    Molecular point group: c1
  Charge       = 0
  Multiplicity = 1
  Basis Set: AUG-CC-PVTZ
    Blend: AUG-CC-PVTZ
  Basis Set: (AUG-CC-PVTZ AUX)
    Blend: AUG-CC-PVTZ-JKFIT

    Orbital Energies [Eh]
    ---------------------

    Doubly Occupied:

       1A    -15.569340     2A    -11.276151     3A    -11.254428
       4A    -11.254336     5A    -11.233296     6A    -11.233125
       7A    -11.222208     8A    -11.222147     9A    -11.218340
      10A     -1.253132    11A     -1.130959    12A     -1.010704
      13A     -1.004266    14A     -0.963530    15A     -0.888008
      16A     -0.816799    17A     -0.783383    18A     -0.707908
      19A     -0.647264    20A     -0.643504    21A     -0.635910
      22A     -0.617276    23A     -0.583116    24A     -0.574585
      25A     -0.553158    26A     -0.542284    27A     -0.526374
      28A     -0.505766    29A     -0.496132    30A     -0.476512
      31A     -0.407615    32A     -0.332463    33A     -0.287002

  @DF-RHF Final Energy:  -363.90383902160227

   => Energetics <=

    Nuclear Repulsion Energy =            429.2638065307064039
    One-Electron Energy =               -1342.5932463888557322
    Two-Electron Energy =                 549.4256008365470052
    Total Energy =                       -363.9038390216022663
  Basis Set: (AUG-CC-PVTZ AUX)
    Blend: AUG-CC-PVTZ-RI
    Molecular point group: c1

    Geometry (in Angstrom), charge = 0, multiplicity = 1:

       Center              X                  Y                   Z               Mass
    ------------   -----------------  -----------------  -----------------  -----------------
         N            1.630684134808    -0.000003903290    -0.257866378545    14.003074004430
         C            0.234867134808    -0.000000903290    -0.110184378545    12.000000000000
         C           -0.495005865192     1.205936096710    -0.059827378545    12.000000000000
         C           -0.490371965192    -1.205937303290    -0.010060978545    12.000000000000
         C            2.327985134808     1.223272096710     0.112094621455    12.000000000000
         C            2.327983134808    -1.223271903290     0.112129621455    12.000000000000
         C           -1.885877865192     1.198789096710     0.034214621455    12.000000000000
         C           -1.885881865192    -1.198785903290     0.034196621455    12.000000000000
         C           -2.597140865192     0.000002096710     0.079132621455    12.000000000000
         H            0.014399134808     2.162366096710    -0.085603378545     1.007825032230
         H            0.014392134808    -2.162367903290    -0.085640378545     1.007825032230
         H            2.031919134808     2.044111096710    -0.544699378545     1.007825032230
         H            3.399090134808     1.066320096710    -0.026575378545     1.007825032230
         H            2.147028134808     1.526035096710     1.155461621455     1.007825032230
         H            3.399090134808    -1.066319903290    -0.026530378545     1.007825032230
         H            2.147013134808    -1.526011903290     1.155500621455     1.007825032230
         H            2.031927134808    -2.044126903290    -0.544650378545     1.007825032230
         H           -2.414632865192     2.148814096710     0.073631621455     1.007825032230
         H           -2.414639865192    -2.148809903290     0.073598621455     1.007825032230
         H           -3.681088865192     0.000004096710     0.155908621455     1.007825032230

  Basis Set: AUG-CC-PVTZ
    Blend: AUG-CC-PVTZ
  Basis Set: (AUG-CC-PVTZ AUX)
    Blend: AUG-CC-PVTZ-JKFIT
	 Reference Energy          =    -363.9038390216022663 [Eh]
	 Singles Energy            =      -0.0000000000000000 [Eh]
	 Same-Spin Energy          =      -0.4022587264029601 [Eh]
	 Opposite-Spin Energy      =      -1.3068160111680098 [Eh]
	 Correlation Energy        =      -1.7090747375709698 [Eh]
	 Total Energy              =    -365.6129137591732388 [Eh]

	 ================> DF-SCS-MP2 Energies <==================
	-----------------------------------------------------------
	 SCS Same-Spin Scale       =       0.3333333333333333 [-]
	 SCS Opposite-Spin Scale   =       1.2000000000000000 [-]
	 SCS Same-Spin Energy      =      -0.1340862421343200 [Eh]
	 SCS Opposite-Spin Energy  =      -1.5681792134016117 [Eh]
	 SCS Correlation Energy    =      -1.7022654555359318 [Eh]
	 SCS Total Energy          =    -365.6061044771382171 [Eh]
	-----------------------------------------------------------

  Dipole Moment: [D]
     X:     1.5727      Y:     0.0081      Z:     0.3981     Total:     1.6223

*** Psi4 exiting successfully. Buy a developer a beer!
