                               Psi4 1.3.2 release

  ==> Input File <==

--------------------------------------------------------------------------
#psi4
#
memory 32 gb

molecule  {
0 1
  N        1.5809750    -0.0000040    -0.2631210
  C        0.1851580    -0.0000010    -0.1154390
  C       -0.5447150     1.2059360    -0.0650820
  C       -0.5261673    -1.2059385     0.1340377
  C        2.2782760     1.2232720     0.1068400
  C        2.2782740    -1.2232720     0.1068750
  C       -1.9355870     1.1987890     0.0289600
  C       -1.9355910    -1.1987860     0.0289420
  C       -2.6468500     0.0000020     0.0738780
  H       -0.0353100     2.1623660    -0.0908580
  H       -0.0353170    -2.1623680    -0.0908950
  H        1.9822100     2.0441110    -0.5499540
  H        3.3493810     1.0663200    -0.0318300
  H        2.0973190     1.5260350     1.1502070
  H        3.3493810    -1.0663200    -0.0317850
  H        2.0973040    -1.5260120     1.1502460
  H        1.9822180    -2.0441270    -0.5499050
  H       -2.4643420     2.1488140     0.0683770
  H       -2.4643490    -2.1488100     0.0683440
  H       -3.7307980     0.0000040     0.1506540
units angstrom
no_reorient  #important for SAPT in psi4, default
symmetry c1  #important for SAPT in psi4, default
}

set PROPERTIES_ORIGIN ["COM"]
properties('MP2/aug-cc-pvtz', properties = ['dipole'])
--------------------------------------------------------------------------

    Molecular point group: c1
  Charge       = 0
  Multiplicity = 1
  Basis Set: AUG-CC-PVTZ
    Blend: AUG-CC-PVTZ
  Basis Set: (AUG-CC-PVTZ AUX)
    Blend: AUG-CC-PVTZ-JKFIT

    Orbital Energies [Eh]
    ---------------------

    Doubly Occupied:

       1A    -15.570476     2A    -11.279031     3A    -11.254846
       4A    -11.254089     5A    -11.236520     6A    -11.235210
       7A    -11.224509     8A    -11.222284     9A    -11.218330
      10A     -1.253586    11A     -1.129819    12A     -1.009123
      13A     -1.003826    14A     -0.963444    15A     -0.887944
      16A     -0.816267    17A     -0.781714    18A     -0.706579
      19A     -0.646149    20A     -0.642176    21A     -0.636493
      22A     -0.616829    23A     -0.581395    24A     -0.573243
      25A     -0.552512    26A     -0.542522    27A     -0.526442
      28A     -0.502648    29A     -0.496920    30A     -0.473925
      31A     -0.405819    32A     -0.331951    33A     -0.288254

  @DF-RHF Final Energy:  -363.89336416175013

   => Energetics <=

    Nuclear Repulsion Energy =            428.9149043321787076
    One-Electron Energy =               -1341.8867811655766218
    Two-Electron Energy =                 549.0785126716477862
    Total Energy =                       -363.8933641617501280
  Basis Set: (AUG-CC-PVTZ AUX)
    Blend: AUG-CC-PVTZ-RI
    Molecular point group: c1

    Geometry (in Angstrom), charge = 0, multiplicity = 1:

       Center              X                  Y                   Z               Mass
    ------------   -----------------  -----------------  -----------------  -----------------
         N            1.629305269725    -0.000003794279    -0.272667371115    14.003074004430
         C            0.233488269725    -0.000000794279    -0.124985371115    12.000000000000
         C           -0.496384730275     1.205936205721    -0.074628371115    12.000000000000
         C           -0.477837030275    -1.205938294279     0.124491328885    12.000000000000
         C            2.326606269725     1.223272205721     0.097293628885    12.000000000000
         C            2.326604269725    -1.223271794279     0.097328628885    12.000000000000
         C           -1.887256730275     1.198789205721     0.019413628885    12.000000000000
         C           -1.887260730275    -1.198785794279     0.019395628885    12.000000000000
         C           -2.598519730275     0.000002205721     0.064331628885    12.000000000000
         H            0.013020269725     2.162366205721    -0.100404371115     1.007825032230
         H            0.013013269725    -2.162367794279    -0.100441371115     1.007825032230
         H            2.030540269725     2.044111205721    -0.559500371115     1.007825032230
         H            3.397711269725     1.066320205721    -0.041376371115     1.007825032230
         H            2.145649269725     1.526035205721     1.140660628885     1.007825032230
         H            3.397711269725    -1.066319794279    -0.041331371115     1.007825032230
         H            2.145634269725    -1.526011794279     1.140699628885     1.007825032230
         H            2.030548269725    -2.044126794279    -0.559451371115     1.007825032230
         H           -2.416011730275     2.148814205721     0.058830628885     1.007825032230
         H           -2.416018730275    -2.148809794279     0.058797628885     1.007825032230
         H           -3.682467730275     0.000004205721     0.141107628885     1.007825032230

  Basis Set: AUG-CC-PVTZ
    Blend: AUG-CC-PVTZ
  Basis Set: (AUG-CC-PVTZ AUX)
    Blend: AUG-CC-PVTZ-JKFIT
	 Reference Energy          =    -363.8933641617501280 [Eh]
	 Singles Energy            =      -0.0000000000000000 [Eh]
	 Same-Spin Energy          =      -0.4027922623176499 [Eh]
	 Opposite-Spin Energy      =      -1.3085035990779028 [Eh]
	 Correlation Energy        =      -1.7112958613955527 [Eh]
	 Total Energy              =    -365.6046600231456978 [Eh]

	 ================> DF-SCS-MP2 Energies <==================
	-----------------------------------------------------------
	 SCS Same-Spin Scale       =       0.3333333333333333 [-]
	 SCS Opposite-Spin Scale   =       1.2000000000000000 [-]
	 SCS Same-Spin Energy      =      -0.1342640874392166 [Eh]
	 SCS Opposite-Spin Energy  =      -1.5702043188934833 [Eh]
	 SCS Correlation Energy    =      -1.7044684063327000 [Eh]
	 SCS Total Energy          =    -365.5978325680828220 [Eh]
	-----------------------------------------------------------

  Dipole Moment: [D]
     X:     1.5554      Y:     0.0971      Z:     0.2837     Total:     1.5841

*** Psi4 exiting successfully. Buy a developer a beer!
