                               Psi4 1.3.2 release

  ==> Input File <==

--------------------------------------------------------------------------
#psi4
#
memory 32 gb

molecule  {
0 1
  N        1.5809750    -0.0000040    -0.2631210
  C        0.1851580    -0.0000010    -0.1154390
  C       -0.5447150     1.2059360    -0.0650820
  C       -0.5168914    -1.2059393     0.2336066
  C        2.2782760     1.2232720     0.1068400
  C        2.2782740    -1.2232720     0.1068750
  C       -1.9355870     1.1987890     0.0289600
  C       -1.9355910    -1.1987860     0.0289420
  C       -2.6468500     0.0000020     0.0738780
  H       -0.0353100     2.1623660    -0.0908580
  H       -0.0353170    -2.1623680    -0.0908950
  H        1.9822100     2.0441110    -0.5499540
  H        3.3493810     1.0663200    -0.0318300
  H        2.0973190     1.5260350     1.1502070
  H        3.3493810    -1.0663200    -0.0317850
  H        2.0973040    -1.5260120     1.1502460
  H        1.9822180    -2.0441270    -0.5499050
  H       -2.4643420     2.1488140     0.0683770
  H       -2.4643490    -2.1488100     0.0683440
  H       -3.7307980     0.0000040     0.1506540
units angstrom
no_reorient  #important for SAPT in psi4, default
symmetry c1  #important for SAPT in psi4, default
}

set PROPERTIES_ORIGIN ["COM"]
properties('MP2/aug-cc-pvtz', properties = ['dipole'])
--------------------------------------------------------------------------

    Molecular point group: c1
  Charge       = 0
  Multiplicity = 1
  Basis Set: AUG-CC-PVTZ
    Blend: AUG-CC-PVTZ
  Basis Set: (AUG-CC-PVTZ AUX)
    Blend: AUG-CC-PVTZ-JKFIT

    Orbital Energies [Eh]
    ---------------------

    Doubly Occupied:

       1A    -15.571983     2A    -11.282696     3A    -11.255409
       4A    -11.253852     5A    -11.240249     6A    -11.237917
       7A    -11.227510     8A    -11.222421     9A    -11.218289
      10A     -1.254161    11A     -1.128611    12A     -1.007535
      13A     -1.002826    14A     -0.963424    15A     -0.887832
      16A     -0.815422    17A     -0.779764    18A     -0.705164
      19A     -0.645204    20A     -0.640894    21A     -0.636668
      22A     -0.616256    23A     -0.579357    24A     -0.571307
      25A     -0.551942    26A     -0.542178    27A     -0.526558
      28A     -0.499865    29A     -0.496829    30A     -0.469590
      31A     -0.404236    32A     -0.331744    33A     -0.289394

  @DF-RHF Final Energy:  -363.87888734142700

   => Energetics <=

    Nuclear Repulsion Energy =            428.4090221104539751
    One-Electron Energy =               -1340.8616456702245614
    Two-Electron Energy =                 548.5737362183435835
    Total Energy =                       -363.8788873414270029
  Basis Set: (AUG-CC-PVTZ AUX)
    Blend: AUG-CC-PVTZ-RI
    Molecular point group: c1

    Geometry (in Angstrom), charge = 0, multiplicity = 1:

       Center              X                  Y                   Z               Mass
    ------------   -----------------  -----------------  -----------------  -----------------
         N            1.628386023033    -0.000003714999    -0.282534702798    14.003074004430
         C            0.232569023033    -0.000000714999    -0.134852702798    12.000000000000
         C           -0.497303976967     1.205936285001    -0.084495702798    12.000000000000
         C           -0.469480376967    -1.205939014999     0.214192897202    12.000000000000
         C            2.325687023033     1.223272285001     0.087426297202    12.000000000000
         C            2.325685023033    -1.223271714999     0.087461297202    12.000000000000
         C           -1.888175976967     1.198789285001     0.009546297202    12.000000000000
         C           -1.888179976967    -1.198785714999     0.009528297202    12.000000000000
         C           -2.599438976967     0.000002285001     0.054464297202    12.000000000000
         H            0.012101023033     2.162366285001    -0.110271702798     1.007825032230
         H            0.012094023033    -2.162367714999    -0.110308702798     1.007825032230
         H            2.029621023033     2.044111285001    -0.569367702798     1.007825032230
         H            3.396792023033     1.066320285001    -0.051243702798     1.007825032230
         H            2.144730023033     1.526035285001     1.130793297202     1.007825032230
         H            3.396792023033    -1.066319714999    -0.051198702798     1.007825032230
         H            2.144715023033    -1.526011714999     1.130832297202     1.007825032230
         H            2.029629023033    -2.044126714999    -0.569318702798     1.007825032230
         H           -2.416930976967     2.148814285001     0.048963297202     1.007825032230
         H           -2.416937976967    -2.148809714999     0.048930297202     1.007825032230
         H           -3.683386976967     0.000004285001     0.131240297202     1.007825032230

  Basis Set: AUG-CC-PVTZ
    Blend: AUG-CC-PVTZ
  Basis Set: (AUG-CC-PVTZ AUX)
    Blend: AUG-CC-PVTZ-JKFIT
	 Reference Energy          =    -363.8788873414270029 [Eh]
	 Singles Energy            =      -0.0000000000000000 [Eh]
	 Same-Spin Energy          =      -0.4034250476920489 [Eh]
	 Opposite-Spin Energy      =      -1.3106416367008489 [Eh]
	 Correlation Energy        =      -1.7140666843928978 [Eh]
	 Total Energy              =    -365.5929540258198926 [Eh]

	 ================> DF-SCS-MP2 Energies <==================
	-----------------------------------------------------------
	 SCS Same-Spin Scale       =       0.3333333333333333 [-]
	 SCS Opposite-Spin Scale   =       1.2000000000000000 [-]
	 SCS Same-Spin Energy      =      -0.1344750158973496 [Eh]
	 SCS Opposite-Spin Energy  =      -1.5727699640410187 [Eh]
	 SCS Correlation Energy    =      -1.7072449799383682 [Eh]
	 SCS Total Energy          =    -365.5861323213653691 [Eh]
	-----------------------------------------------------------

  Dipole Moment: [D]
     X:     1.5452      Y:     0.2078      Z:     0.2023     Total:     1.5721

*** Psi4 exiting successfully. Buy a developer a beer!
