                               Psi4 1.3.2 release

  ==> Input File <==

--------------------------------------------------------------------------
#psi4
#
memory 32 gb

molecule  {
0 1
  N        1.5809750    -0.0000040    -0.2631210
  C        0.1851580    -0.0000010    -0.1154390
  C       -0.5447150     1.2059360    -0.0650820
  C       -0.5447190    -1.2059370    -0.0651000
  C        2.2782760     1.2232720     0.1068400
  C        2.2782740    -1.2232720     0.1068750
  C       -1.9355870     1.1987890     0.0289600
  C       -1.9355910    -1.1987860     0.0289420
  C       -2.6468500     0.0000020     0.0738780
  H       -0.0353100     2.1623660    -0.0908580
  H       -0.0353170    -2.1623680    -0.0908950
  H        1.9822100     2.0441110    -0.5499540
  H        3.3493810     1.0663200    -0.0318300
  H        2.0973190     1.5260350     1.1502070
  H        3.3493810    -1.0663200    -0.0317850
  H        2.0973040    -1.5260120     1.1502460
  H        1.9822180    -2.0441270    -0.5499050
  H       -2.4643420     2.1488140     0.0683770
  H       -2.4643490    -2.1488100     0.0683440
  H       -3.7307980     0.0000040     0.1506540
units angstrom
no_reorient  #important for SAPT in psi4, default
symmetry c1  #important for SAPT in psi4, default
}

set PROPERTIES_ORIGIN ["COM"]
properties('MP2/aug-cc-pvtz', properties = ['dipole'])
--------------------------------------------------------------------------

    Molecular point group: c1
  Charge       = 0
  Multiplicity = 1
  Basis Set: AUG-CC-PVTZ
    Blend: AUG-CC-PVTZ
  Basis Set: (AUG-CC-PVTZ AUX)
    Blend: AUG-CC-PVTZ-JKFIT

    Orbital Energies [Eh]
    ---------------------

    Doubly Occupied:

       1A    -15.569243     2A    -11.275962     3A    -11.254401
       4A    -11.254383     5A    -11.232977     6A    -11.232938
       7A    -11.222106     8A    -11.222090     9A    -11.218301
      10A     -1.253078    11A     -1.131103    12A     -1.010873
      13A     -1.004263    14A     -0.963568    15A     -0.888007
      16A     -0.816738    17A     -0.783509    18A     -0.707958
      19A     -0.647482    20A     -0.643607    21A     -0.635678
      22A     -0.617279    23A     -0.583203    24A     -0.574633
      25A     -0.553319    26A     -0.542060    27A     -0.526383
      28A     -0.506552    29A     -0.495612    30A     -0.476491
      31A     -0.408040    32A     -0.332615    33A     -0.286694

  @DF-RHF Final Energy:  -363.90441690649357

   => Energetics <=

    Nuclear Repulsion Energy =            429.2649942462267632
    One-Electron Energy =               -1342.5965315906071282
    Two-Electron Energy =                 549.4271204378868561
    Total Energy =                       -363.9044169064935659
  Basis Set: (AUG-CC-PVTZ AUX)
    Blend: AUG-CC-PVTZ-RI
    Molecular point group: c1

    Geometry (in Angstrom), charge = 0, multiplicity = 1:

       Center              X                  Y                   Z               Mass
    ------------   -----------------  -----------------  -----------------  -----------------
         N            1.631143753199    -0.000003942930    -0.252932717658    14.003074004430
         C            0.235326753199    -0.000000942930    -0.105250717658    12.000000000000
         C           -0.494546246801     1.205936057070    -0.054893717658    12.000000000000
         C           -0.494550246801    -1.205936942930    -0.054911717658    12.000000000000
         C            2.328444753199     1.223272057070     0.117028282342    12.000000000000
         C            2.328442753199    -1.223271942930     0.117063282342    12.000000000000
         C           -1.885418246801     1.198789057070     0.039148282342    12.000000000000
         C           -1.885422246801    -1.198785942930     0.039130282342    12.000000000000
         C           -2.596681246801     0.000002057070     0.084066282342    12.000000000000
         H            0.014858753199     2.162366057070    -0.080669717658     1.007825032230
         H            0.014851753199    -2.162367942930    -0.080706717658     1.007825032230
         H            2.032378753199     2.044111057070    -0.539765717658     1.007825032230
         H            3.399549753199     1.066320057070    -0.021641717658     1.007825032230
         H            2.147487753199     1.526035057070     1.160395282342     1.007825032230
         H            3.399549753199    -1.066319942930    -0.021596717658     1.007825032230
         H            2.147472753199    -1.526011942930     1.160434282342     1.007825032230
         H            2.032386753199    -2.044126942930    -0.539716717658     1.007825032230
         H           -2.414173246801     2.148814057070     0.078565282342     1.007825032230
         H           -2.414180246801    -2.148809942930     0.078532282342     1.007825032230
         H           -3.680629246801     0.000004057070     0.160842282342     1.007825032230

  Basis Set: AUG-CC-PVTZ
    Blend: AUG-CC-PVTZ
  Basis Set: (AUG-CC-PVTZ AUX)
    Blend: AUG-CC-PVTZ-JKFIT
	 Reference Energy          =    -363.9044169064935659 [Eh]
	 Singles Energy            =      -0.0000000000000000 [Eh]
	 Same-Spin Energy          =      -0.4022087191138913 [Eh]
	 Opposite-Spin Energy      =      -1.3066581891413211 [Eh]
	 Correlation Energy        =      -1.7088669082552124 [Eh]
	 Total Energy              =    -365.6132838147487973 [Eh]

	 ================> DF-SCS-MP2 Energies <==================
	-----------------------------------------------------------
	 SCS Same-Spin Scale       =       0.3333333333333333 [-]
	 SCS Opposite-Spin Scale   =       1.2000000000000000 [-]
	 SCS Same-Spin Energy      =      -0.1340695730379637 [Eh]
	 SCS Opposite-Spin Energy  =      -1.5679898269695853 [Eh]
	 SCS Correlation Energy    =      -1.7020594000075491 [Eh]
	 SCS Total Energy          =    -365.6064763065011221 [Eh]
	-----------------------------------------------------------

  Dipole Moment: [D]
     X:     1.5770      Y:     0.0000      Z:     0.4348     Total:     1.6359

*** Psi4 exiting successfully. Buy a developer a beer!
