                               Psi4 1.3.2 release

  ==> Input File <==

--------------------------------------------------------------------------
#psi4
#
memory 32 gb

molecule  {
0 1
  N        1.5809750    -0.0000040    -0.2631210
  C        0.1851580    -0.0000010    -0.1154390
  C       -0.5447150     1.2059360    -0.0650820
  C       -0.5354431    -1.2059378     0.0344689
  C        2.2782760     1.2232720     0.1068400
  C        2.2782740    -1.2232720     0.1068750
  C       -1.9355870     1.1987890     0.0289600
  C       -1.9355910    -1.1987860     0.0289420
  C       -2.6468500     0.0000020     0.0738780
  H       -0.0353100     2.1623660    -0.0908580
  H       -0.0353170    -2.1623680    -0.0908950
  H        1.9822100     2.0441110    -0.5499540
  H        3.3493810     1.0663200    -0.0318300
  H        2.0973190     1.5260350     1.1502070
  H        3.3493810    -1.0663200    -0.0317850
  H        2.0973040    -1.5260120     1.1502460
  H        1.9822180    -2.0441270    -0.5499050
  H       -2.4643420     2.1488140     0.0683770
  H       -2.4643490    -2.1488100     0.0683440
  H       -3.7307980     0.0000040     0.1506540
units angstrom
no_reorient  #important for SAPT in psi4, default
symmetry c1  #important for SAPT in psi4, default
}

set PROPERTIES_ORIGIN ["COM"]
properties('MP2/aug-cc-pvtz', properties = ['dipole'])
--------------------------------------------------------------------------

    Molecular point group: c1
  Charge       = 0
  Multiplicity = 1
  Basis Set: AUG-CC-PVTZ
    Blend: AUG-CC-PVTZ
  Basis Set: (AUG-CC-PVTZ AUX)
    Blend: AUG-CC-PVTZ-JKFIT

    Orbital Energies [Eh]
    ---------------------

    Doubly Occupied:

       1A    -15.569574     2A    -11.276731     3A    -11.254513
       4A    -11.254267     5A    -11.234012     6A    -11.233556
       7A    -11.222652     8A    -11.222192     9A    -11.218353
      10A     -1.253233    11A     -1.130689    12A     -1.010346
      13A     -1.004200    14A     -0.963495    15A     -0.887998
      16A     -0.816734    17A     -0.783030    18A     -0.707640
      19A     -0.646958    20A     -0.643218    21A     -0.636122
      22A     -0.617196    23A     -0.582770    24A     -0.574342
      25A     -0.552971    26A     -0.542441    27A     -0.526381
      28A     -0.504849    29A     -0.496524    30A     -0.476109
      31A     -0.407100    32A     -0.332292    33A     -0.287362

  @DF-RHF Final Energy:  -363.90181552489889

   => Energetics <=

    Nuclear Repulsion Energy =            429.2044303003249297
    One-Electron Energy =               -1342.4727900370342013
    Two-Electron Energy =                 549.3665442118103783
    Total Energy =                       -363.9018155248988933
  Basis Set: (AUG-CC-PVTZ AUX)
    Blend: AUG-CC-PVTZ-RI
    Molecular point group: c1

    Geometry (in Angstrom), charge = 0, multiplicity = 1:

       Center              X                  Y                   Z               Mass
    ------------   -----------------  -----------------  -----------------  -----------------
         N            1.630224506507    -0.000003863649    -0.262800049341    14.003074004430
         C            0.234407506507    -0.000000863649    -0.115118049341    12.000000000000
         C           -0.495465493493     1.205936136351    -0.064761049341    12.000000000000
         C           -0.486193593493    -1.205937663649     0.034789850659    12.000000000000
         C            2.327525506507     1.223272136351     0.107160950659    12.000000000000
         C            2.327523506507    -1.223271863649     0.107195950659    12.000000000000
         C           -1.886337493493     1.198789136351     0.029280950659    12.000000000000
         C           -1.886341493493    -1.198785863649     0.029262950659    12.000000000000
         C           -2.597600493493     0.000002136351     0.074198950659    12.000000000000
         H            0.013939506507     2.162366136351    -0.090537049341     1.007825032230
         H            0.013932506507    -2.162367863649    -0.090574049341     1.007825032230
         H            2.031459506507     2.044111136351    -0.549633049341     1.007825032230
         H            3.398630506507     1.066320136351    -0.031509049341     1.007825032230
         H            2.146568506507     1.526035136351     1.150527950659     1.007825032230
         H            3.398630506507    -1.066319863649    -0.031464049341     1.007825032230
         H            2.146553506507    -1.526011863649     1.150566950659     1.007825032230
         H            2.031467506507    -2.044126863649    -0.549584049341     1.007825032230
         H           -2.415092493493     2.148814136351     0.068697950659     1.007825032230
         H           -2.415099493493    -2.148809863649     0.068664950659     1.007825032230
         H           -3.681548493493     0.000004136351     0.150974950659     1.007825032230

  Basis Set: AUG-CC-PVTZ
    Blend: AUG-CC-PVTZ
  Basis Set: (AUG-CC-PVTZ AUX)
    Blend: AUG-CC-PVTZ-JKFIT
	 Reference Energy          =    -363.9018155248988933 [Eh]
	 Singles Energy            =      -0.0000000000000000 [Eh]
	 Same-Spin Energy          =      -0.4023750547254294 [Eh]
	 Opposite-Spin Energy      =      -1.3071645672797403 [Eh]
	 Correlation Energy        =      -1.7095396220051697 [Eh]
	 Total Energy              =    -365.6113551469040885 [Eh]

	 ================> DF-SCS-MP2 Energies <==================
	-----------------------------------------------------------
	 SCS Same-Spin Scale       =       0.3333333333333333 [-]
	 SCS Opposite-Spin Scale   =       1.2000000000000000 [-]
	 SCS Same-Spin Energy      =      -0.1341250182418098 [Eh]
	 SCS Opposite-Spin Energy  =      -1.5685974807356884 [Eh]
	 SCS Correlation Energy    =      -1.7027224989774981 [Eh]
	 SCS Total Energy          =    -365.6045380238763869 [Eh]
	-----------------------------------------------------------

  Dipole Moment: [D]
     X:     1.5674      Y:     0.0271      Z:     0.3609     Total:     1.6086

*** Psi4 exiting successfully. Buy a developer a beer!
