                               Psi4 1.3.2 release

  ==> Input File <==

--------------------------------------------------------------------------
#psi4
#
memory 32 gb

molecule  {
1 1
  N       -3.4197460    -0.1817000     0.1602720
  N       -0.6214370    -0.0078370    -0.1287630
  C       -2.7377630    -0.6049400    -1.1216890
  C       -2.6265040     0.8533270     0.9259500
  C       -1.3397990    -1.0900720    -0.7822260
  C       -1.2267490     0.3141230     1.1574790
  C        0.8091060    -0.1845140    -0.0397240
  C        1.6179690     0.9496740    -0.2359790
  C        1.3698700    -1.4337860     0.2499420
  C        3.0044760     0.7849240    -0.1342920
  C        1.0196790     2.2951990    -0.5492200
  C        2.7558540    -1.5738690     0.3292430
  C        3.5736970    -0.4590730     0.1432710
  H       -2.7010110     0.2771110    -1.7633110
  H       -3.3565410    -1.3799850    -1.5813290
  H       -3.1641810     1.0582560     1.8552750
  H       -2.5989570     1.7488760     0.3025170
  H       -1.4126900    -2.0099640    -0.1705650
  H       -0.8261290    -1.3544960    -1.7108330
  H       -0.6365290     1.0912410     1.6504410
  H       -1.2578930    -0.5558900     1.8421060
  H       -4.3648950     0.1725180    -0.0402120
  H       -3.5438220    -1.0118610     0.7575640
  H        0.7360800    -2.3037000     0.4086560
  H        3.6499200     1.6470780    -0.2894290
  H        0.2227830     2.2055990    -1.2916560
  H        0.5919240     2.7705950     0.3416580
  H        1.7859030     2.9697170    -0.9386560
  H        3.1912420    -2.5456860     0.5460090
  H        4.6540550    -0.5586080     0.2046590
units angstrom
no_reorient  #important for SAPT in psi4, default
symmetry c1  #important for SAPT in psi4, default
}

set PROPERTIES_ORIGIN ["COM"]
properties('MP2/aug-cc-pvtz', properties = ['dipole'])
--------------------------------------------------------------------------

    Molecular point group: c1
  Charge       = 1
  Multiplicity = 1
  Basis Set: AUG-CC-PVTZ
    Blend: AUG-CC-PVTZ
  Basis Set: (AUG-CC-PVTZ AUX)
    Blend: AUG-CC-PVTZ-JKFIT

    Orbital Energies [Eh]
    ---------------------

    Doubly Occupied:

       1A    -15.866647     2A    -15.703072     3A    -11.456824
       4A    -11.456790     5A    -11.417557     6A    -11.417284
       7A    -11.375179     8A    -11.344397     9A    -11.340197
      10A    -11.331816    11A    -11.329893    12A    -11.328622
      13A    -11.323586    14A     -1.497553    15A     -1.390271
      16A     -1.249931    17A     -1.221876    18A     -1.155624
      19A     -1.142655    20A     -1.088116    21A     -1.053514
      22A     -1.032008    23A     -0.996114    24A     -0.935497
      25A     -0.924280    26A     -0.903362    27A     -0.867485
      28A     -0.823745    29A     -0.810208    30A     -0.793577
      31A     -0.788507    32A     -0.754997    33A     -0.744787
      34A     -0.734577    35A     -0.714614    36A     -0.704532
      37A     -0.687759    38A     -0.675201    39A     -0.669549
      40A     -0.659978    41A     -0.655647    42A     -0.640509
      43A     -0.599953    44A     -0.591691    45A     -0.588083
      46A     -0.521665    47A     -0.433564    48A     -0.423498

  @DF-RHF Final Energy:  -535.30887743270750

   => Energetics <=

    Nuclear Repulsion Energy =            820.2917086269999345
    One-Electron Energy =               -2338.8675896919207844
    Two-Electron Energy =                 983.2670036322133456
    Total Energy =                       -535.3088774327075043
  Basis Set: (AUG-CC-PVTZ AUX)
    Blend: AUG-CC-PVTZ-RI
    Molecular point group: c1

    Geometry (in Angstrom), charge = 1, multiplicity = 1:

       Center              X                  Y                   Z               Mass
    ------------   -----------------  -----------------  -----------------  -----------------
         N           -3.470257924418    -0.169257773055     0.160959942081    14.003074004430
         N           -0.671948924418     0.004605226945    -0.128075057919    14.003074004430
         C           -2.788274924418    -0.592497773055    -1.121001057919    12.000000000000
         C           -2.677015924418     0.865769226945     0.926637942081    12.000000000000
         C           -1.390310924418    -1.077629773055    -0.781538057919    12.000000000000
         C           -1.277260924418     0.326565226945     1.158166942081    12.000000000000
         C            0.758594075582    -0.172071773055    -0.039036057919    12.000000000000
         C            1.567457075582     0.962116226945    -0.235291057919    12.000000000000
         C            1.319358075582    -1.421343773055     0.250629942081    12.000000000000
         C            2.953964075582     0.797366226945    -0.133604057919    12.000000000000
         C            0.969167075582     2.307641226945    -0.548532057919    12.000000000000
         C            2.705342075582    -1.561426773055     0.329930942081    12.000000000000
         C            3.523185075582    -0.446630773055     0.143958942081    12.000000000000
         H           -2.751522924418     0.289553226945    -1.762623057919     1.007825032230
         H           -3.407052924418    -1.367542773055    -1.580641057919     1.007825032230
         H           -3.214692924418     1.070698226945     1.855962942081     1.007825032230
         H           -2.649468924418     1.761318226945     0.303204942081     1.007825032230
         H           -1.463201924418    -1.997521773055    -0.169877057919     1.007825032230
         H           -0.876640924418    -1.342053773055    -1.710145057919     1.007825032230
         H           -0.687040924418     1.103683226945     1.651128942081     1.007825032230
         H           -1.308404924418    -0.543447773055     1.842793942081     1.007825032230
         H           -4.415406924418     0.184960226945    -0.039524057919     1.007825032230
         H           -3.594333924418    -0.999418773055     0.758251942081     1.007825032230
         H            0.685568075582    -2.291257773055     0.409343942081     1.007825032230
         H            3.599408075582     1.659520226945    -0.288741057919     1.007825032230
         H            0.172271075582     2.218041226945    -1.290968057919     1.007825032230
         H            0.541412075582     2.783037226945     0.342345942081     1.007825032230
         H            1.735391075582     2.982159226945    -0.937968057919     1.007825032230
         H            3.140730075582    -2.533243773055     0.546696942081     1.007825032230
         H            4.603543075582    -0.546165773055     0.205346942081     1.007825032230

  Basis Set: AUG-CC-PVTZ
    Blend: AUG-CC-PVTZ
  Basis Set: (AUG-CC-PVTZ AUX)
    Blend: AUG-CC-PVTZ-JKFIT
	 Reference Energy          =    -535.3088774327075043 [Eh]
	 Singles Energy            =      -0.0000000000000000 [Eh]
	 Same-Spin Energy          =      -0.5852955013395209 [Eh]
	 Opposite-Spin Energy      =      -1.9171497554753398 [Eh]
	 Correlation Energy        =      -2.5024452568148607 [Eh]
	 Total Energy              =    -537.8113226895223988 [Eh]

	 ================> DF-SCS-MP2 Energies <==================
	-----------------------------------------------------------
	 SCS Same-Spin Scale       =       0.3333333333333333 [-]
	 SCS Opposite-Spin Scale   =       1.2000000000000000 [-]
	 SCS Same-Spin Energy      =      -0.1950985004465070 [Eh]
	 SCS Opposite-Spin Energy  =      -2.3005797065704079 [Eh]
	 SCS Correlation Energy    =      -2.4956782070169150 [Eh]
	 SCS Total Energy          =    -537.8045556397244127 [Eh]
	-----------------------------------------------------------

  Dipole Moment: [D]
     X:   -12.1064      Y:    -0.6848      Z:     0.7324     Total:    12.1478

*** Psi4 exiting successfully. Buy a developer a beer!
