                               Psi4 1.3.2 release

  ==> Input File <==

--------------------------------------------------------------------------
#psi4
#
memory 32 gb

molecule  {
1 1
  N       -3.4197460    -0.1817000     0.1602720
  N       -0.6214370    -0.0078370    -0.1287630
  C       -2.7377630    -0.6049400    -1.1216890
  C       -2.6265040     0.8533270     0.9259500
  C       -1.3397990    -1.0900720    -0.7822260
  C       -1.2267490     0.3141230     1.1574790
  C        0.8091060    -0.1845140    -0.0397240
  C        1.6179690     0.9496740    -0.2359790
  C        1.3779156    -1.4745100     0.0542974
  C        3.0044760     0.7849240    -0.1342920
  C        1.0196790     2.2951990    -0.5492200
  C        2.7558540    -1.5738690     0.3292430
  C        3.5736970    -0.4590730     0.1432710
  H       -2.7010110     0.2771110    -1.7633110
  H       -3.3565410    -1.3799850    -1.5813290
  H       -3.1641810     1.0582560     1.8552750
  H       -2.5989570     1.7488760     0.3025170
  H       -1.4126900    -2.0099640    -0.1705650
  H       -0.8261290    -1.3544960    -1.7108330
  H       -0.6365290     1.0912410     1.6504410
  H       -1.2578930    -0.5558900     1.8421060
  H       -4.3648950     0.1725180    -0.0402120
  H       -3.5438220    -1.0118610     0.7575640
  H        0.7360800    -2.3037000     0.4086560
  H        3.6499200     1.6470780    -0.2894290
  H        0.2227830     2.2055990    -1.2916560
  H        0.5919240     2.7705950     0.3416580
  H        1.7859030     2.9697170    -0.9386560
  H        3.1912420    -2.5456860     0.5460090
  H        4.6540550    -0.5586080     0.2046590
units angstrom
no_reorient  #important for SAPT in psi4, default
symmetry c1  #important for SAPT in psi4, default
}

set PROPERTIES_ORIGIN ["COM"]
properties('MP2/aug-cc-pvtz', properties = ['dipole'])
--------------------------------------------------------------------------

    Molecular point group: c1
  Charge       = 1
  Multiplicity = 1
  Basis Set: AUG-CC-PVTZ
    Blend: AUG-CC-PVTZ
  Basis Set: (AUG-CC-PVTZ AUX)
    Blend: AUG-CC-PVTZ-JKFIT

    Orbital Energies [Eh]
    ---------------------

    Doubly Occupied:

       1A    -15.866776     2A    -15.704128     3A    -11.457285
       4A    -11.456722     5A    -11.418243     6A    -11.417291
       7A    -11.379106     8A    -11.343583     9A    -11.342807
      10A    -11.335313    11A    -11.331877    12A    -11.328066
      13A    -11.323658    14A     -1.497731    15A     -1.390881
      16A     -1.248957    17A     -1.222143    18A     -1.155626
      19A     -1.141616    20A     -1.087353    21A     -1.053844
      22A     -1.031539    23A     -0.996176    24A     -0.935385
      25A     -0.923986    26A     -0.902036    27A     -0.866712
      28A     -0.823929    29A     -0.810439    30A     -0.793237
      31A     -0.788814    32A     -0.752042    33A     -0.743549
      34A     -0.733407    35A     -0.713254    36A     -0.704264
      37A     -0.687759    38A     -0.675566    39A     -0.666597
      40A     -0.660162    41A     -0.655836    42A     -0.639881
      43A     -0.598818    44A     -0.592711    45A     -0.585126
      46A     -0.524634    47A     -0.433042    48A     -0.420473

  @DF-RHF Final Energy:  -535.29687678321920

   => Energetics <=

    Nuclear Repulsion Energy =            819.7848410150157861
    One-Electron Energy =               -2337.8386717482057975
    Two-Electron Energy =                 982.7569539499706934
    Total Energy =                       -535.2968767832192043
  Basis Set: (AUG-CC-PVTZ AUX)
    Blend: AUG-CC-PVTZ-RI
    Molecular point group: c1

    Geometry (in Angstrom), charge = 1, multiplicity = 1:

       Center              X                  Y                   Z               Mass
    ------------   -----------------  -----------------  -----------------  -----------------
         N           -3.470802960268    -0.166498993107     0.174213561554    14.003074004430
         N           -0.672493960268     0.007364006893    -0.114821438446    14.003074004430
         C           -2.788819960268    -0.589738993107    -1.107747438446    12.000000000000
         C           -2.677560960268     0.868528006893     0.939891561554    12.000000000000
         C           -1.390855960268    -1.074870993107    -0.768284438446    12.000000000000
         C           -1.277805960268     0.329324006893     1.171420561554    12.000000000000
         C            0.758049039732    -0.169312993107    -0.025782438446    12.000000000000
         C            1.566912039732     0.964875006893    -0.222037438446    12.000000000000
         C            1.326858639732    -1.459308993107     0.068238961554    12.000000000000
         C            2.953419039732     0.800125006893    -0.120350438446    12.000000000000
         C            0.968622039732     2.310400006893    -0.535278438446    12.000000000000
         C            2.704797039732    -1.558667993107     0.343184561554    12.000000000000
         C            3.522640039732    -0.443871993107     0.157212561554    12.000000000000
         H           -2.752067960268     0.292312006893    -1.749369438446     1.007825032230
         H           -3.407597960268    -1.364783993107    -1.567387438446     1.007825032230
         H           -3.215237960268     1.073457006893     1.869216561554     1.007825032230
         H           -2.650013960268     1.764077006893     0.316458561554     1.007825032230
         H           -1.463746960268    -1.994762993107    -0.156623438446     1.007825032230
         H           -0.877185960268    -1.339294993107    -1.696891438446     1.007825032230
         H           -0.687585960268     1.106442006893     1.664382561554     1.007825032230
         H           -1.308949960268    -0.540688993107     1.856047561554     1.007825032230
         H           -4.415951960268     0.187719006893    -0.026270438446     1.007825032230
         H           -3.594878960268    -0.996659993107     0.771505561554     1.007825032230
         H            0.685023039732    -2.288498993107     0.422597561554     1.007825032230
         H            3.598863039732     1.662279006893    -0.275487438446     1.007825032230
         H            0.171726039732     2.220800006893    -1.277714438446     1.007825032230
         H            0.540867039732     2.785796006893     0.355599561554     1.007825032230
         H            1.734846039732     2.984918006893    -0.924714438446     1.007825032230
         H            3.140185039732    -2.530484993107     0.559950561554     1.007825032230
         H            4.602998039732    -0.543406993107     0.218600561554     1.007825032230

  Basis Set: AUG-CC-PVTZ
    Blend: AUG-CC-PVTZ
  Basis Set: (AUG-CC-PVTZ AUX)
    Blend: AUG-CC-PVTZ-JKFIT
	 Reference Energy          =    -535.2968767832192043 [Eh]
	 Singles Energy            =      -0.0000000000000000 [Eh]
	 Same-Spin Energy          =      -0.5860839139262073 [Eh]
	 Opposite-Spin Energy      =      -1.9192035021650893 [Eh]
	 Correlation Energy        =      -2.5052874160912966 [Eh]
	 Total Energy              =    -537.8021641993104822 [Eh]

	 ================> DF-SCS-MP2 Energies <==================
	-----------------------------------------------------------
	 SCS Same-Spin Scale       =       0.3333333333333333 [-]
	 SCS Opposite-Spin Scale   =       1.2000000000000000 [-]
	 SCS Same-Spin Energy      =      -0.1953613046420691 [Eh]
	 SCS Opposite-Spin Energy  =      -2.3030442025981070 [Eh]
	 SCS Correlation Energy    =      -2.4984055072401761 [Eh]
	 SCS Total Energy          =    -537.7952822904593404 [Eh]
	-----------------------------------------------------------

  Dipole Moment: [D]
     X:   -12.1085      Y:    -0.5746      Z:     0.9003     Total:    12.1556

*** Psi4 exiting successfully. Buy a developer a beer!
