                               Psi4 1.3.2 release

  ==> Input File <==

--------------------------------------------------------------------------
#psi4
#
memory 32 gb

molecule  {
1 1
  N       -3.4197460    -0.1817000     0.1602720
  N       -0.6214370    -0.0078370    -0.1287630
  C       -2.7377630    -0.6049400    -1.1216890
  C       -2.6265040     0.8533270     0.9259500
  C       -1.3397990    -1.0900720    -0.7822260
  C       -1.2267490     0.3141230     1.1574790
  C        0.8091060    -0.1845140    -0.0397240
  C        1.6179690     0.9496740    -0.2359790
  C        1.3738928    -1.4541480     0.1521197
  C        3.0044760     0.7849240    -0.1342920
  C        1.0196790     2.2951990    -0.5492200
  C        2.7558540    -1.5738690     0.3292430
  C        3.5736970    -0.4590730     0.1432710
  H       -2.7010110     0.2771110    -1.7633110
  H       -3.3565410    -1.3799850    -1.5813290
  H       -3.1641810     1.0582560     1.8552750
  H       -2.5989570     1.7488760     0.3025170
  H       -1.4126900    -2.0099640    -0.1705650
  H       -0.8261290    -1.3544960    -1.7108330
  H       -0.6365290     1.0912410     1.6504410
  H       -1.2578930    -0.5558900     1.8421060
  H       -4.3648950     0.1725180    -0.0402120
  H       -3.5438220    -1.0118610     0.7575640
  H        0.7360800    -2.3037000     0.4086560
  H        3.6499200     1.6470780    -0.2894290
  H        0.2227830     2.2055990    -1.2916560
  H        0.5919240     2.7705950     0.3416580
  H        1.7859030     2.9697170    -0.9386560
  H        3.1912420    -2.5456860     0.5460090
  H        4.6540550    -0.5586080     0.2046590
units angstrom
no_reorient  #important for SAPT in psi4, default
symmetry c1  #important for SAPT in psi4, default
}

set PROPERTIES_ORIGIN ["COM"]
properties('MP2/aug-cc-pvtz', properties = ['dipole'])
--------------------------------------------------------------------------

    Molecular point group: c1
  Charge       = 1
  Multiplicity = 1
  Basis Set: AUG-CC-PVTZ
    Blend: AUG-CC-PVTZ
  Basis Set: (AUG-CC-PVTZ AUX)
    Blend: AUG-CC-PVTZ-JKFIT

    Orbital Energies [Eh]
    ---------------------

    Doubly Occupied:

       1A    -15.866728     2A    -15.703538     3A    -11.457022
       4A    -11.456808     5A    -11.417700     6A    -11.417499
       7A    -11.376321     8A    -11.344038     9A    -11.340755
      10A    -11.332661    11A    -11.330283    12A    -11.328427
      13A    -11.323577    14A     -1.497654    15A     -1.390556
      16A     -1.249666    17A     -1.222021    18A     -1.155637
      19A     -1.142399    20A     -1.087976    21A     -1.053698
      22A     -1.031865    23A     -0.996164    24A     -0.935495
      25A     -0.924207    26A     -0.903022    27A     -0.867281
      28A     -0.823859    29A     -0.810415    30A     -0.793552
      31A     -0.788681    32A     -0.754090    33A     -0.744480
      34A     -0.734113    35A     -0.714431    36A     -0.704546
      37A     -0.687796    38A     -0.675288    39A     -0.668572
      40A     -0.660110    41A     -0.655833    42A     -0.640296
      43A     -0.599400    44A     -0.591920    45A     -0.587685
      46A     -0.523287    47A     -0.433136    48A     -0.422311

  @DF-RHF Final Energy:  -535.30598544340057

   => Energetics <=

    Nuclear Repulsion Energy =            820.1554613908349438
    One-Electron Energy =               -2338.5892928249877514
    Two-Electron Energy =                 983.1278459907522347
    Total Energy =                       -535.3059854434005729
  Basis Set: (AUG-CC-PVTZ AUX)
    Blend: AUG-CC-PVTZ-RI
    Molecular point group: c1

    Geometry (in Angstrom), charge = 1, multiplicity = 1:

       Center              X                  Y                   Z               Mass
    ------------   -----------------  -----------------  -----------------  -----------------
         N           -3.470530442343    -0.167878383081     0.167586751817    14.003074004430
         N           -0.672221442343     0.005984616919    -0.121448248183    14.003074004430
         C           -2.788547442343    -0.591118383081    -1.114374248183    12.000000000000
         C           -2.677288442343     0.867148616919     0.933264751817    12.000000000000
         C           -1.390583442343    -1.076250383081    -0.774911248183    12.000000000000
         C           -1.277533442343     0.327944616919     1.164793751817    12.000000000000
         C            0.758321557657    -0.170692383081    -0.032409248183    12.000000000000
         C            1.567184557657     0.963495616919    -0.228664248183    12.000000000000
         C            1.323108357657    -1.440326383081     0.159434451817    12.000000000000
         C            2.953691557657     0.798745616919    -0.126977248183    12.000000000000
         C            0.968894557657     2.309020616919    -0.541905248183    12.000000000000
         C            2.705069557657    -1.560047383081     0.336557751817    12.000000000000
         C            3.522912557657    -0.445251383081     0.150585751817    12.000000000000
         H           -2.751795442343     0.290932616919    -1.755996248183     1.007825032230
         H           -3.407325442343    -1.366163383081    -1.574014248183     1.007825032230
         H           -3.214965442343     1.072077616919     1.862589751817     1.007825032230
         H           -2.649741442343     1.762697616919     0.309831751817     1.007825032230
         H           -1.463474442343    -1.996142383081    -0.163250248183     1.007825032230
         H           -0.876913442343    -1.340674383081    -1.703518248183     1.007825032230
         H           -0.687313442343     1.105062616919     1.657755751817     1.007825032230
         H           -1.308677442343    -0.542068383081     1.849420751817     1.007825032230
         H           -4.415679442343     0.186339616919    -0.032897248183     1.007825032230
         H           -3.594606442343    -0.998039383081     0.764878751817     1.007825032230
         H            0.685295557657    -2.289878383081     0.415970751817     1.007825032230
         H            3.599135557657     1.660899616919    -0.282114248183     1.007825032230
         H            0.171998557657     2.219420616919    -1.284341248183     1.007825032230
         H            0.541139557657     2.784416616919     0.348972751817     1.007825032230
         H            1.735118557657     2.983538616919    -0.931341248183     1.007825032230
         H            3.140457557657    -2.531864383081     0.553323751817     1.007825032230
         H            4.603270557657    -0.544786383081     0.211973751817     1.007825032230

  Basis Set: AUG-CC-PVTZ
    Blend: AUG-CC-PVTZ
  Basis Set: (AUG-CC-PVTZ AUX)
    Blend: AUG-CC-PVTZ-JKFIT
	 Reference Energy          =    -535.3059854434005729 [Eh]
	 Singles Energy            =      -0.0000000000000000 [Eh]
	 Same-Spin Energy          =      -0.5855210034303214 [Eh]
	 Opposite-Spin Energy      =      -1.9176869651382851 [Eh]
	 Correlation Energy        =      -2.5032079685686064 [Eh]
	 Total Energy              =    -537.8091934119692041 [Eh]

	 ================> DF-SCS-MP2 Energies <==================
	-----------------------------------------------------------
	 SCS Same-Spin Scale       =       0.3333333333333333 [-]
	 SCS Opposite-Spin Scale   =       1.2000000000000000 [-]
	 SCS Same-Spin Energy      =      -0.1951736678101071 [Eh]
	 SCS Opposite-Spin Energy  =      -2.3012243581659422 [Eh]
	 SCS Correlation Energy    =      -2.4963980259760494 [Eh]
	 SCS Total Energy          =    -537.8023834693766503 [Eh]
	-----------------------------------------------------------

  Dipole Moment: [D]
     X:   -12.1200      Y:    -0.6482      Z:     0.8178     Total:    12.1648

*** Psi4 exiting successfully. Buy a developer a beer!
