                               Psi4 1.3.2 release

  ==> Input File <==

--------------------------------------------------------------------------
#psi4
#
memory 32 gb

molecule  {
1 1
  N       -3.4197460    -0.1817000     0.1602720
  N       -0.6214370    -0.0078370    -0.1287630
  C       -2.7377630    -0.6049400    -1.1216890
  C       -2.6265040     0.8533270     0.9259500
  C       -1.3397990    -1.0900720    -0.7822260
  C       -1.2267490     0.3141230     1.1574790
  C        0.8091060    -0.1845140    -0.0397240
  C        1.6179690     0.9496740    -0.2359790
  C        1.3799270    -1.4846910     0.0053862
  C        3.0044760     0.7849240    -0.1342920
  C        1.0196790     2.2951990    -0.5492200
  C        2.7558540    -1.5738690     0.3292430
  C        3.5736970    -0.4590730     0.1432710
  H       -2.7010110     0.2771110    -1.7633110
  H       -3.3565410    -1.3799850    -1.5813290
  H       -3.1641810     1.0582560     1.8552750
  H       -2.5989570     1.7488760     0.3025170
  H       -1.4126900    -2.0099640    -0.1705650
  H       -0.8261290    -1.3544960    -1.7108330
  H       -0.6365290     1.0912410     1.6504410
  H       -1.2578930    -0.5558900     1.8421060
  H       -4.3648950     0.1725180    -0.0402120
  H       -3.5438220    -1.0118610     0.7575640
  H        0.7360800    -2.3037000     0.4086560
  H        3.6499200     1.6470780    -0.2894290
  H        0.2227830     2.2055990    -1.2916560
  H        0.5919240     2.7705950     0.3416580
  H        1.7859030     2.9697170    -0.9386560
  H        3.1912420    -2.5456860     0.5460090
  H        4.6540550    -0.5586080     0.2046590
units angstrom
no_reorient  #important for SAPT in psi4, default
symmetry c1  #important for SAPT in psi4, default
}

set PROPERTIES_ORIGIN ["COM"]
properties('MP2/aug-cc-pvtz', properties = ['dipole'])
--------------------------------------------------------------------------

    Molecular point group: c1
  Charge       = 1
  Multiplicity = 1
  Basis Set: AUG-CC-PVTZ
    Blend: AUG-CC-PVTZ
  Basis Set: (AUG-CC-PVTZ AUX)
    Blend: AUG-CC-PVTZ-JKFIT

    Orbital Energies [Eh]
    ---------------------

    Doubly Occupied:

       1A    -15.866788     2A    -15.704474     3A    -11.457432
       4A    -11.456648     5A    -11.418567     6A    -11.417118
       7A    -11.381070     8A    -11.344330     9A    -11.343344
      10A    -11.337276    11A    -11.333149    12A    -11.327830
      13A    -11.323743    14A     -1.497761    15A     -1.391060
      16A     -1.248469    17A     -1.222195    18A     -1.155629
      19A     -1.141033    20A     -1.086842    21A     -1.053899
      22A     -1.031336    23A     -0.996166    24A     -0.935298
      25A     -0.923822    26A     -0.901367    27A     -0.866314
      28A     -0.823949    29A     -0.810429    30A     -0.793017
      31A     -0.788866    32A     -0.750765    33A     -0.742943
      34A     -0.732942    35A     -0.712267    36A     -0.704007
      37A     -0.687710    38A     -0.675758    39A     -0.665331
      40A     -0.660142    41A     -0.655694    42A     -0.639583
      43A     -0.598567    44A     -0.592863    45A     -0.583387
      46A     -0.525169    47A     -0.433156    48A     -0.419359

  @DF-RHF Final Energy:  -535.28993608072187

   => Energetics <=

    Nuclear Repulsion Energy =            819.5152199635532497
    One-Electron Energy =               -2337.2925835983983234
    Two-Electron Energy =                 982.4874275541233146
    Total Energy =                       -535.2899360807218727
  Basis Set: (AUG-CC-PVTZ AUX)
    Blend: AUG-CC-PVTZ-RI
    Molecular point group: c1

    Geometry (in Angstrom), charge = 1, multiplicity = 1:

       Center              X                  Y                   Z               Mass
    ------------   -----------------  -----------------  -----------------  -----------------
         N           -3.470939219230    -0.165809298120     0.177526969809    14.003074004430
         N           -0.672630219230     0.008053701880    -0.111508030191    14.003074004430
         C           -2.788956219230    -0.589049298120    -1.104434030191    12.000000000000
         C           -2.677697219230     0.869217701880     0.943204969809    12.000000000000
         C           -1.390992219230    -1.074181298120    -0.764971030191    12.000000000000
         C           -1.277942219230     0.330013701880     1.174733969809    12.000000000000
         C            0.757912780770    -0.168623298120    -0.022469030191    12.000000000000
         C            1.566775780770     0.965564701880    -0.218724030191    12.000000000000
         C            1.328733780770    -1.468800298120     0.022641169809    12.000000000000
         C            2.953282780770     0.800814701880    -0.117037030191    12.000000000000
         C            0.968485780770     2.311089701880    -0.531965030191    12.000000000000
         C            2.704660780770    -1.557978298120     0.346497969809    12.000000000000
         C            3.522503780770    -0.443182298120     0.160525969809    12.000000000000
         H           -2.752204219230     0.293001701880    -1.746056030191     1.007825032230
         H           -3.407734219230    -1.364094298120    -1.564074030191     1.007825032230
         H           -3.215374219230     1.074146701880     1.872529969809     1.007825032230
         H           -2.650150219230     1.764766701880     0.319771969809     1.007825032230
         H           -1.463883219230    -1.994073298120    -0.153310030191     1.007825032230
         H           -0.877322219230    -1.338605298120    -1.693578030191     1.007825032230
         H           -0.687722219230     1.107131701880     1.667695969809     1.007825032230
         H           -1.309086219230    -0.539999298120     1.859360969809     1.007825032230
         H           -4.416088219230     0.188408701880    -0.022957030191     1.007825032230
         H           -3.595015219230    -0.995970298120     0.774818969809     1.007825032230
         H            0.684886780770    -2.287809298120     0.425910969809     1.007825032230
         H            3.598726780770     1.662968701880    -0.272174030191     1.007825032230
         H            0.171589780770     2.221489701880    -1.274401030191     1.007825032230
         H            0.540730780770     2.786485701880     0.358912969809     1.007825032230
         H            1.734709780770     2.985607701880    -0.921401030191     1.007825032230
         H            3.140048780770    -2.529795298120     0.563263969809     1.007825032230
         H            4.602861780770    -0.542717298120     0.221913969809     1.007825032230

  Basis Set: AUG-CC-PVTZ
    Blend: AUG-CC-PVTZ
  Basis Set: (AUG-CC-PVTZ AUX)
    Blend: AUG-CC-PVTZ-JKFIT
	 Reference Energy          =    -535.2899360807218727 [Eh]
	 Singles Energy            =      -0.0000000000000000 [Eh]
	 Same-Spin Energy          =      -0.5864780902063824 [Eh]
	 Opposite-Spin Energy      =      -1.9203063370554456 [Eh]
	 Correlation Energy        =      -2.5067844272618283 [Eh]
	 Total Energy              =    -537.7967205079836504 [Eh]

	 ================> DF-SCS-MP2 Energies <==================
	-----------------------------------------------------------
	 SCS Same-Spin Scale       =       0.3333333333333333 [-]
	 SCS Opposite-Spin Scale   =       1.2000000000000000 [-]
	 SCS Same-Spin Energy      =      -0.1954926967354608 [Eh]
	 SCS Opposite-Spin Energy  =      -2.3043676044665347 [Eh]
	 SCS Correlation Energy    =      -2.4998603012019953 [Eh]
	 SCS Total Energy          =    -537.7897963819239067 [Eh]
	-----------------------------------------------------------

  Dipole Moment: [D]
     X:   -12.0939      Y:    -0.5241      Z:     0.9409     Total:    12.1417

*** Psi4 exiting successfully. Buy a developer a beer!
