                               Psi4 1.3.2 release

  ==> Input File <==

--------------------------------------------------------------------------
#psi4
#
memory 32 gb

molecule  {
1 1
  N       -3.4197460    -0.1817000     0.1602720
  N       -0.6214370    -0.0078370    -0.1287630
  C       -2.7377630    -0.6049400    -1.1216890
  C       -2.6265040     0.8533270     0.9259500
  C       -1.3397990    -1.0900720    -0.7822260
  C       -1.2267490     0.3141230     1.1574790
  C        0.8091060    -0.1845140    -0.0397240
  C        1.6179690     0.9496740    -0.2359790
  C        1.3718814    -1.4439670     0.2010308
  C        3.0044760     0.7849240    -0.1342920
  C        1.0196790     2.2951990    -0.5492200
  C        2.7558540    -1.5738690     0.3292430
  C        3.5736970    -0.4590730     0.1432710
  H       -2.7010110     0.2771110    -1.7633110
  H       -3.3565410    -1.3799850    -1.5813290
  H       -3.1641810     1.0582560     1.8552750
  H       -2.5989570     1.7488760     0.3025170
  H       -1.4126900    -2.0099640    -0.1705650
  H       -0.8261290    -1.3544960    -1.7108330
  H       -0.6365290     1.0912410     1.6504410
  H       -1.2578930    -0.5558900     1.8421060
  H       -4.3648950     0.1725180    -0.0402120
  H       -3.5438220    -1.0118610     0.7575640
  H        0.7360800    -2.3037000     0.4086560
  H        3.6499200     1.6470780    -0.2894290
  H        0.2227830     2.2055990    -1.2916560
  H        0.5919240     2.7705950     0.3416580
  H        1.7859030     2.9697170    -0.9386560
  H        3.1912420    -2.5456860     0.5460090
  H        4.6540550    -0.5586080     0.2046590
units angstrom
no_reorient  #important for SAPT in psi4, default
symmetry c1  #important for SAPT in psi4, default
}

set PROPERTIES_ORIGIN ["COM"]
properties('MP2/aug-cc-pvtz', properties = ['dipole'])
--------------------------------------------------------------------------

    Molecular point group: c1
  Charge       = 1
  Multiplicity = 1
  Basis Set: AUG-CC-PVTZ
    Blend: AUG-CC-PVTZ
  Basis Set: (AUG-CC-PVTZ AUX)
    Blend: AUG-CC-PVTZ-JKFIT

    Orbital Energies [Eh]
    ---------------------

    Doubly Occupied:

       1A    -15.866692     2A    -15.703291     3A    -11.456903
       4A    -11.456823     5A    -11.417545     6A    -11.417477
       7A    -11.375540     8A    -11.344233     9A    -11.340281
      10A    -11.332012    11A    -11.329955    12A    -11.328528
      13A    -11.323573    14A     -1.497606    15A     -1.390410
      16A     -1.249858    17A     -1.221951    18A     -1.155636
      19A     -1.142593    20A     -1.088105    21A     -1.053610
      22A     -1.031964    23A     -0.996144    24A     -0.935511
      25A     -0.924262    26A     -0.903282    27A     -0.867432
      28A     -0.823808    29A     -0.810342    30A     -0.793607
      31A     -0.788599    32A     -0.754709    33A     -0.744727
      34A     -0.734371    35A     -0.714640    36A     -0.704576
      37A     -0.687786    38A     -0.675217    39A     -0.669194
      40A     -0.660052    41A     -0.655757    42A     -0.640427
      43A     -0.599687    44A     -0.591597    45A     -0.588280
      46A     -0.522505    47A     -0.433315    48A     -0.422992

  @DF-RHF Final Energy:  -535.30820027922471

   => Energetics <=

    Nuclear Repulsion Energy =            820.2533399650741330
    One-Electron Energy =               -2338.7882638865503395
    Two-Electron Energy =                 983.2267236422513861
    Total Energy =                       -535.3082002792247067
  Basis Set: (AUG-CC-PVTZ AUX)
    Blend: AUG-CC-PVTZ-RI
    Molecular point group: c1

    Geometry (in Angstrom), charge = 1, multiplicity = 1:

       Center              X                  Y                   Z               Mass
    ------------   -----------------  -----------------  -----------------  -----------------
         N           -3.470394183380    -0.168568078068     0.164273350336    14.003074004430
         N           -0.672085183380     0.005294921932    -0.124761649664    14.003074004430
         C           -2.788411183380    -0.591808078068    -1.117687649664    12.000000000000
         C           -2.677152183380     0.866458921932     0.929951350336    12.000000000000
         C           -1.390447183380    -1.076940078068    -0.778224649664    12.000000000000
         C           -1.277397183380     0.327254921932     1.161480350336    12.000000000000
         C            0.758457816620    -0.171382078068    -0.035722649664    12.000000000000
         C            1.567320816620     0.962805921932    -0.231977649664    12.000000000000
         C            1.321233216620    -1.430835078068     0.205032150336    12.000000000000
         C            2.953827816620     0.798055921932    -0.130290649664    12.000000000000
         C            0.969030816620     2.308330921932    -0.545218649664    12.000000000000
         C            2.705205816620    -1.560737078068     0.333244350336    12.000000000000
         C            3.523048816620    -0.445941078068     0.147272350336    12.000000000000
         H           -2.751659183380     0.290242921932    -1.759309649664     1.007825032230
         H           -3.407189183380    -1.366853078068    -1.577327649664     1.007825032230
         H           -3.214829183380     1.071387921932     1.859276350336     1.007825032230
         H           -2.649605183380     1.762007921932     0.306518350336     1.007825032230
         H           -1.463338183380    -1.996832078068    -0.166563649664     1.007825032230
         H           -0.876777183380    -1.341364078068    -1.706831649664     1.007825032230
         H           -0.687177183380     1.104372921932     1.654442350336     1.007825032230
         H           -1.308541183380    -0.542758078068     1.846107350336     1.007825032230
         H           -4.415543183380     0.185649921932    -0.036210649664     1.007825032230
         H           -3.594470183380    -0.998729078068     0.761565350336     1.007825032230
         H            0.685431816620    -2.290568078068     0.412657350336     1.007825032230
         H            3.599271816620     1.660209921932    -0.285427649664     1.007825032230
         H            0.172134816620     2.218730921932    -1.287654649664     1.007825032230
         H            0.541275816620     2.783726921932     0.345659350336     1.007825032230
         H            1.735254816620     2.982848921932    -0.934654649664     1.007825032230
         H            3.140593816620    -2.532554078068     0.550010350336     1.007825032230
         H            4.603406816620    -0.545476078068     0.208660350336     1.007825032230

  Basis Set: AUG-CC-PVTZ
    Blend: AUG-CC-PVTZ
  Basis Set: (AUG-CC-PVTZ AUX)
    Blend: AUG-CC-PVTZ-JKFIT
	 Reference Energy          =    -535.3082002792247067 [Eh]
	 Singles Energy            =      -0.0000000000000000 [Eh]
	 Same-Spin Energy          =      -0.5853642081058137 [Eh]
	 Opposite-Spin Energy      =      -1.9172987460958404 [Eh]
	 Correlation Energy        =      -2.5026629542016541 [Eh]
	 Total Energy              =    -537.8108632334264030 [Eh]

	 ================> DF-SCS-MP2 Energies <==================
	-----------------------------------------------------------
	 SCS Same-Spin Scale       =       0.3333333333333333 [-]
	 SCS Opposite-Spin Scale   =       1.2000000000000000 [-]
	 SCS Same-Spin Energy      =      -0.1951214027019379 [Eh]
	 SCS Opposite-Spin Energy  =      -2.3007584953150082 [Eh]
	 SCS Correlation Energy    =      -2.4958798980169461 [Eh]
	 SCS Total Energy          =    -537.8040801772416444 [Eh]
	-----------------------------------------------------------

  Dipole Moment: [D]
     X:   -12.1164      Y:    -0.6711      Z:     0.7756     Total:    12.1597

*** Psi4 exiting successfully. Buy a developer a beer!
