                               Psi4 1.3.2 release

  ==> Input File <==

--------------------------------------------------------------------------
#psi4
#
memory 32 gb

molecule  {
1 1
  N       -3.4197460    -0.1817000     0.1602720
  N       -0.6214370    -0.0078370    -0.1287630
  C       -2.7377630    -0.6049400    -1.1216890
  C       -2.6265040     0.8533270     0.9259500
  C       -1.3397990    -1.0900720    -0.7822260
  C       -1.2267490     0.3141230     1.1574790
  C        0.8091060    -0.1845140    -0.0397240
  C        1.6179690     0.9496740    -0.2359790
  C        1.3759042    -1.4643290     0.1032085
  C        3.0044760     0.7849240    -0.1342920
  C        1.0196790     2.2951990    -0.5492200
  C        2.7558540    -1.5738690     0.3292430
  C        3.5736970    -0.4590730     0.1432710
  H       -2.7010110     0.2771110    -1.7633110
  H       -3.3565410    -1.3799850    -1.5813290
  H       -3.1641810     1.0582560     1.8552750
  H       -2.5989570     1.7488760     0.3025170
  H       -1.4126900    -2.0099640    -0.1705650
  H       -0.8261290    -1.3544960    -1.7108330
  H       -0.6365290     1.0912410     1.6504410
  H       -1.2578930    -0.5558900     1.8421060
  H       -4.3648950     0.1725180    -0.0402120
  H       -3.5438220    -1.0118610     0.7575640
  H        0.7360800    -2.3037000     0.4086560
  H        3.6499200     1.6470780    -0.2894290
  H        0.2227830     2.2055990    -1.2916560
  H        0.5919240     2.7705950     0.3416580
  H        1.7859030     2.9697170    -0.9386560
  H        3.1912420    -2.5456860     0.5460090
  H        4.6540550    -0.5586080     0.2046590
units angstrom
no_reorient  #important for SAPT in psi4, default
symmetry c1  #important for SAPT in psi4, default
}

set PROPERTIES_ORIGIN ["COM"]
properties('MP2/aug-cc-pvtz', properties = ['dipole'])
--------------------------------------------------------------------------

    Molecular point group: c1
  Charge       = 1
  Multiplicity = 1
  Basis Set: AUG-CC-PVTZ
    Blend: AUG-CC-PVTZ
  Basis Set: (AUG-CC-PVTZ AUX)
    Blend: AUG-CC-PVTZ-JKFIT

    Orbital Energies [Eh]
    ---------------------

    Doubly Occupied:

       1A    -15.866756     2A    -15.703817     3A    -11.457149
       4A    -11.456775     5A    -11.417954     6A    -11.417416
       7A    -11.377515     8A    -11.343818     9A    -11.341605
      10A    -11.333766    11A    -11.330921    12A    -11.328272
      13A    -11.323605    14A     -1.497696    15A     -1.390713
      16A     -1.249361    17A     -1.222085    18A     -1.155631
      19A     -1.142072    20A     -1.087728    21A     -1.053777
      22A     -1.031720    23A     -0.996175    24A     -0.935452
      25A     -0.924114    26A     -0.902599    27A     -0.867038
      28A     -0.823899    29A     -0.810441    30A     -0.793423
      31A     -0.788752    32A     -0.753180    33A     -0.744076
      34A     -0.733795    35A     -0.713974    36A     -0.704442
      37A     -0.687787    38A     -0.675407    39A     -0.667697
      40A     -0.660148    41A     -0.655867    42A     -0.640116
      43A     -0.599104    44A     -0.592362    45A     -0.586575
      46A     -0.524002    47A     -0.433040    48A     -0.421465

  @DF-RHF Final Energy:  -535.30221850021451

   => Energetics <=

    Nuclear Repulsion Energy =            819.9988565161270344
    One-Electron Energy =               -2338.2719876358460169
    Two-Electron Energy =                 982.9709126195044746
    Total Energy =                       -535.3022185002145079
  Basis Set: (AUG-CC-PVTZ AUX)
    Blend: AUG-CC-PVTZ-RI
    Molecular point group: c1

    Geometry (in Angstrom), charge = 1, multiplicity = 1:

       Center              X                  Y                   Z               Mass
    ------------   -----------------  -----------------  -----------------  -----------------
         N           -3.470666701305    -0.167188688094     0.170900160073    14.003074004430
         N           -0.672357701305     0.006674311906    -0.118134839927    14.003074004430
         C           -2.788683701305    -0.590428688094    -1.111060839927    12.000000000000
         C           -2.677424701305     0.867838311906     0.936578160073    12.000000000000
         C           -1.390719701305    -1.075560688094    -0.771597839927    12.000000000000
         C           -1.277669701305     0.328634311906     1.168107160073    12.000000000000
         C            0.758185298695    -0.170002688094    -0.029095839927    12.000000000000
         C            1.567048298695     0.964185311906    -0.225350839927    12.000000000000
         C            1.324983498695    -1.449817688094     0.113836660073    12.000000000000
         C            2.953555298695     0.799435311906    -0.123663839927    12.000000000000
         C            0.968758298695     2.309710311906    -0.538591839927    12.000000000000
         C            2.704933298695    -1.559357688094     0.339871160073    12.000000000000
         C            3.522776298695    -0.444561688094     0.153899160073    12.000000000000
         H           -2.751931701305     0.291622311906    -1.752682839927     1.007825032230
         H           -3.407461701305    -1.365473688094    -1.570700839927     1.007825032230
         H           -3.215101701305     1.072767311906     1.865903160073     1.007825032230
         H           -2.649877701305     1.763387311906     0.313145160073     1.007825032230
         H           -1.463610701305    -1.995452688094    -0.159936839927     1.007825032230
         H           -0.877049701305    -1.339984688094    -1.700204839927     1.007825032230
         H           -0.687449701305     1.105752311906     1.661069160073     1.007825032230
         H           -1.308813701305    -0.541378688094     1.852734160073     1.007825032230
         H           -4.415815701305     0.187029311906    -0.029583839927     1.007825032230
         H           -3.594742701305    -0.997349688094     0.768192160073     1.007825032230
         H            0.685159298695    -2.289188688094     0.419284160073     1.007825032230
         H            3.598999298695     1.661589311906    -0.278800839927     1.007825032230
         H            0.171862298695     2.220110311906    -1.281027839927     1.007825032230
         H            0.541003298695     2.785106311906     0.352286160073     1.007825032230
         H            1.734982298695     2.984228311906    -0.928027839927     1.007825032230
         H            3.140321298695    -2.531174688094     0.556637160073     1.007825032230
         H            4.603134298695    -0.544096688094     0.215287160073     1.007825032230

  Basis Set: AUG-CC-PVTZ
    Blend: AUG-CC-PVTZ
  Basis Set: (AUG-CC-PVTZ AUX)
    Blend: AUG-CC-PVTZ-JKFIT
	 Reference Energy          =    -535.3022185002145079 [Eh]
	 Singles Energy            =      -0.0000000000000000 [Eh]
	 Same-Spin Energy          =      -0.5857626794856052 [Eh]
	 Opposite-Spin Energy      =      -1.9183254480175813 [Eh]
	 Correlation Energy        =      -2.5040881275031865 [Eh]
	 Total Energy              =    -537.8063066277177313 [Eh]

	 ================> DF-SCS-MP2 Energies <==================
	-----------------------------------------------------------
	 SCS Same-Spin Scale       =       0.3333333333333333 [-]
	 SCS Opposite-Spin Scale   =       1.2000000000000000 [-]
	 SCS Same-Spin Energy      =      -0.1952542264952017 [Eh]
	 SCS Opposite-Spin Energy  =      -2.3019905376210974 [Eh]
	 SCS Correlation Energy    =      -2.4972447641162994 [Eh]
	 SCS Total Energy          =    -537.7994632643308250 [Eh]
	-----------------------------------------------------------

  Dipole Moment: [D]
     X:   -12.1173      Y:    -0.6160      Z:     0.8593     Total:    12.1634

*** Psi4 exiting successfully. Buy a developer a beer!
