                               Psi4 1.4a3.dev225

  ==> Input File <==

--------------------------------------------------------------------------
#psi4
#
memory 32 gb

molecule  {
0 1
  O        0.3358460     1.2965490    -0.1579670
  N       -0.6355700    -0.7573960    -0.3171250
  C       -1.9537600    -0.2153280    -0.6135720
  C        1.6888930    -0.6226540     0.4213110
  C        0.4320971     0.0818971    -0.0374033
  C       -2.7106350     0.2148780     0.6378230
  C        2.9315370     0.1212560    -0.0546130
  H       -1.8024690     0.6408050    -1.2743770
  H       -2.5093410    -0.9768490    -1.1692540
  H        1.6661620    -0.6499400     1.5181760
  H        1.7013640    -1.6638910     0.0787670
  H       -0.5536820    -1.7388620    -0.0859220
  H       -2.8566760    -0.6308240     1.3159630
  H       -2.1451200     0.9906390     1.1579850
  H       -3.6935760     0.6181720     0.3752940
  H        2.8830370     1.1639450     0.2613510
  H        3.8370830    -0.3350390     0.3539010
  H        2.9990550     0.1035600    -1.1453320
units angstrom
no_reorient  #important for SAPT in psi4, default
symmetry c1  #important for SAPT in psi4, default
}

set PROPERTIES_ORIGIN ["COM"]
properties('MP2/aug-cc-pvtz', properties = ['dipole'])
--------------------------------------------------------------------------

    Molecular point group: c1
  Charge       = 0
  Multiplicity = 1
  Basis Set: AUG-CC-PVTZ
    Blend: AUG-CC-PVTZ
  Basis Set: (AUG-CC-PVTZ AUX)
    Blend: AUG-CC-PVTZ-JKFIT

    Orbital Energies [Eh]
    ---------------------

    Doubly Occupied:

       1A    -20.515813     2A    -15.579322     3A    -11.346286
       4A    -11.259939     5A    -11.240983     6A    -11.217039
       7A    -11.213775     8A     -1.374635     9A     -1.220773
      10A     -1.058695    11A     -1.006737    12A     -0.895319
      13A     -0.836969    14A     -0.774076    15A     -0.694188
      16A     -0.655468    17A     -0.621373    18A     -0.607783
      19A     -0.591057    20A     -0.581929    21A     -0.531214
      22A     -0.528289    23A     -0.516735    24A     -0.505575
      25A     -0.495118    26A     -0.484094    27A     -0.419490
      28A     -0.386804

  @DF-RHF Final Energy:  -325.19939095031668

   => Energetics <=

    Nuclear Repulsion Energy =            313.9707238989971074
    One-Electron Energy =               -1064.0212693007615599
    Two-Electron Energy =                 424.8511544514477691
    Total Energy =                       -325.1993909503166833
  Basis Set: (AUG-CC-PVTZ AUX)
    Blend: AUG-CC-PVTZ-RI
    Molecular point group: c1

    Geometry (in Angstrom), charge = 0, multiplicity = 1:

       Center              X                  Y                   Z               Mass
    ------------   -----------------  -----------------  -----------------  -----------------
         O            0.329399818634     1.270875013794    -0.144834927000    15.994914619570
         N           -0.642016181366    -0.783069986206    -0.303992927000    14.003074004430
         C           -1.960206181366    -0.241001986206    -0.600439927000    12.000000000000
         C            1.682446818634    -0.648327986206     0.434443073000    12.000000000000
         C            0.425650918634     0.056223113794    -0.024271227000    12.000000000000
         C           -2.717081181366     0.189204013794     0.650955073000    12.000000000000
         C            2.925090818634     0.095582013794    -0.041480927000    12.000000000000
         H           -1.808915181366     0.615131013794    -1.261244927000     1.007825032230
         H           -2.515787181366    -1.002522986206    -1.156121927000     1.007825032230
         H            1.659715818634    -0.675613986206     1.531308073000     1.007825032230
         H            1.694917818634    -1.689564986206     0.091899073000     1.007825032230
         H           -0.560128181366    -1.764535986206    -0.072789927000     1.007825032230
         H           -2.863122181366    -0.656497986206     1.329095073000     1.007825032230
         H           -2.151566181366     0.964965013794     1.171117073000     1.007825032230
         H           -3.700022181366     0.592498013794     0.388426073000     1.007825032230
         H            2.876590818634     1.138271013794     0.274483073000     1.007825032230
         H            3.830636818634    -0.360712986206     0.367033073000     1.007825032230
         H            2.992608818634     0.077886013794    -1.132199927000     1.007825032230

  Basis Set: AUG-CC-PVTZ
    Blend: AUG-CC-PVTZ
  Basis Set: (AUG-CC-PVTZ AUX)
    Blend: AUG-CC-PVTZ-JKFIT
	 Reference Energy          =    -325.1993909503166833 [Eh]
	 Singles Energy            =      -0.0000000000000000 [Eh]
	 Same-Spin Energy          =      -0.3318810970409279 [Eh]
	 Opposite-Spin Energy      =      -1.1191632066012684 [Eh]
	 Correlation Energy        =      -1.4510443036421963 [Eh]
	 Total Energy              =    -326.6504352539589036 [Eh]

	 ================> DF-SCS-MP2 Energies <==================
	-----------------------------------------------------------
	 SCS Same-Spin Scale       =       0.3333333333333333 [-]
	 SCS Opposite-Spin Scale   =       1.2000000000000000 [-]
	 SCS Same-Spin Energy      =      -0.1106270323469760 [Eh]
	 SCS Opposite-Spin Energy  =      -1.3429958479215220 [Eh]
	 SCS Correlation Energy    =      -1.4536228802684981 [Eh]
	 SCS Total Energy          =    -326.6530138305851665 [Eh]
	-----------------------------------------------------------

  Dipole Moment: [D]
     X:    -0.6758      Y:    -3.2848      Z:     0.4188     Total:     3.3797

*** Psi4 exiting successfully. Buy a developer a beer!
