                               Psi4 1.4a3.dev225

  ==> Input File <==

--------------------------------------------------------------------------
#psi4
#
memory 32 gb

molecule  {
0 1
  O        0.3358460     1.2965490    -0.1579670
  N       -0.6355700    -0.7573960    -0.3171250
  C       -1.9537600    -0.2153280    -0.6135720
  C        1.6888930    -0.6226540     0.4213110
  C        0.4166970     0.0697910    -0.0414380
  C       -2.7106350     0.2148780     0.6378230
  C        2.9315370     0.1212560    -0.0546130
  H       -1.8024690     0.6408050    -1.2743770
  H       -2.5093410    -0.9768490    -1.1692540
  H        1.6661620    -0.6499400     1.5181760
  H        1.7013640    -1.6638910     0.0787670
  H       -0.5496348    -1.7873702    -0.0744950
  H       -2.8566760    -0.6308240     1.3159630
  H       -2.1451200     0.9906390     1.1579850
  H       -3.6935760     0.6181720     0.3752940
  H        2.8830370     1.1639450     0.2613510
  H        3.8370830    -0.3350390     0.3539010
  H        2.9990550     0.1035600    -1.1453320
units angstrom
no_reorient  #important for SAPT in psi4, default
symmetry c1  #important for SAPT in psi4, default
}

set PROPERTIES_ORIGIN ["COM"]
properties('MP2/aug-cc-pvtz', properties = ['dipole'])
--------------------------------------------------------------------------

    Molecular point group: c1
  Charge       = 0
  Multiplicity = 1
  Basis Set: AUG-CC-PVTZ
    Blend: AUG-CC-PVTZ
  Basis Set: (AUG-CC-PVTZ AUX)
    Blend: AUG-CC-PVTZ-JKFIT

    Orbital Energies [Eh]
    ---------------------

    Doubly Occupied:

       1A    -20.511995     2A    -15.587627     3A    -11.345139
       4A    -11.261845     5A    -11.240282     6A    -11.215866
       7A    -11.214931     8A     -1.367309     9A     -1.221280
      10A     -1.056528    11A     -1.008001    12A     -0.894923
      13A     -0.837648    14A     -0.768116    15A     -0.691229
      16A     -0.655312    17A     -0.620305    18A     -0.605490
      19A     -0.591188    20A     -0.579709    21A     -0.531315
      22A     -0.527324    23A     -0.514299    24A     -0.504628
      25A     -0.495478    26A     -0.482587    27A     -0.416739
      28A     -0.387814

  @DF-RHF Final Energy:  -325.19568161247497

   => Energetics <=

    Nuclear Repulsion Energy =            313.7187831998772367
    One-Electron Energy =               -1063.5591145059042901
    Two-Electron Energy =                 424.6446496935521395
    Total Energy =                       -325.1956816124749707
  Basis Set: (AUG-CC-PVTZ AUX)
    Blend: AUG-CC-PVTZ-RI
    Molecular point group: c1

    Geometry (in Angstrom), charge = 0, multiplicity = 1:

       Center              X                  Y                   Z               Mass
    ------------   -----------------  -----------------  -----------------  -----------------
         O            0.331187660589     1.272795801014    -0.144469884461    15.994914619570
         N           -0.640228339411    -0.781149198986    -0.303627884461    14.003074004430
         C           -1.958418339411    -0.239081198986    -0.600074884461    12.000000000000
         C            1.684234660589    -0.646407198986     0.434808115539    12.000000000000
         C            0.412038660589     0.046037801014    -0.027940884461    12.000000000000
         C           -2.715293339411     0.191124801014     0.651320115539    12.000000000000
         C            2.926878660589     0.097502801014    -0.041115884461    12.000000000000
         H           -1.807127339411     0.617051801014    -1.260879884461     1.007825032230
         H           -2.513999339411    -1.000602198986    -1.155756884461     1.007825032230
         H            1.661503660589    -0.673693198986     1.531673115539     1.007825032230
         H            1.696705660589    -1.687644198986     0.092264115539     1.007825032230
         H           -0.554293139411    -1.811123398986    -0.060997884461     1.007825032230
         H           -2.861334339411    -0.654577198986     1.329460115539     1.007825032230
         H           -2.149778339411     0.966885801014     1.171482115539     1.007825032230
         H           -3.698234339411     0.594418801014     0.388791115539     1.007825032230
         H            2.878378660589     1.140191801014     0.274848115539     1.007825032230
         H            3.832424660589    -0.358792198986     0.367398115539     1.007825032230
         H            2.994396660589     0.079806801014    -1.131834884461     1.007825032230

  Basis Set: AUG-CC-PVTZ
    Blend: AUG-CC-PVTZ
  Basis Set: (AUG-CC-PVTZ AUX)
    Blend: AUG-CC-PVTZ-JKFIT
	 Reference Energy          =    -325.1956816124749707 [Eh]
	 Singles Energy            =      -0.0000000000000000 [Eh]
	 Same-Spin Energy          =      -0.3323572448760490 [Eh]
	 Opposite-Spin Energy      =      -1.1202941214122470 [Eh]
	 Correlation Energy        =      -1.4526513662882961 [Eh]
	 Total Energy              =    -326.6483329787632783 [Eh]

	 ================> DF-SCS-MP2 Energies <==================
	-----------------------------------------------------------
	 SCS Same-Spin Scale       =       0.3333333333333333 [-]
	 SCS Opposite-Spin Scale   =       1.2000000000000000 [-]
	 SCS Same-Spin Energy      =      -0.1107857482920163 [Eh]
	 SCS Opposite-Spin Energy  =      -1.3443529456946963 [Eh]
	 SCS Correlation Energy    =      -1.4551386939867126 [Eh]
	 SCS Total Energy          =    -326.6508203064616964 [Eh]
	-----------------------------------------------------------

  Dipole Moment: [D]
     X:    -0.8287      Y:    -3.4186      Z:     0.3973     Total:     3.5400

*** Psi4 exiting successfully. Buy a developer a beer!
