                               Psi4 1.3.2 release

  ==> Input File <==

--------------------------------------------------------------------------
#psi4
#
memory 32 gb

molecule  {
0 1
  O        0.3109550    -0.6942360     1.0654250
  N       -0.6919670     0.7804610    -0.3498900
  C       -2.0283157     0.4343676     0.0996235
  C        1.7355170     0.5659250    -0.4538020
  C        0.3997056     0.1516022     0.1854465
  C       -2.5721020    -0.8329900    -0.5555930
  C        2.8806560    -0.3237650     0.0245060
  H       -1.9910630     0.3248240     1.1818950
  H       -2.6829100     1.2983230    -0.1207890
  H        1.6432190     0.5393270    -1.5482860
  H        1.9198310     1.6196100    -0.1921910
  H       -0.5759590     1.3845000    -1.1569370
  H       -2.6081430    -0.7287990    -1.6478990
  H       -1.9207320    -1.6762470    -0.2982990
  H       -3.5840310    -1.0569410    -0.1969260
  H        2.7105400    -1.3693420    -0.2530710
  H        3.8280690     0.0048160    -0.4188000
  H        2.9664850    -0.2871200     1.1156770
units angstrom
no_reorient  #important for SAPT in psi4, default
symmetry c1  #important for SAPT in psi4, default
}

set PROPERTIES_ORIGIN ["COM"]
properties('MP2/aug-cc-pvtz', properties = ['dipole'])
--------------------------------------------------------------------------

    Molecular point group: c1
  Charge       = 0
  Multiplicity = 1
  Basis Set: AUG-CC-PVTZ
    Blend: AUG-CC-PVTZ
  Basis Set: (AUG-CC-PVTZ AUX)
    Blend: AUG-CC-PVTZ-JKFIT

    Orbital Energies [Eh]
    ---------------------

    Doubly Occupied:

       1A    -20.515784     2A    -15.580254     3A    -11.345188
       4A    -11.262048     5A    -11.241817     6A    -11.215557
       7A    -11.215010     8A     -1.375159     9A     -1.226052
      10A     -1.052459    11A     -1.006139    12A     -0.892573
      13A     -0.834922    14A     -0.777683    15A     -0.691632
      16A     -0.649191    17A     -0.633182    18A     -0.605149
      19A     -0.588808    20A     -0.574997    21A     -0.534918
      22A     -0.514960    23A     -0.513716    24A     -0.511269
      25A     -0.494610    26A     -0.484201    27A     -0.417790
      28A     -0.387413

  @DF-RHF Final Energy:  -325.19889426652207

   => Energetics <=

    Nuclear Repulsion Energy =            313.8338450574719332
    One-Electron Energy =               -1063.7805157931763915
    Two-Electron Energy =                 424.7477764691823268
    Total Energy =                       -325.1988942665220748
  Basis Set: (AUG-CC-PVTZ AUX)
    Blend: AUG-CC-PVTZ-RI
    Molecular point group: c1

    Geometry (in Angstrom), charge = 0, multiplicity = 1:

       Center              X                  Y                   Z               Mass
    ------------   -----------------  -----------------  -----------------  -----------------
         O            0.311226413941    -0.692451846743     1.063637122162    15.994914619570
         N           -0.691695586059     0.782245153257    -0.351677877838    14.003074004430
         C           -2.028044286059     0.436151753257     0.097835622162    12.000000000000
         C            1.735788413941     0.567709153257    -0.455589877838    12.000000000000
         C            0.399977013941     0.153386353257     0.183658622162    12.000000000000
         C           -2.571830586059    -0.831205846743    -0.557380877838    12.000000000000
         C            2.880927413941    -0.321980846743     0.022718122162    12.000000000000
         H           -1.990791586059     0.326608153257     1.180107122162     1.007825032230
         H           -2.682638586059     1.300107153257    -0.122576877838     1.007825032230
         H            1.643490413941     0.541111153257    -1.550073877838     1.007825032230
         H            1.920102413941     1.621394153257    -0.193978877838     1.007825032230
         H           -0.575687586059     1.386284153257    -1.158724877838     1.007825032230
         H           -2.607871586059    -0.727014846743    -1.649686877838     1.007825032230
         H           -1.920460586059    -1.674462846743    -0.300086877838     1.007825032230
         H           -3.583759586059    -1.055156846743    -0.198713877838     1.007825032230
         H            2.710811413941    -1.367557846743    -0.254858877838     1.007825032230
         H            3.828340413941     0.006600153257    -0.420587877838     1.007825032230
         H            2.966756413941    -0.285335846743     1.113889122162     1.007825032230

  Basis Set: AUG-CC-PVTZ
    Blend: AUG-CC-PVTZ
  Basis Set: (AUG-CC-PVTZ AUX)
    Blend: AUG-CC-PVTZ-JKFIT
	 Reference Energy          =    -325.1988942665220748 [Eh]
	 Singles Energy            =      -0.0000000000000000 [Eh]
	 Same-Spin Energy          =      -0.3315959839861504 [Eh]
	 Opposite-Spin Energy      =      -1.1189687981584471 [Eh]
	 Correlation Energy        =      -1.4505647821445975 [Eh]
	 Total Energy              =    -326.6494590486666993 [Eh]

	 ================> DF-SCS-MP2 Energies <==================
	-----------------------------------------------------------
	 SCS Same-Spin Scale       =       0.3333333333333333 [-]
	 SCS Opposite-Spin Scale   =       1.2000000000000000 [-]
	 SCS Same-Spin Energy      =      -0.1105319946620501 [Eh]
	 SCS Opposite-Spin Energy  =      -1.3427625577901365 [Eh]
	 SCS Correlation Energy    =      -1.4532945524521867 [Eh]
	 SCS Total Energy          =    -326.6521888189742526 [Eh]
	-----------------------------------------------------------

  Dipole Moment: [D]
     X:    -0.7237      Y:     2.2052      Z:    -2.5378     Total:     3.4390

*** Psi4 exiting successfully. Buy a developer a beer!
