                               Psi4 1.3.2 release

  ==> Input File <==

--------------------------------------------------------------------------
#psi4
#
memory 32 gb

molecule  {
0 1
  O        0.3109550    -0.6942360     1.0654250
  N       -0.6919670     0.7804610    -0.3498900
  C       -2.0379614     0.4498808     0.0821823
  C        1.7355170     0.5659250    -0.4538020
  C        0.4068390     0.1581200     0.1784230
  C       -2.5721020    -0.8329900    -0.5555930
  C        2.8806560    -0.3237650     0.0245060
  H       -1.9910630     0.3248240     1.1818950
  H       -2.6829100     1.2983230    -0.1207890
  H        1.6432190     0.5393270    -1.5482860
  H        1.9198310     1.6196100    -0.1921910
  H       -0.5847602     1.3850516    -1.1577407
  H       -2.6081430    -0.7287990    -1.6478990
  H       -1.9207320    -1.6762470    -0.2982990
  H       -3.5840310    -1.0569410    -0.1969260
  H        2.7105400    -1.3693420    -0.2530710
  H        3.8280690     0.0048160    -0.4188000
  H        2.9664850    -0.2871200     1.1156770
units angstrom
no_reorient  #important for SAPT in psi4, default
symmetry c1  #important for SAPT in psi4, default
}

set PROPERTIES_ORIGIN ["COM"]
properties('MP2/aug-cc-pvtz', properties = ['dipole'])
--------------------------------------------------------------------------

    Molecular point group: c1
  Charge       = 0
  Multiplicity = 1
  Basis Set: AUG-CC-PVTZ
    Blend: AUG-CC-PVTZ
  Basis Set: (AUG-CC-PVTZ AUX)
    Blend: AUG-CC-PVTZ-JKFIT

    Orbital Energies [Eh]
    ---------------------

    Doubly Occupied:

       1A    -20.514400     2A    -15.580978     3A    -11.346445
       4A    -11.261979     5A    -11.242613     6A    -11.216107
       7A    -11.215008     8A     -1.368804     9A     -1.225058
      10A     -1.054452    11A     -1.006174    12A     -0.894445
      13A     -0.836185    14A     -0.776309    15A     -0.692810
      16A     -0.647941    17A     -0.633824    18A     -0.605512
      19A     -0.587187    20A     -0.573085    21A     -0.534738
      22A     -0.515240    23A     -0.513997    24A     -0.511068
      25A     -0.495238    26A     -0.481340    27A     -0.418715
      28A     -0.386354

  @DF-RHF Final Energy:  -325.19808695424052

   => Energetics <=

    Nuclear Repulsion Energy =            313.6080857779025450
    One-Electron Energy =               -1063.3403329938457773
    Two-Electron Energy =                 424.5341602617027661
    Total Energy =                       -325.1980869542405230
  Basis Set: (AUG-CC-PVTZ AUX)
    Blend: AUG-CC-PVTZ-RI
    Molecular point group: c1

    Geometry (in Angstrom), charge = 0, multiplicity = 1:

       Center              X                  Y                   Z               Mass
    ------------   -----------------  -----------------  -----------------  -----------------
         O            0.311612406234    -0.695072714028     1.066549414935    15.994914619570
         N           -0.691309593766     0.779624285972    -0.348765585065    14.003074004430
         C           -2.037303993766     0.449044085972     0.083306714935    12.000000000000
         C            1.736174406234     0.565088285972    -0.452677585065    12.000000000000
         C            0.407496406234     0.157283285972     0.179547414935    12.000000000000
         C           -2.571444593766    -0.833826714028    -0.554468585065    12.000000000000
         C            2.881313406234    -0.324601714028     0.025630414935    12.000000000000
         H           -1.990405593766     0.323987285972     1.183019414935     1.007825032230
         H           -2.682252593766     1.297486285972    -0.119664585065     1.007825032230
         H            1.643876406234     0.538490285972    -1.547161585065     1.007825032230
         H            1.920488406234     1.618773285972    -0.191066585065     1.007825032230
         H           -0.584102793766     1.384214885972    -1.156616285065     1.007825032230
         H           -2.607485593766    -0.729635714028    -1.646774585065     1.007825032230
         H           -1.920074593766    -1.677083714028    -0.297174585065     1.007825032230
         H           -3.583373593766    -1.057777714028    -0.195801585065     1.007825032230
         H            2.711197406234    -1.370178714028    -0.251946585065     1.007825032230
         H            3.828726406234     0.003979285972    -0.417675585065     1.007825032230
         H            2.967142406234    -0.287956714028     1.116801414935     1.007825032230

  Basis Set: AUG-CC-PVTZ
    Blend: AUG-CC-PVTZ
  Basis Set: (AUG-CC-PVTZ AUX)
    Blend: AUG-CC-PVTZ-JKFIT
	 Reference Energy          =    -325.1980869542405230 [Eh]
	 Singles Energy            =      -0.0000000000000000 [Eh]
	 Same-Spin Energy          =      -0.3318494139611170 [Eh]
	 Opposite-Spin Energy      =      -1.1194784661217214 [Eh]
	 Correlation Energy        =      -1.4513278800828384 [Eh]
	 Total Energy              =    -326.6494148343233519 [Eh]

	 ================> DF-SCS-MP2 Energies <==================
	-----------------------------------------------------------
	 SCS Same-Spin Scale       =       0.3333333333333333 [-]
	 SCS Opposite-Spin Scale   =       1.2000000000000000 [-]
	 SCS Same-Spin Energy      =      -0.1106164713203723 [Eh]
	 SCS Opposite-Spin Energy  =      -1.3433741593460657 [Eh]
	 SCS Correlation Energy    =      -1.4539906306664381 [Eh]
	 SCS Total Energy          =    -326.6520775849069764 [Eh]
	-----------------------------------------------------------

  Dipole Moment: [D]
     X:    -0.7077      Y:     2.2507      Z:    -2.5869     Total:     3.5012

*** Psi4 exiting successfully. Buy a developer a beer!
