                               Psi4 1.3.2 release

  ==> Input File <==

--------------------------------------------------------------------------
#psi4
#
memory 32 gb

molecule  {
0 1
  O        0.3109550    -0.6942360     1.0654250
  N       -0.6919670     0.7804610    -0.3498900
  C       -2.0331630     0.4428770     0.0915860
  C        1.7355170     0.5659250    -0.4538020
  C        0.4068390     0.1581200     0.1784230
  C       -2.5743793    -0.8440187    -0.5314043
  C        2.8806560    -0.3237650     0.0245060
  H       -1.9979920     0.3070600     1.1800709
  H       -2.6829100     1.2983230    -0.1207890
  H        1.6432190     0.5393270    -1.5482860
  H        1.9198310     1.6196100    -0.1921910
  H       -0.5759590     1.3845000    -1.1569370
  H       -2.6081430    -0.7287990    -1.6478990
  H       -1.9207320    -1.6762470    -0.2982990
  H       -3.5840310    -1.0569410    -0.1969260
  H        2.7105400    -1.3693420    -0.2530710
  H        3.8280690     0.0048160    -0.4188000
  H        2.9664850    -0.2871200     1.1156770
units angstrom
no_reorient  #important for SAPT in psi4, default
symmetry c1  #important for SAPT in psi4, default
}

set PROPERTIES_ORIGIN ["COM"]
properties('MP2/aug-cc-pvtz', properties = ['dipole'])
--------------------------------------------------------------------------

    Molecular point group: c1
  Charge       = 0
  Multiplicity = 1
  Basis Set: AUG-CC-PVTZ
    Blend: AUG-CC-PVTZ
  Basis Set: (AUG-CC-PVTZ AUX)
    Blend: AUG-CC-PVTZ-JKFIT

    Orbital Energies [Eh]
    ---------------------

    Doubly Occupied:

       1A    -20.514552     2A    -15.581490     3A    -11.346311
       4A    -11.262184     5A    -11.242748     6A    -11.216230
       7A    -11.214933     8A     -1.369070     9A     -1.225177
      10A     -1.054617    11A     -1.006623    12A     -0.894338
      13A     -0.835798    14A     -0.776472    15A     -0.692634
      16A     -0.648797    17A     -0.634050    18A     -0.605514
      19A     -0.586755    20A     -0.573371    21A     -0.537409
      22A     -0.515413    23A     -0.514099    24A     -0.511946
      25A     -0.493753    26A     -0.479879    27A     -0.418916
      28A     -0.386642

  @DF-RHF Final Energy:  -325.19764219526041

   => Energetics <=

    Nuclear Repulsion Energy =            313.6654793631240068
    One-Electron Energy =               -1063.4467972521856609
    Two-Electron Energy =                 424.5836756938012968
    Total Energy =                       -325.1976421952604142
  Basis Set: (AUG-CC-PVTZ AUX)
    Blend: AUG-CC-PVTZ-RI
    Molecular point group: c1

    Geometry (in Angstrom), charge = 0, multiplicity = 1:

       Center              X                  Y                   Z               Mass
    ------------   -----------------  -----------------  -----------------  -----------------
         O            0.311294452555    -0.692749410918     1.062571731416    15.994914619570
         N           -0.691627547445     0.781947589082    -0.352743268584    14.003074004430
         C           -2.032823547445     0.444363589082     0.088732731416    12.000000000000
         C            1.735856452555     0.567411589082    -0.456655268584    12.000000000000
         C            0.407178452555     0.159606589082     0.175569731416    12.000000000000
         C           -2.574039847445    -0.842532110918    -0.534257568584    12.000000000000
         C            2.880995452555    -0.322278410918     0.021652731416    12.000000000000
         H           -1.997652547445     0.308546589082     1.177217631416     1.007825032230
         H           -2.682570547445     1.299809589082    -0.123642268584     1.007825032230
         H            1.643558452555     0.540813589082    -1.551139268584     1.007825032230
         H            1.920170452555     1.621096589082    -0.195044268584     1.007825032230
         H           -0.575619547445     1.385986589082    -1.159790268584     1.007825032230
         H           -2.607803547445    -0.727312410918    -1.650752268584     1.007825032230
         H           -1.920392547445    -1.674760410918    -0.301152268584     1.007825032230
         H           -3.583691547445    -1.055454410918    -0.199779268584     1.007825032230
         H            2.710879452555    -1.367855410918    -0.255924268584     1.007825032230
         H            3.828408452555     0.006302589082    -0.421653268584     1.007825032230
         H            2.966824452555    -0.285633410918     1.112823731416     1.007825032230

  Basis Set: AUG-CC-PVTZ
    Blend: AUG-CC-PVTZ
  Basis Set: (AUG-CC-PVTZ AUX)
    Blend: AUG-CC-PVTZ-JKFIT
	 Reference Energy          =    -325.1976421952604142 [Eh]
	 Singles Energy            =      -0.0000000000000000 [Eh]
	 Same-Spin Energy          =      -0.3318249943496212 [Eh]
	 Opposite-Spin Energy      =      -1.1194474319874672 [Eh]
	 Correlation Energy        =      -1.4512724263370884 [Eh]
	 Total Energy              =    -326.6489146215974984 [Eh]

	 ================> DF-SCS-MP2 Energies <==================
	-----------------------------------------------------------
	 SCS Same-Spin Scale       =       0.3333333333333333 [-]
	 SCS Opposite-Spin Scale   =       1.2000000000000000 [-]
	 SCS Same-Spin Energy      =      -0.1106083314498737 [Eh]
	 SCS Opposite-Spin Energy  =      -1.3433369183849606 [Eh]
	 SCS Correlation Energy    =      -1.4539452498348344 [Eh]
	 SCS Total Energy          =    -326.6515874450952310 [Eh]
	-----------------------------------------------------------

  Dipole Moment: [D]
     X:    -0.6931      Y:     2.2396      Z:    -2.5642     Total:     3.4744

*** Psi4 exiting successfully. Buy a developer a beer!
