                               Psi4 1.4a3.dev225

  ==> Input File <==

--------------------------------------------------------------------------
#psi4
#
memory 32 gb

molecule  {
0 1
  O        0.3358460     1.2965490    -0.1579670
  N       -0.6355700    -0.7573960    -0.3171250
  C       -1.9537600    -0.2153280    -0.6135720
  C        1.6888930    -0.6226540     0.4213110
  C        0.3748638     0.0925604    -0.0566544
  C       -2.7106350     0.2148780     0.6378230
  C        2.9315370     0.1212560    -0.0546130
  H       -1.8024690     0.6408050    -1.2743770
  H       -2.5093410    -0.9768490    -1.1692540
  H        1.6661620    -0.6499400     1.5181760
  H        1.7013640    -1.6638910     0.0787670
  H       -0.5536820    -1.7388620    -0.0859220
  H       -2.8566760    -0.6308240     1.3159630
  H       -2.1451200     0.9906390     1.1579850
  H       -3.6935760     0.6181720     0.3752940
  H        2.8830370     1.1639450     0.2613510
  H        3.8370830    -0.3350390     0.3539010
  H        2.9990550     0.1035600    -1.1453320
units angstrom
no_reorient  #important for SAPT in psi4, default
symmetry c1  #important for SAPT in psi4, default
}

set PROPERTIES_ORIGIN ["COM"]
properties('MP2/aug-cc-pvtz', properties = ['dipole'])
--------------------------------------------------------------------------

    Molecular point group: c1
  Charge       = 0
  Multiplicity = 1
  Basis Set: AUG-CC-PVTZ
    Blend: AUG-CC-PVTZ
  Basis Set: (AUG-CC-PVTZ AUX)
    Blend: AUG-CC-PVTZ-JKFIT

    Orbital Energies [Eh]
    ---------------------

    Doubly Occupied:

       1A    -20.514046     2A    -15.584101     3A    -11.341792
       4A    -11.262753     5A    -11.237089     6A    -11.216667
       7A    -11.212849     8A     -1.383635     9A     -1.236344
      10A     -1.048035    11A     -1.009881    12A     -0.890405
      13A     -0.835954    14A     -0.787037    15A     -0.690230
      16A     -0.656613    17A     -0.620402    18A     -0.604690
      19A     -0.594666    20A     -0.588179    21A     -0.531449
      22A     -0.528233    23A     -0.514435    24A     -0.504680
      25A     -0.497014    26A     -0.485103    27A     -0.410646
      28A     -0.393316

  @DF-RHF Final Energy:  -325.19914261834208

   => Energetics <=

    Nuclear Repulsion Energy =            314.3414844379864803
    One-Electron Energy =               -1064.7207634512694767
    Two-Electron Energy =                 425.1801363949408596
    Total Energy =                       -325.1991426183420799
  Basis Set: (AUG-CC-PVTZ AUX)
    Blend: AUG-CC-PVTZ-RI
    Molecular point group: c1

    Geometry (in Angstrom), charge = 0, multiplicity = 1:

       Center              X                  Y                   Z               Mass
    ------------   -----------------  -----------------  -----------------  -----------------
         O            0.336194159631     1.269609140668    -0.142549569735    15.994914619570
         N           -0.635221840369    -0.784335859332    -0.301707569735    14.003074004430
         C           -1.953411840369    -0.242267859332    -0.598154569735    12.000000000000
         C            1.689241159631    -0.649593859332     0.436728430265    12.000000000000
         C            0.375211959631     0.065620540668    -0.041236969735    12.000000000000
         C           -2.710286840369     0.187938140668     0.653240430265    12.000000000000
         C            2.931885159631     0.094316140668    -0.039195569735    12.000000000000
         H           -1.802120840369     0.613865140668    -1.258959569735     1.007825032230
         H           -2.508992840369    -1.003788859332    -1.153836569735     1.007825032230
         H            1.666510159631    -0.676879859332     1.533593430265     1.007825032230
         H            1.701712159631    -1.690830859332     0.094184430265     1.007825032230
         H           -0.553333840369    -1.765801859332    -0.070504569735     1.007825032230
         H           -2.856327840369    -0.657763859332     1.331380430265     1.007825032230
         H           -2.144771840369     0.963699140668     1.173402430265     1.007825032230
         H           -3.693227840369     0.591232140668     0.390711430265     1.007825032230
         H            2.883385159631     1.137005140668     0.276768430265     1.007825032230
         H            3.837431159631    -0.361978859332     0.369318430265     1.007825032230
         H            2.999403159631     0.076620140668    -1.129914569735     1.007825032230

  Basis Set: AUG-CC-PVTZ
    Blend: AUG-CC-PVTZ
  Basis Set: (AUG-CC-PVTZ AUX)
    Blend: AUG-CC-PVTZ-JKFIT
	 Reference Energy          =    -325.1991426183420799 [Eh]
	 Singles Energy            =      -0.0000000000000000 [Eh]
	 Same-Spin Energy          =      -0.3312829258627153 [Eh]
	 Opposite-Spin Energy      =      -1.1179982935463602 [Eh]
	 Correlation Energy        =      -1.4492812194090754 [Eh]
	 Total Energy              =    -326.6484238377511815 [Eh]

	 ================> DF-SCS-MP2 Energies <==================
	-----------------------------------------------------------
	 SCS Same-Spin Scale       =       0.3333333333333333 [-]
	 SCS Opposite-Spin Scale   =       1.2000000000000000 [-]
	 SCS Same-Spin Energy      =      -0.1104276419542384 [Eh]
	 SCS Opposite-Spin Energy  =      -1.3415979522556321 [Eh]
	 SCS Correlation Energy    =      -1.4520255942098705 [Eh]
	 SCS Total Energy          =    -326.6511682125519656 [Eh]
	-----------------------------------------------------------

  Dipole Moment: [D]
     X:    -1.0664      Y:    -3.2994      Z:     0.3226     Total:     3.4824

*** Psi4 exiting successfully. Buy a developer a beer!
