                               Psi4 1.3.2 release

  ==> Input File <==

--------------------------------------------------------------------------
#psi4
#
memory 32 gb

molecule  {
0 1
  O        0.3109550    -0.6942360     1.0654250
  N       -0.7003251     0.7814623    -0.3737889
  C       -2.0331630     0.4428770     0.0915860
  C        1.7355170     0.5659250    -0.4538020
  C        0.4068390     0.1581200     0.1784230
  C       -2.5721020    -0.8329900    -0.5555930
  C        2.8806560    -0.3237650     0.0245060
  H       -2.0097927     0.3208139     1.1820158
  H       -2.6829100     1.2983230    -0.1207890
  H        1.6432190     0.5393270    -1.5482860
  H        1.9198310     1.6196100    -0.1921910
  H       -0.5759590     1.3845000    -1.1569370
  H       -2.6081430    -0.7287990    -1.6478990
  H       -1.9207320    -1.6762470    -0.2982990
  H       -3.5840310    -1.0569410    -0.1969260
  H        2.7105400    -1.3693420    -0.2530710
  H        3.8280690     0.0048160    -0.4188000
  H        2.9664850    -0.2871200     1.1156770
units angstrom
no_reorient  #important for SAPT in psi4, default
symmetry c1  #important for SAPT in psi4, default
}

set PROPERTIES_ORIGIN ["COM"]
properties('MP2/aug-cc-pvtz', properties = ['dipole'])
--------------------------------------------------------------------------

    Molecular point group: c1
  Charge       = 0
  Multiplicity = 1
  Basis Set: AUG-CC-PVTZ
    Blend: AUG-CC-PVTZ
  Basis Set: (AUG-CC-PVTZ AUX)
    Blend: AUG-CC-PVTZ-JKFIT

    Orbital Energies [Eh]
    ---------------------

    Doubly Occupied:

       1A    -20.517458     2A    -15.579110     3A    -11.348677
       4A    -11.261606     5A    -11.243024     6A    -11.216552
       7A    -11.213903     8A     -1.369088     9A     -1.224060
      10A     -1.054515    11A     -1.005289    12A     -0.893496
      13A     -0.835392    14A     -0.778383    15A     -0.692653
      16A     -0.649346    17A     -0.633722    18A     -0.604839
      19A     -0.587855    20A     -0.573324    21A     -0.534373
      22A     -0.515373    23A     -0.513688    24A     -0.512071
      25A     -0.494617    26A     -0.482078    27A     -0.419412
      28A     -0.386399

  @DF-RHF Final Energy:  -325.19766381858665

   => Energetics <=

    Nuclear Repulsion Energy =            313.3878851044580074
    One-Electron Energy =               -1062.8904896278863816
    Two-Electron Energy =                 424.3049407048416697
    Total Energy =                       -325.1976638185866477
  Basis Set: (AUG-CC-PVTZ AUX)
    Blend: AUG-CC-PVTZ-RI
    Molecular point group: c1

    Geometry (in Angstrom), charge = 0, multiplicity = 1:

       Center              X                  Y                   Z               Mass
    ------------   -----------------  -----------------  -----------------  -----------------
         O            0.312299601435    -0.694334499570     1.068734546027    15.994914619570
         N           -0.698980498565     0.781363800430    -0.370479353973    14.003074004430
         C           -2.031818398565     0.442778500430     0.094895546027    12.000000000000
         C            1.736861601435     0.565826500430    -0.450492453973    12.000000000000
         C            0.408183601435     0.158021500430     0.181732546027    12.000000000000
         C           -2.570757398565    -0.833088499570    -0.552283453973    12.000000000000
         C            2.882000601435    -0.323863499570     0.027815546027    12.000000000000
         H           -2.008448098565     0.320715400430     1.185325346027     1.007825032230
         H           -2.681565398565     1.298224500430    -0.117479453973     1.007825032230
         H            1.644563601435     0.539228500430    -1.544976453973     1.007825032230
         H            1.921175601435     1.619511500430    -0.188881453973     1.007825032230
         H           -0.574614398565     1.384401500430    -1.153627453973     1.007825032230
         H           -2.606798398565    -0.728897499570    -1.644589453973     1.007825032230
         H           -1.919387398565    -1.676345499570    -0.294989453973     1.007825032230
         H           -3.582686398565    -1.057039499570    -0.193616453973     1.007825032230
         H            2.711884601435    -1.369440499570    -0.249761453973     1.007825032230
         H            3.829413601435     0.004717500430    -0.415490453973     1.007825032230
         H            2.967829601435    -0.287218499570     1.118986546027     1.007825032230

  Basis Set: AUG-CC-PVTZ
    Blend: AUG-CC-PVTZ
  Basis Set: (AUG-CC-PVTZ AUX)
    Blend: AUG-CC-PVTZ-JKFIT
	 Reference Energy          =    -325.1976638185866477 [Eh]
	 Singles Energy            =      -0.0000000000000000 [Eh]
	 Same-Spin Energy          =      -0.3317870043728969 [Eh]
	 Opposite-Spin Energy      =      -1.1194736702062853 [Eh]
	 Correlation Energy        =      -1.4512606745791823 [Eh]
	 Total Energy              =    -326.6489244931658504 [Eh]

	 ================> DF-SCS-MP2 Energies <==================
	-----------------------------------------------------------
	 SCS Same-Spin Scale       =       0.3333333333333333 [-]
	 SCS Opposite-Spin Scale   =       1.2000000000000000 [-]
	 SCS Same-Spin Energy      =      -0.1105956681242990 [Eh]
	 SCS Opposite-Spin Energy  =      -1.3433684042475422 [Eh]
	 SCS Correlation Energy    =      -1.4539640723718412 [Eh]
	 SCS Total Energy          =    -326.6516278909584798 [Eh]
	-----------------------------------------------------------

  Dipole Moment: [D]
     X:    -0.6303      Y:     2.2291      Z:    -2.5142     Total:     3.4187

*** Psi4 exiting successfully. Buy a developer a beer!
