                               Psi4 1.4a3.dev225

  ==> Input File <==

--------------------------------------------------------------------------
#psi4
#
memory 32 gb

molecule  {
0 1
  O        0.3358460     1.2965490    -0.1579670
  N       -0.6355700    -0.7573960    -0.3171250
  C       -1.9537600    -0.2153280    -0.6135720
  C        1.6888930    -0.6226540     0.4213110
  C        0.4134235     0.1194601    -0.0461560
  C       -2.7106350     0.2148780     0.6378230
  C        2.9315370     0.1212560    -0.0546130
  H       -1.8024690     0.6408050    -1.2743770
  H       -2.5093410    -0.9768490    -1.1692540
  H        1.6661620    -0.6499400     1.5181760
  H        1.7013640    -1.6638910     0.0787670
  H       -0.5536820    -1.7388620    -0.0859220
  H       -2.8566760    -0.6308240     1.3159630
  H       -2.1451200     0.9906390     1.1579850
  H       -3.6935760     0.6181720     0.3752940
  H        2.8830370     1.1639450     0.2613510
  H        3.8370830    -0.3350390     0.3539010
  H        2.9990550     0.1035600    -1.1453320
units angstrom
no_reorient  #important for SAPT in psi4, default
symmetry c1  #important for SAPT in psi4, default
}

set PROPERTIES_ORIGIN ["COM"]
properties('MP2/aug-cc-pvtz', properties = ['dipole'])
--------------------------------------------------------------------------

    Molecular point group: c1
  Charge       = 0
  Multiplicity = 1
  Basis Set: AUG-CC-PVTZ
    Blend: AUG-CC-PVTZ
  Basis Set: (AUG-CC-PVTZ AUX)
    Blend: AUG-CC-PVTZ-JKFIT

    Orbital Energies [Eh]
    ---------------------

    Doubly Occupied:

       1A    -20.522461     2A    -15.575254     3A    -11.343944
       4A    -11.258261     5A    -11.238516     6A    -11.215235
       7A    -11.213519     8A     -1.401503     9A     -1.220698
      10A     -1.051892    11A     -1.004662    12A     -0.889637
      13A     -0.833466    14A     -0.775205    15A     -0.694868
      16A     -0.655417    17A     -0.623504    18A     -0.610233
      19A     -0.592823    20A     -0.585572    21A     -0.531609
      22A     -0.529568    23A     -0.518828    24A     -0.506609
      25A     -0.494753    26A     -0.488414    27A     -0.416296
      28A     -0.388115

  @DF-RHF Final Energy:  -325.19888049586450

   => Energetics <=

    Nuclear Repulsion Energy =            314.2609770211919908
    One-Electron Energy =               -1064.5579886616103522
    Two-Electron Energy =                 425.0981311445538040
    Total Energy =                       -325.1988804958645005
  Basis Set: (AUG-CC-PVTZ AUX)
    Blend: AUG-CC-PVTZ-RI
    Molecular point group: c1

    Geometry (in Angstrom), charge = 0, multiplicity = 1:

       Center              X                  Y                   Z               Mass
    ------------   -----------------  -----------------  -----------------  -----------------
         O            0.331616619099     1.266415794583    -0.143795867075    15.994914619570
         N           -0.639799380901    -0.787529205417    -0.302953867075    14.003074004430
         C           -1.957989380901    -0.245461205417    -0.599400867075    12.000000000000
         C            1.684663619099    -0.652787205417     0.435482132925    12.000000000000
         C            0.409194119099     0.089326894583    -0.031984867075    12.000000000000
         C           -2.714864380901     0.184744794583     0.651994132925    12.000000000000
         C            2.927307619099     0.091122794583    -0.040441867075    12.000000000000
         H           -1.806698380901     0.610671794583    -1.260205867075     1.007825032230
         H           -2.513570380901    -1.006982205417    -1.155082867075     1.007825032230
         H            1.661932619099    -0.680073205417     1.532347132925     1.007825032230
         H            1.697134619099    -1.694024205417     0.092938132925     1.007825032230
         H           -0.557911380901    -1.768995205417    -0.071750867075     1.007825032230
         H           -2.860905380901    -0.660957205417     1.330134132925     1.007825032230
         H           -2.149349380901     0.960505794583     1.172156132925     1.007825032230
         H           -3.697805380901     0.588038794583     0.389465132925     1.007825032230
         H            2.878807619099     1.133811794583     0.275522132925     1.007825032230
         H            3.832853619099    -0.365172205417     0.368072132925     1.007825032230
         H            2.994825619099     0.073426794583    -1.131160867075     1.007825032230

  Basis Set: AUG-CC-PVTZ
    Blend: AUG-CC-PVTZ
  Basis Set: (AUG-CC-PVTZ AUX)
    Blend: AUG-CC-PVTZ-JKFIT
	 Reference Energy          =    -325.1988804958645005 [Eh]
	 Singles Energy            =      -0.0000000000000000 [Eh]
	 Same-Spin Energy          =      -0.3309837798277084 [Eh]
	 Opposite-Spin Energy      =      -1.1174545496309696 [Eh]
	 Correlation Energy        =      -1.4484383294586780 [Eh]
	 Total Energy              =    -326.6473188253231683 [Eh]

	 ================> DF-SCS-MP2 Energies <==================
	-----------------------------------------------------------
	 SCS Same-Spin Scale       =       0.3333333333333333 [-]
	 SCS Opposite-Spin Scale   =       1.2000000000000000 [-]
	 SCS Same-Spin Energy      =      -0.1103279266092361 [Eh]
	 SCS Opposite-Spin Energy  =      -1.3409454595571635 [Eh]
	 SCS Correlation Energy    =      -1.4512733861663996 [Eh]
	 SCS Total Energy          =    -326.6501538820309065 [Eh]
	-----------------------------------------------------------

  Dipole Moment: [D]
     X:    -0.7115      Y:    -3.0657      Z:     0.3877     Total:     3.1710

*** Psi4 exiting successfully. Buy a developer a beer!
