                               Psi4 1.3.2 release

  ==> Input File <==

--------------------------------------------------------------------------
#psi4
#
memory 32 gb

molecule  {
0 1
  O        0.2471167    -0.6843556     1.0656663
  N       -0.6919670     0.7804610    -0.3498900
  C       -2.0331630     0.4428770     0.0915860
  C        1.6953631     0.6174042    -0.4999296
  C        0.4068390     0.1581200     0.1784230
  C       -2.5721020    -0.8329900    -0.5555930
  C        2.8806560    -0.3237650     0.0245060
  H       -1.9910630     0.3248240     1.1818950
  H       -2.6829100     1.2983230    -0.1207890
  H        1.6432190     0.5393270    -1.5482860
  H        1.9198310     1.6196100    -0.1921910
  H       -0.5759590     1.3845000    -1.1569370
  H       -2.6081430    -0.7287990    -1.6478990
  H       -1.9207320    -1.6762470    -0.2982990
  H       -3.5840310    -1.0569410    -0.1969260
  H        2.7105400    -1.3693420    -0.2530710
  H        3.8280690     0.0048160    -0.4188000
  H        2.9664850    -0.2871200     1.1156770
units angstrom
no_reorient  #important for SAPT in psi4, default
symmetry c1  #important for SAPT in psi4, default
}

set PROPERTIES_ORIGIN ["COM"]
properties('MP2/aug-cc-pvtz', properties = ['dipole'])
--------------------------------------------------------------------------

    Molecular point group: c1
  Charge       = 0
  Multiplicity = 1
  Basis Set: AUG-CC-PVTZ
    Blend: AUG-CC-PVTZ
  Basis Set: (AUG-CC-PVTZ AUX)
    Blend: AUG-CC-PVTZ-JKFIT

    Orbital Energies [Eh]
    ---------------------

    Doubly Occupied:

       1A    -20.515328     2A    -15.576731     3A    -11.346886
       4A    -11.259021     5A    -11.242677     6A    -11.221384
       7A    -11.213140     8A     -1.370280     9A     -1.221359
      10A     -1.051487    11A     -1.001311    12A     -0.894184
      13A     -0.837526    14A     -0.775390    15A     -0.695237
      16A     -0.646748    17A     -0.641669    18A     -0.604417
      19A     -0.585252    20A     -0.571979    21A     -0.529950
      22A     -0.518947    23A     -0.516047    24A     -0.501907
      25A     -0.494665    26A     -0.483135    27A     -0.420557
      28A     -0.383786

  @DF-RHF Final Energy:  -325.19053834993252

   => Energetics <=

    Nuclear Repulsion Energy =            313.5244946490790312
    One-Electron Energy =               -1063.1880646416097989
    Two-Electron Energy =                 424.4730316425981869
    Total Energy =                       -325.1905383499325239
  Basis Set: (AUG-CC-PVTZ AUX)
    Blend: AUG-CC-PVTZ-RI
    Molecular point group: c1

    Geometry (in Angstrom), charge = 0, multiplicity = 1:

       Center              X                  Y                   Z               Mass
    ------------   -----------------  -----------------  -----------------  -----------------
         O            0.261984893095    -0.692030039095     1.071104127168    15.994914619570
         N           -0.677098806905     0.772786560905    -0.344452172832    14.003074004430
         C           -2.018294806905     0.435202560905     0.097023827168    12.000000000000
         C            1.710231293095     0.609729760905    -0.494491772832    12.000000000000
         C            0.421707193095     0.150445560905     0.183860827168    12.000000000000
         C           -2.557233806905    -0.840664439095    -0.550155172832    12.000000000000
         C            2.895524193095    -0.331439439095     0.029943827168    12.000000000000
         H           -1.976194806905     0.317149560905     1.187332827168     1.007825032230
         H           -2.668041806905     1.290648560905    -0.115351172832     1.007825032230
         H            1.658087193095     0.531652560905    -1.542848172832     1.007825032230
         H            1.934699193095     1.611935560905    -0.186753172832     1.007825032230
         H           -0.561090806905     1.376825560905    -1.151499172832     1.007825032230
         H           -2.593274806905    -0.736473439095    -1.642461172832     1.007825032230
         H           -1.905863806905    -1.683921439095    -0.292861172832     1.007825032230
         H           -3.569162806905    -1.064615439095    -0.191488172832     1.007825032230
         H            2.725408193095    -1.377016439095    -0.247633172832     1.007825032230
         H            3.842937193095    -0.002858439095    -0.413362172832     1.007825032230
         H            2.981353193095    -0.294794439095     1.121114827168     1.007825032230

  Basis Set: AUG-CC-PVTZ
    Blend: AUG-CC-PVTZ
  Basis Set: (AUG-CC-PVTZ AUX)
    Blend: AUG-CC-PVTZ-JKFIT
	 Reference Energy          =    -325.1905383499325239 [Eh]
	 Singles Energy            =      -0.0000000000000000 [Eh]
	 Same-Spin Energy          =      -0.3319121644028783 [Eh]
	 Opposite-Spin Energy      =      -1.1200446311459784 [Eh]
	 Correlation Energy        =      -1.4519567955488566 [Eh]
	 Total Energy              =    -326.6424951454814050 [Eh]

	 ================> DF-SCS-MP2 Energies <==================
	-----------------------------------------------------------
	 SCS Same-Spin Scale       =       0.3333333333333333 [-]
	 SCS Opposite-Spin Scale   =       1.2000000000000000 [-]
	 SCS Same-Spin Energy      =      -0.1106373881342928 [Eh]
	 SCS Opposite-Spin Energy  =      -1.3440535573751740 [Eh]
	 SCS Correlation Energy    =      -1.4546909455094668 [Eh]
	 SCS Total Energy          =    -326.6452292954419931 [Eh]
	-----------------------------------------------------------

  Dipole Moment: [D]
     X:    -0.5123      Y:     2.2385      Z:    -2.5875     Total:     3.4595

*** Psi4 exiting successfully. Buy a developer a beer!
