                               Psi4 1.3.2 release

  ==> Input File <==

--------------------------------------------------------------------------
#psi4
#
memory 32 gb

molecule  {
0 1
  O        0.3109550    -0.6942360     1.0654250
  N       -0.6919670     0.7804610    -0.3498900
  C       -2.0331630     0.4428770     0.0915860
  C        1.7355170     0.5659250    -0.4538020
  C        0.4193708     0.1386789     0.1916579
  C       -2.5721020    -0.8329900    -0.5555930
  C        2.8634408    -0.3374130     0.0395929
  H       -1.9910630     0.3248240     1.1818950
  H       -2.6829100     1.2983230    -0.1207890
  H        1.6432190     0.5393270    -1.5482860
  H        1.9198310     1.6196100    -0.1921910
  H       -0.5759590     1.3845000    -1.1569370
  H       -2.6081430    -0.7287990    -1.6478990
  H       -1.9207320    -1.6762470    -0.2982990
  H       -3.5840310    -1.0569410    -0.1969260
  H        2.7105400    -1.3693420    -0.2530710
  H        3.8280690     0.0048160    -0.4188000
  H        2.9664850    -0.2871200     1.1156770
units angstrom
no_reorient  #important for SAPT in psi4, default
symmetry c1  #important for SAPT in psi4, default
}

set PROPERTIES_ORIGIN ["COM"]
properties('MP2/aug-cc-pvtz', properties = ['dipole'])
--------------------------------------------------------------------------

    Molecular point group: c1
  Charge       = 0
  Multiplicity = 1
  Basis Set: AUG-CC-PVTZ
    Blend: AUG-CC-PVTZ
  Basis Set: (AUG-CC-PVTZ AUX)
    Blend: AUG-CC-PVTZ-JKFIT

    Orbital Energies [Eh]
    ---------------------

    Doubly Occupied:

       1A    -20.520086     2A    -15.575539     3A    -11.346186
       4A    -11.259546     5A    -11.242690     6A    -11.216859
       7A    -11.213481     8A     -1.383410     9A     -1.218539
      10A     -1.054969    11A     -1.002982    12A     -0.892397
      13A     -0.833451    14A     -0.771423    15A     -0.694472
      16A     -0.646926    17A     -0.635938    18A     -0.608599
      19A     -0.587949    20A     -0.573172    21A     -0.533864
      22A     -0.517689    23A     -0.515802    24A     -0.507803
      25A     -0.497174    26A     -0.485362    27A     -0.420279
      28A     -0.384620

  @DF-RHF Final Energy:  -325.19761997720701

   => Energetics <=

    Nuclear Repulsion Energy =            313.8877917164687119
    One-Electron Energy =               -1063.8884066442285530
    Two-Electron Energy =                 424.8029949505528862
    Total Energy =                       -325.1976199772070117
  Basis Set: (AUG-CC-PVTZ AUX)
    Blend: AUG-CC-PVTZ-RI
    Molecular point group: c1

    Geometry (in Angstrom), charge = 0, multiplicity = 1:

       Center              X                  Y                   Z               Mass
    ------------   -----------------  -----------------  -----------------  -----------------
         O            0.311511004794    -0.690307663066     1.062062891826    15.994914619570
         N           -0.691410995206     0.784389336934    -0.353252108174    14.003074004430
         C           -2.032606995206     0.446805336934     0.088223891826    12.000000000000
         C            1.736073004794     0.569853336934    -0.457164108174    12.000000000000
         C            0.419926804794     0.142607236934     0.188295791826    12.000000000000
         C           -2.571545995206    -0.829061663066    -0.558955108174    12.000000000000
         C            2.863996804794    -0.333484663066     0.036230791826    12.000000000000
         H           -1.990506995206     0.328752336934     1.178532891826     1.007825032230
         H           -2.682353995206     1.302251336934    -0.124151108174     1.007825032230
         H            1.643775004794     0.543255336934    -1.551648108174     1.007825032230
         H            1.920387004794     1.623538336934    -0.195553108174     1.007825032230
         H           -0.575402995206     1.388428336934    -1.160299108174     1.007825032230
         H           -2.607586995206    -0.724870663066    -1.651261108174     1.007825032230
         H           -1.920175995206    -1.672318663066    -0.301661108174     1.007825032230
         H           -3.583474995206    -1.053012663066    -0.200288108174     1.007825032230
         H            2.711096004794    -1.365413663066    -0.256433108174     1.007825032230
         H            3.828625004794     0.008744336934    -0.422162108174     1.007825032230
         H            2.967041004794    -0.283191663066     1.112314891826     1.007825032230

  Basis Set: AUG-CC-PVTZ
    Blend: AUG-CC-PVTZ
  Basis Set: (AUG-CC-PVTZ AUX)
    Blend: AUG-CC-PVTZ-JKFIT
	 Reference Energy          =    -325.1976199772070117 [Eh]
	 Singles Energy            =      -0.0000000000000000 [Eh]
	 Same-Spin Energy          =      -0.3315054575129573 [Eh]
	 Opposite-Spin Energy      =      -1.1188388741507105 [Eh]
	 Correlation Energy        =      -1.4503443316636677 [Eh]
	 Total Energy              =    -326.6479643088706553 [Eh]

	 ================> DF-SCS-MP2 Energies <==================
	-----------------------------------------------------------
	 SCS Same-Spin Scale       =       0.3333333333333333 [-]
	 SCS Opposite-Spin Scale   =       1.2000000000000000 [-]
	 SCS Same-Spin Energy      =      -0.1105018191709858 [Eh]
	 SCS Opposite-Spin Energy  =      -1.3426066489808526 [Eh]
	 SCS Correlation Energy    =      -1.4531084681518383 [Eh]
	 SCS Total Energy          =    -326.6507284453588227 [Eh]
	-----------------------------------------------------------

  Dipole Moment: [D]
     X:    -0.5528      Y:     2.1273      Z:    -2.4582     Total:     3.2975

*** Psi4 exiting successfully. Buy a developer a beer!
