                               Psi4 1.3.2 release

  ==> Input File <==

--------------------------------------------------------------------------
#psi4
#
memory 32 gb

molecule  {
0 1
  O        0.3109550    -0.6942360     1.0654250
  N       -0.6919670     0.7804610    -0.3498900
  C       -2.0331630     0.4428770     0.0915860
  C        1.7355170     0.5659250    -0.4538020
  C        0.4223808     0.2962779     0.0346494
  C       -2.5721020    -0.8329900    -0.5555930
  C        2.8806560    -0.3237650     0.0245060
  H       -1.9910630     0.3248240     1.1818950
  H       -2.6829100     1.2983230    -0.1207890
  H        1.6432190     0.5393270    -1.5482860
  H        1.9198310     1.6196100    -0.1921910
  H       -0.5759590     1.3845000    -1.1569370
  H       -2.6081430    -0.7287990    -1.6478990
  H       -1.9207320    -1.6762470    -0.2982990
  H       -3.5840310    -1.0569410    -0.1969260
  H        2.7105400    -1.3693420    -0.2530710
  H        3.8280690     0.0048160    -0.4188000
  H        2.9664850    -0.2871200     1.1156770
units angstrom
no_reorient  #important for SAPT in psi4, default
symmetry c1  #important for SAPT in psi4, default
}

set PROPERTIES_ORIGIN ["COM"]
properties('MP2/aug-cc-pvtz', properties = ['dipole'])
--------------------------------------------------------------------------

    Molecular point group: c1
  Charge       = 0
  Multiplicity = 1
  Basis Set: AUG-CC-PVTZ
    Blend: AUG-CC-PVTZ
  Basis Set: (AUG-CC-PVTZ AUX)
    Blend: AUG-CC-PVTZ-JKFIT

    Orbital Energies [Eh]
    ---------------------

    Doubly Occupied:

       1A    -20.474352     2A    -15.610265     3A    -11.346074
       4A    -11.275947     5A    -11.248533     6A    -11.221138
       7A    -11.218833     8A     -1.324414     9A     -1.191150
      10A     -1.073885    11A     -1.024576    12A     -0.914150
      13A     -0.859393    14A     -0.788914    15A     -0.695441
      16A     -0.661938    17A     -0.646114    18A     -0.606136
      19A     -0.588188    20A     -0.550775    21A     -0.536917
      22A     -0.524793    23A     -0.513056    24A     -0.501191
      25A     -0.472719    26A     -0.466035    27A     -0.387946
      28A     -0.366112

  @DF-RHF Final Energy:  -325.13578408073761

   => Energetics <=

    Nuclear Repulsion Energy =            313.0346332226596928
    One-Electron Energy =               -1062.1628672672773064
    Two-Electron Energy =                 423.9924499638799489
    Total Energy =                       -325.1357840807376078
  Basis Set: (AUG-CC-PVTZ AUX)
    Blend: AUG-CC-PVTZ-RI
    Molecular point group: c1

    Geometry (in Angstrom), charge = 0, multiplicity = 1:

       Center              X                  Y                   Z               Mass
    ------------   -----------------  -----------------  -----------------  -----------------
         O            0.309110009123    -0.710636920905     1.082492865837    15.994914619570
         N           -0.693811990877     0.764060079095    -0.332822134163    14.003074004430
         C           -2.035007990877     0.426476079095     0.108653865837    12.000000000000
         C            1.733672009123     0.549524079095    -0.436734134163    12.000000000000
         C            0.420535809123     0.279876979095     0.051717265837    12.000000000000
         C           -2.573946990877    -0.849390920905    -0.538525134163    12.000000000000
         C            2.878811009123    -0.340165920905     0.041573865837    12.000000000000
         H           -1.992907990877     0.308423079095     1.198962865837     1.007825032230
         H           -2.684754990877     1.281922079095    -0.103721134163     1.007825032230
         H            1.641374009123     0.522926079095    -1.531218134163     1.007825032230
         H            1.917986009123     1.603209079095    -0.175123134163     1.007825032230
         H           -0.577803990877     1.368099079095    -1.139869134163     1.007825032230
         H           -2.609987990877    -0.745199920905    -1.630831134163     1.007825032230
         H           -1.922576990877    -1.692647920905    -0.281231134163     1.007825032230
         H           -3.585875990877    -1.073341920905    -0.179858134163     1.007825032230
         H            2.708695009123    -1.385742920905    -0.236003134163     1.007825032230
         H            3.826224009123    -0.011584920905    -0.401732134163     1.007825032230
         H            2.964640009123    -0.303520920905     1.132744865837     1.007825032230

  Basis Set: AUG-CC-PVTZ
    Blend: AUG-CC-PVTZ
  Basis Set: (AUG-CC-PVTZ AUX)
    Blend: AUG-CC-PVTZ-JKFIT
	 Reference Energy          =    -325.1357840807376078 [Eh]
	 Singles Energy            =      -0.0000000000000000 [Eh]
	 Same-Spin Energy          =      -0.3359487837206531 [Eh]
	 Opposite-Spin Energy      =      -1.1275378573581247 [Eh]
	 Correlation Energy        =      -1.4634866410787777 [Eh]
	 Total Energy              =    -326.5992707218163673 [Eh]

	 ================> DF-SCS-MP2 Energies <==================
	-----------------------------------------------------------
	 SCS Same-Spin Scale       =       0.3333333333333333 [-]
	 SCS Opposite-Spin Scale   =       1.2000000000000000 [-]
	 SCS Same-Spin Energy      =      -0.1119829279068844 [Eh]
	 SCS Opposite-Spin Energy  =      -1.3530454288297495 [Eh]
	 SCS Correlation Energy    =      -1.4650283567366338 [Eh]
	 SCS Total Energy          =    -326.6008124374742465 [Eh]
	-----------------------------------------------------------

  Dipole Moment: [D]
     X:    -1.0928      Y:     2.9599      Z:    -3.3895     Total:     4.6308

*** Psi4 exiting successfully. Buy a developer a beer!
