                               Psi4 1.4a3.dev225

  ==> Input File <==

--------------------------------------------------------------------------
#psi4
#
memory 32 gb

molecule  {
0 1
  O        0.3358460     1.2965490    -0.1579670
  N       -0.6355700    -0.7573960    -0.3171250
  C       -1.9537600    -0.2153280    -0.6135720
  C        1.6888930    -0.6226540     0.4213110
  C        0.4166970     0.0697910    -0.0414380
  C       -2.7106350     0.2148780     0.6378230
  C        2.9315370     0.1212560    -0.0546130
  H       -1.8024690     0.6408050    -1.2743770
  H       -2.5093410    -0.9768490    -1.1692540
  H        1.6661620    -0.6499400     1.5181760
  H        1.7013640    -1.6638910     0.0787670
  H       -0.5577292    -1.6903538    -0.0973490
  H       -2.8566760    -0.6308240     1.3159630
  H       -2.1451200     0.9906390     1.1579850
  H       -3.6935760     0.6181720     0.3752940
  H        2.8830370     1.1639450     0.2613510
  H        3.8370830    -0.3350390     0.3539010
  H        2.9990550     0.1035600    -1.1453320
units angstrom
no_reorient  #important for SAPT in psi4, default
symmetry c1  #important for SAPT in psi4, default
}

set PROPERTIES_ORIGIN ["COM"]
properties('MP2/aug-cc-pvtz', properties = ['dipole'])
--------------------------------------------------------------------------

    Molecular point group: c1
  Charge       = 0
  Multiplicity = 1
  Basis Set: AUG-CC-PVTZ
    Blend: AUG-CC-PVTZ
  Basis Set: (AUG-CC-PVTZ AUX)
    Blend: AUG-CC-PVTZ-JKFIT

    Orbital Energies [Eh]
    ---------------------

    Doubly Occupied:

       1A    -20.512267     2A    -15.578076     3A    -11.345353
       4A    -11.261837     5A    -11.240817     6A    -11.216295
       7A    -11.215230     8A     -1.368352     9A     -1.232679
      10A     -1.057081    11A     -1.010518    12A     -0.895868
      13A     -0.839638    14A     -0.789983    15A     -0.693709
      16A     -0.656620    17A     -0.621643    18A     -0.605785
      19A     -0.592715    20A     -0.583877    21A     -0.531834
      22A     -0.528258    23A     -0.515141    24A     -0.505228
      25A     -0.496654    26A     -0.482885    27A     -0.417366
      28A     -0.389372

  @DF-RHF Final Energy:  -325.19915711445361

   => Energetics <=

    Nuclear Repulsion Energy =            314.3035863154074150
    One-Electron Energy =               -1064.6353235378660429
    Two-Electron Energy =                 425.1325801080050155
    Total Energy =                       -325.1991571144536124
  Basis Set: (AUG-CC-PVTZ AUX)
    Blend: AUG-CC-PVTZ-RI
    Molecular point group: c1

    Geometry (in Angstrom), charge = 0, multiplicity = 1:

       Center              X                  Y                   Z               Mass
    ------------   -----------------  -----------------  -----------------  -----------------
         O            0.331268363112     1.271828531272    -0.144242026257    15.994914619570
         N           -0.640147636888    -0.782116468728    -0.303400026257    14.003074004430
         C           -1.958337636888    -0.240048468728    -0.599847026257    12.000000000000
         C            1.684315363112    -0.647374468728     0.435035973743    12.000000000000
         C            0.412119363112     0.045070531272    -0.027713026257    12.000000000000
         C           -2.715212636888     0.190157531272     0.651547973743    12.000000000000
         C            2.926959363112     0.096535531272    -0.040888026257    12.000000000000
         H           -1.807046636888     0.616084531272    -1.260652026257     1.007825032230
         H           -2.513918636888    -1.001569468728    -1.155529026257     1.007825032230
         H            1.661584363112    -0.674660468728     1.531900973743     1.007825032230
         H            1.696786363112    -1.688611468728     0.092491973743     1.007825032230
         H           -0.562306836888    -1.715074268728    -0.083624026257     1.007825032230
         H           -2.861253636888    -0.655544468728     1.329687973743     1.007825032230
         H           -2.149697636888     0.965918531272     1.171709973743     1.007825032230
         H           -3.698153636888     0.593451531272     0.389018973743     1.007825032230
         H            2.878459363112     1.139224531272     0.275075973743     1.007825032230
         H            3.832505363112    -0.359759468728     0.367625973743     1.007825032230
         H            2.994477363112     0.078839531272    -1.131607026257     1.007825032230

  Basis Set: AUG-CC-PVTZ
    Blend: AUG-CC-PVTZ
  Basis Set: (AUG-CC-PVTZ AUX)
    Blend: AUG-CC-PVTZ-JKFIT
	 Reference Energy          =    -325.1991571144536124 [Eh]
	 Singles Energy            =      -0.0000000000000000 [Eh]
	 Same-Spin Energy          =      -0.3316009392211389 [Eh]
	 Opposite-Spin Energy      =      -1.1184697799583510 [Eh]
	 Correlation Energy        =      -1.4500707191794899 [Eh]
	 Total Energy              =    -326.6492278336331196 [Eh]

	 ================> DF-SCS-MP2 Energies <==================
	-----------------------------------------------------------
	 SCS Same-Spin Scale       =       0.3333333333333333 [-]
	 SCS Opposite-Spin Scale   =       1.2000000000000000 [-]
	 SCS Same-Spin Energy      =      -0.1105336464070463 [Eh]
	 SCS Opposite-Spin Energy  =      -1.3421637359500211 [Eh]
	 SCS Correlation Energy    =      -1.4526973823570675 [Eh]
	 SCS Total Energy          =    -326.6518544968106994 [Eh]
	-----------------------------------------------------------

  Dipole Moment: [D]
     X:    -0.8111      Y:    -3.3481      Z:     0.3884     Total:     3.4667

*** Psi4 exiting successfully. Buy a developer a beer!
