                               Psi4 1.3.2 release

  ==> Input File <==

--------------------------------------------------------------------------
#psi4
#
memory 32 gb

molecule  {
0 1
  O        0.3109550    -0.6942360     1.0654250
  N       -0.6919670     0.7804610    -0.3498900
  C       -2.0331630     0.4428770     0.0915860
  C        1.7355170     0.5659250    -0.4538020
  C        0.4871102     0.1126561     0.2170179
  C       -2.5721020    -0.8329900    -0.5555930
  C        2.8806560    -0.3237650     0.0245060
  H       -1.9910630     0.3248240     1.1818950
  H       -2.6829100     1.2983230    -0.1207890
  H        1.6432190     0.5393270    -1.5482860
  H        1.9198310     1.6196100    -0.1921910
  H       -0.5759590     1.3845000    -1.1569370
  H       -2.6081430    -0.7287990    -1.6478990
  H       -1.9207320    -1.6762470    -0.2982990
  H       -3.5840310    -1.0569410    -0.1969260
  H        2.7105400    -1.3693420    -0.2530710
  H        3.8280690     0.0048160    -0.4188000
  H        2.9664850    -0.2871200     1.1156770
units angstrom
no_reorient  #important for SAPT in psi4, default
symmetry c1  #important for SAPT in psi4, default
}

set PROPERTIES_ORIGIN ["COM"]
properties('MP2/aug-cc-pvtz', properties = ['dipole'])
--------------------------------------------------------------------------

    Molecular point group: c1
  Charge       = 0
  Multiplicity = 1
  Basis Set: AUG-CC-PVTZ
    Blend: AUG-CC-PVTZ
  Basis Set: (AUG-CC-PVTZ AUX)
    Blend: AUG-CC-PVTZ-JKFIT

    Orbital Energies [Eh]
    ---------------------

    Doubly Occupied:

       1A    -20.532933     2A    -15.561182     3A    -11.351407
       4A    -11.252735     5A    -11.245768     6A    -11.221007
       7A    -11.208549     8A     -1.407087     9A     -1.195341
      10A     -1.065419    11A     -0.993594    12A     -0.894939
      13A     -0.826989    14A     -0.756625    15A     -0.701856
      16A     -0.643641    17A     -0.640228    18A     -0.620825
      19A     -0.583085    20A     -0.567266    21A     -0.535626
      22A     -0.525556    23A     -0.518235    24A     -0.509782
      25A     -0.498870    26A     -0.483982    27A     -0.425309
      28A     -0.373863

  @DF-RHF Final Energy:  -325.18805378857292

   => Energetics <=

    Nuclear Repulsion Energy =            313.5813335759104348
    One-Electron Energy =               -1063.2553761394046887
    Two-Electron Energy =                 424.4859887749213385
    Total Energy =                       -325.1880537885729154
  Basis Set: (AUG-CC-PVTZ AUX)
    Blend: AUG-CC-PVTZ-RI
    Molecular point group: c1

    Geometry (in Angstrom), charge = 0, multiplicity = 1:

       Center              X                  Y                   Z               Mass
    ------------   -----------------  -----------------  -----------------  -----------------
         O            0.301425783050    -0.688838612514     1.060843340542    15.994914619570
         N           -0.701496216950     0.785858387486    -0.354471659458    14.003074004430
         C           -2.042692216950     0.448274387486     0.087004340542    12.000000000000
         C            1.725987783050     0.571322387486    -0.458383659458    12.000000000000
         C            0.477580983050     0.118053487486     0.212436240542    12.000000000000
         C           -2.581631216950    -0.827592612514    -0.560174659458    12.000000000000
         C            2.871126783050    -0.318367612514     0.019924340542    12.000000000000
         H           -2.000592216950     0.330221387486     1.177313340542     1.007825032230
         H           -2.692439216950     1.303720387486    -0.125370659458     1.007825032230
         H            1.633689783050     0.544724387486    -1.552867659458     1.007825032230
         H            1.910301783050     1.625007387486    -0.196772659458     1.007825032230
         H           -0.585488216950     1.389897387486    -1.161518659458     1.007825032230
         H           -2.617672216950    -0.723401612514    -1.652480659458     1.007825032230
         H           -1.930261216950    -1.670849612514    -0.302880659458     1.007825032230
         H           -3.593560216950    -1.051543612514    -0.201507659458     1.007825032230
         H            2.701010783050    -1.363944612514    -0.257652659458     1.007825032230
         H            3.818539783050     0.010213387486    -0.423381659458     1.007825032230
         H            2.956955783050    -0.281722612514     1.111095340542     1.007825032230

  Basis Set: AUG-CC-PVTZ
    Blend: AUG-CC-PVTZ
  Basis Set: (AUG-CC-PVTZ AUX)
    Blend: AUG-CC-PVTZ-JKFIT
	 Reference Energy          =    -325.1880537885729154 [Eh]
	 Singles Energy            =      -0.0000000000000000 [Eh]
	 Same-Spin Energy          =      -0.3315326613031045 [Eh]
	 Opposite-Spin Energy      =      -1.1189731776343605 [Eh]
	 Correlation Energy        =      -1.4505058389374650 [Eh]
	 Total Energy              =    -326.6385596275104035 [Eh]

	 ================> DF-SCS-MP2 Energies <==================
	-----------------------------------------------------------
	 SCS Same-Spin Scale       =       0.3333333333333333 [-]
	 SCS Opposite-Spin Scale   =       1.2000000000000000 [-]
	 SCS Same-Spin Energy      =      -0.1105108871010348 [Eh]
	 SCS Opposite-Spin Energy  =      -1.3427678131612326 [Eh]
	 SCS Correlation Energy    =      -1.4532787002622674 [Eh]
	 SCS Total Energy          =    -326.6413324888351895 [Eh]
	-----------------------------------------------------------

  Dipole Moment: [D]
     X:     0.0771      Y:     1.8977      Z:    -2.2355     Total:     2.9334

*** Psi4 exiting successfully. Buy a developer a beer!
