                               Psi4 1.3.2 release

  ==> Input File <==

--------------------------------------------------------------------------
#psi4
#
memory 32 gb

molecule  {
0 1
  O        0.3109550    -0.6942360     1.0654250
  N       -0.6919670     0.7804610    -0.3498900
  C       -2.0331630     0.4428770     0.0915860
  C        1.7355170     0.5659250    -0.4538020
  C        0.4068390     0.1581200     0.1784230
  C       -2.5764917    -0.8546554    -0.5070258
  C        2.8806560    -0.3237650     0.0245060
  H       -2.0049318     0.2893375     1.1779153
  H       -2.6829100     1.2983230    -0.1207890
  H        1.6432190     0.5393270    -1.5482860
  H        1.9198310     1.6196100    -0.1921910
  H       -0.5759590     1.3845000    -1.1569370
  H       -2.6081430    -0.7287990    -1.6478990
  H       -1.9207320    -1.6762470    -0.2982990
  H       -3.5840310    -1.0569410    -0.1969260
  H        2.7105400    -1.3693420    -0.2530710
  H        3.8280690     0.0048160    -0.4188000
  H        2.9664850    -0.2871200     1.1156770
units angstrom
no_reorient  #important for SAPT in psi4, default
symmetry c1  #important for SAPT in psi4, default
}

set PROPERTIES_ORIGIN ["COM"]
properties('MP2/aug-cc-pvtz', properties = ['dipole'])
--------------------------------------------------------------------------

    Molecular point group: c1
  Charge       = 0
  Multiplicity = 1
  Basis Set: AUG-CC-PVTZ
    Blend: AUG-CC-PVTZ
  Basis Set: (AUG-CC-PVTZ AUX)
    Blend: AUG-CC-PVTZ-JKFIT

    Orbital Energies [Eh]
    ---------------------

    Doubly Occupied:

       1A    -20.514832     2A    -15.582048     3A    -11.346575
       4A    -11.262311     5A    -11.242908     6A    -11.216350
       7A    -11.215166     8A     -1.369322     9A     -1.225328
      10A     -1.054786    11A     -1.007127    12A     -0.894559
      13A     -0.835676    14A     -0.776628    15A     -0.692997
      16A     -0.649272    17A     -0.634283    18A     -0.606388
      19A     -0.586142    20A     -0.573818    21A     -0.540168
      22A     -0.516943    23A     -0.514478    24A     -0.512635
      25A     -0.492045    26A     -0.475514    27A     -0.419289
      28A     -0.386787

  @DF-RHF Final Energy:  -325.19523555091712

   => Energetics <=

    Nuclear Repulsion Energy =            313.6579735590769360
    One-Electron Energy =               -1063.4176644107819811
    Two-Electron Energy =                 424.5644553007879267
    Total Energy =                       -325.1952355509171184
  Basis Set: (AUG-CC-PVTZ AUX)
    Blend: AUG-CC-PVTZ-RI
    Molecular point group: c1

    Geometry (in Angstrom), charge = 0, multiplicity = 1:

       Center              X                  Y                   Z               Mass
    ------------   -----------------  -----------------  -----------------  -----------------
         O            0.311614413020    -0.691309999270     1.059699176426    15.994914619570
         N           -0.691307586980     0.783387000730    -0.355615823574    14.003074004430
         C           -2.032503586980     0.445803000730     0.085860176426    12.000000000000
         C            1.736176413020     0.568851000730    -0.459527823574    12.000000000000
         C            0.407498413020     0.161046000730     0.172697176426    12.000000000000
         C           -2.575832286980    -0.851729399270    -0.512751623574    12.000000000000
         C            2.881315413020    -0.320838999270     0.018780176426    12.000000000000
         H           -2.004272386980     0.292263500730     1.172189476426     1.007825032230
         H           -2.682250586980     1.301249000730    -0.126514823574     1.007825032230
         H            1.643878413020     0.542253000730    -1.554011823574     1.007825032230
         H            1.920490413020     1.622536000730    -0.197916823574     1.007825032230
         H           -0.575299586980     1.387426000730    -1.162662823574     1.007825032230
         H           -2.607483586980    -0.725872999270    -1.653624823574     1.007825032230
         H           -1.920072586980    -1.673320999270    -0.304024823574     1.007825032230
         H           -3.583371586980    -1.054014999270    -0.202651823574     1.007825032230
         H            2.711199413020    -1.366415999270    -0.258796823574     1.007825032230
         H            3.828728413020     0.007742000730    -0.424525823574     1.007825032230
         H            2.967144413020    -0.284193999270     1.109951176426     1.007825032230

  Basis Set: AUG-CC-PVTZ
    Blend: AUG-CC-PVTZ
  Basis Set: (AUG-CC-PVTZ AUX)
    Blend: AUG-CC-PVTZ-JKFIT
	 Reference Energy          =    -325.1952355509171184 [Eh]
	 Singles Energy            =      -0.0000000000000000 [Eh]
	 Same-Spin Energy          =      -0.3318465101400823 [Eh]
	 Opposite-Spin Energy      =      -1.1195386090871302 [Eh]
	 Correlation Energy        =      -1.4513851192272125 [Eh]
	 Total Energy              =    -326.6466206701443298 [Eh]

	 ================> DF-SCS-MP2 Energies <==================
	-----------------------------------------------------------
	 SCS Same-Spin Scale       =       0.3333333333333333 [-]
	 SCS Opposite-Spin Scale   =       1.2000000000000000 [-]
	 SCS Same-Spin Energy      =      -0.1106155033800274 [Eh]
	 SCS Opposite-Spin Energy  =      -1.3434463309045561 [Eh]
	 SCS Correlation Energy    =      -1.4540618342845835 [Eh]
	 SCS Total Energy          =    -326.6492973852016917 [Eh]
	-----------------------------------------------------------

  Dipole Moment: [D]
     X:    -0.6839      Y:     2.2352      Z:    -2.5455     Total:     3.4559

*** Psi4 exiting successfully. Buy a developer a beer!
