                               Psi4 1.3.2 release

  ==> Input File <==

--------------------------------------------------------------------------
#psi4
#
memory 32 gb

molecule  {
0 1
  O        0.3109550    -0.6942360     1.0654250
  N       -0.6919670     0.7804610    -0.3498900
  C       -2.0331630     0.4428770     0.0915860
  C        1.7355170     0.5659250    -0.4538020
  C        0.4007246     0.1678875     0.1717331
  C       -2.5721020    -0.8329900    -0.5555930
  C        2.8891331    -0.3168391     0.0169076
  H       -1.9910630     0.3248240     1.1818950
  H       -2.6829100     1.2983230    -0.1207890
  H        1.6432190     0.5393270    -1.5482860
  H        1.9198310     1.6196100    -0.1921910
  H       -0.5759590     1.3845000    -1.1569370
  H       -2.6081430    -0.7287990    -1.6478990
  H       -1.9207320    -1.6762470    -0.2982990
  H       -3.5840310    -1.0569410    -0.1969260
  H        2.7105400    -1.3693420    -0.2530710
  H        3.8280690     0.0048160    -0.4188000
  H        2.9664850    -0.2871200     1.1156770
units angstrom
no_reorient  #important for SAPT in psi4, default
symmetry c1  #important for SAPT in psi4, default
}

set PROPERTIES_ORIGIN ["COM"]
properties('MP2/aug-cc-pvtz', properties = ['dipole'])
--------------------------------------------------------------------------

    Molecular point group: c1
  Charge       = 0
  Multiplicity = 1
  Basis Set: AUG-CC-PVTZ
    Blend: AUG-CC-PVTZ
  Basis Set: (AUG-CC-PVTZ AUX)
    Blend: AUG-CC-PVTZ-JKFIT

    Orbital Energies [Eh]
    ---------------------

    Doubly Occupied:

       1A    -20.511390     2A    -15.583629     3A    -11.345985
       4A    -11.263506     5A    -11.242660     6A    -11.215861
       7A    -11.215744     8A     -1.362242     9A     -1.227930
      10A     -1.054388    11A     -1.007888    12A     -0.895229
      13A     -0.837442    14A     -0.778947    15A     -0.691424
      16A     -0.649375    17A     -0.633106    18A     -0.603928
      19A     -0.586410    20A     -0.573970    21A     -0.536312
      22A     -0.514270    23A     -0.512603    24A     -0.510834
      25A     -0.494922    26A     -0.480263    27A     -0.417188
      28A     -0.387034

  @DF-RHF Final Energy:  -325.19739943008443

   => Energetics <=

    Nuclear Repulsion Energy =            313.5762161052381884
    One-Electron Energy =               -1063.2782742187998792
    Two-Electron Energy =                 424.5046586834772029
    Total Energy =                       -325.1973994300844311
  Basis Set: (AUG-CC-PVTZ AUX)
    Blend: AUG-CC-PVTZ-RI
    Molecular point group: c1

    Geometry (in Angstrom), charge = 0, multiplicity = 1:

       Center              X                  Y                   Z               Mass
    ------------   -----------------  -----------------  -----------------  -----------------
         O            0.310674540601    -0.696217496688     1.067121267794    15.994914619570
         N           -0.692247459399     0.778479503312    -0.348193732206    14.003074004430
         C           -2.033443459399     0.440895503312     0.093282267794    12.000000000000
         C            1.735236540601     0.563943503312    -0.452105732206    12.000000000000
         C            0.400444140601     0.165906003312     0.173429367794    12.000000000000
         C           -2.572382459399    -0.834971496688    -0.553896732206    12.000000000000
         C            2.888852640601    -0.318820596688     0.018603867794    12.000000000000
         H           -1.991343459399     0.322842503312     1.183591267794     1.007825032230
         H           -2.683190459399     1.296341503312    -0.119092732206     1.007825032230
         H            1.642938540601     0.537345503312    -1.546589732206     1.007825032230
         H            1.919550540601     1.617628503312    -0.190494732206     1.007825032230
         H           -0.576239459399     1.382518503312    -1.155240732206     1.007825032230
         H           -2.608423459399    -0.730780496688    -1.646202732206     1.007825032230
         H           -1.921012459399    -1.678228496688    -0.296602732206     1.007825032230
         H           -3.584311459399    -1.058922496688    -0.195229732206     1.007825032230
         H            2.710259540601    -1.371323496688    -0.251374732206     1.007825032230
         H            3.827788540601     0.002834503312    -0.417103732206     1.007825032230
         H            2.966204540601    -0.289101496688     1.117373267794     1.007825032230

  Basis Set: AUG-CC-PVTZ
    Blend: AUG-CC-PVTZ
  Basis Set: (AUG-CC-PVTZ AUX)
    Blend: AUG-CC-PVTZ-JKFIT
	 Reference Energy          =    -325.1973994300844311 [Eh]
	 Singles Energy            =      -0.0000000000000000 [Eh]
	 Same-Spin Energy          =      -0.3320166348278863 [Eh]
	 Opposite-Spin Energy      =      -1.1197835166452510 [Eh]
	 Correlation Energy        =      -1.4518001514731373 [Eh]
	 Total Energy              =    -326.6491995815575820 [Eh]

	 ================> DF-SCS-MP2 Energies <==================
	-----------------------------------------------------------
	 SCS Same-Spin Scale       =       0.3333333333333333 [-]
	 SCS Opposite-Spin Scale   =       1.2000000000000000 [-]
	 SCS Same-Spin Energy      =      -0.1106722116092954 [Eh]
	 SCS Opposite-Spin Energy  =      -1.3437402199743012 [Eh]
	 SCS Correlation Energy    =      -1.4544124315835967 [Eh]
	 SCS Total Energy          =    -326.6518118616680226 [Eh]
	-----------------------------------------------------------

  Dipole Moment: [D]
     X:    -0.7741      Y:     2.3032      Z:    -2.6404     Total:     3.5883

*** Psi4 exiting successfully. Buy a developer a beer!
