                               Psi4 1.4a3.dev225

  ==> Input File <==

--------------------------------------------------------------------------
#psi4
#
memory 32 gb

molecule  {
0 1
  O        0.3358460     1.2965490    -0.1579670
  N       -0.6355700    -0.7573960    -0.3171250
  C       -1.9537600    -0.2153280    -0.6135720
  C        1.6888930    -0.6226540     0.4213110
  C        0.4551974     0.1000561    -0.0313512
  C       -2.7106350     0.2148780     0.6378230
  C        2.9315370     0.1212560    -0.0546130
  H       -1.8024690     0.6408050    -1.2743770
  H       -2.5093410    -0.9768490    -1.1692540
  H        1.6661620    -0.6499400     1.5181760
  H        1.7013640    -1.6638910     0.0787670
  H       -0.5536820    -1.7388620    -0.0859220
  H       -2.8566760    -0.6308240     1.3159630
  H       -2.1451200     0.9906390     1.1579850
  H       -3.6935760     0.6181720     0.3752940
  H        2.8830370     1.1639450     0.2613510
  H        3.8370830    -0.3350390     0.3539010
  H        2.9990550     0.1035600    -1.1453320
units angstrom
no_reorient  #important for SAPT in psi4, default
symmetry c1  #important for SAPT in psi4, default
}

set PROPERTIES_ORIGIN ["COM"]
properties('MP2/aug-cc-pvtz', properties = ['dipole'])
--------------------------------------------------------------------------

    Molecular point group: c1
  Charge       = 0
  Multiplicity = 1
  Basis Set: AUG-CC-PVTZ
    Blend: AUG-CC-PVTZ
  Basis Set: (AUG-CC-PVTZ AUX)
    Blend: AUG-CC-PVTZ-JKFIT

    Orbital Energies [Eh]
    ---------------------

    Doubly Occupied:

       1A    -20.521308     2A    -15.573586     3A    -11.347814
       4A    -11.257108     5A    -11.241773     6A    -11.218527
       7A    -11.211828     8A     -1.385753     9A     -1.211871
      10A     -1.061887    11A     -1.002946    12A     -0.895597
      13A     -0.834477    14A     -0.767578    15A     -0.696918
      16A     -0.654776    17A     -0.622588    18A     -0.611874
      19A     -0.589767    20A     -0.580665    21A     -0.531590
      22A     -0.528716    23A     -0.519177    24A     -0.506590
      25A     -0.494123    26A     -0.486023    27A     -0.422253
      28A     -0.383522

  @DF-RHF Final Energy:  -325.19738774723527

   => Energetics <=

    Nuclear Repulsion Energy =            313.9356261800205061
    One-Electron Energy =               -1063.9447568898967802
    Two-Electron Energy =                 424.8117429626409489
    Total Energy =                       -325.1973877472352683
  Basis Set: (AUG-CC-PVTZ AUX)
    Blend: AUG-CC-PVTZ-RI
    Molecular point group: c1

    Geometry (in Angstrom), charge = 0, multiplicity = 1:

       Center              X                  Y                   Z               Mass
    ------------   -----------------  -----------------  -----------------  -----------------
         O            0.326657511004     1.268719303077    -0.145553390397    15.994914619570
         N           -0.644758488996    -0.785225696923    -0.304711390397    14.003074004430
         C           -1.962948488996    -0.243157696923    -0.601158390397    12.000000000000
         C            1.679704511004    -0.650483696923     0.433724609603    12.000000000000
         C            0.446008911004     0.072226403077    -0.018937590397    12.000000000000
         C           -2.719823488996     0.187048303077     0.650236609603    12.000000000000
         C            2.922348511004     0.093426303077    -0.042199390397    12.000000000000
         H           -1.811657488996     0.612975303077    -1.261963390397     1.007825032230
         H           -2.518529488996    -1.004678696923    -1.156840390397     1.007825032230
         H            1.656973511004    -0.677769696923     1.530589609603     1.007825032230
         H            1.692175511004    -1.691720696923     0.091180609603     1.007825032230
         H           -0.562870488996    -1.766691696923    -0.073508390397     1.007825032230
         H           -2.865864488996    -0.658653696923     1.328376609603     1.007825032230
         H           -2.154308488996     0.962809303077     1.170398609603     1.007825032230
         H           -3.702764488996     0.590342303077     0.387707609603     1.007825032230
         H            2.873848511004     1.136115303077     0.273764609603     1.007825032230
         H            3.827894511004    -0.362868696923     0.366314609603     1.007825032230
         H            2.989866511004     0.075730303077    -1.132918390397     1.007825032230

  Basis Set: AUG-CC-PVTZ
    Blend: AUG-CC-PVTZ
  Basis Set: (AUG-CC-PVTZ AUX)
    Blend: AUG-CC-PVTZ-JKFIT
	 Reference Energy          =    -325.1973877472352683 [Eh]
	 Singles Energy            =      -0.0000000000000000 [Eh]
	 Same-Spin Energy          =      -0.3317794619005081 [Eh]
	 Opposite-Spin Energy      =      -1.1189743727752390 [Eh]
	 Correlation Energy        =      -1.4507538346757471 [Eh]
	 Total Energy              =    -326.6481415819110339 [Eh]

	 ================> DF-SCS-MP2 Energies <==================
	-----------------------------------------------------------
	 SCS Same-Spin Scale       =       0.3333333333333333 [-]
	 SCS Opposite-Spin Scale   =       1.2000000000000000 [-]
	 SCS Same-Spin Energy      =      -0.1105931539668360 [Eh]
	 SCS Opposite-Spin Energy  =      -1.3427692473302868 [Eh]
	 SCS Correlation Energy    =      -1.4533624012971229 [Eh]
	 SCS Total Energy          =    -326.6507501485323814 [Eh]
	-----------------------------------------------------------

  Dipole Moment: [D]
     X:    -0.4535      Y:    -3.1351      Z:     0.4592     Total:     3.2009

*** Psi4 exiting successfully. Buy a developer a beer!
