                               Psi4 1.3.2 release

  ==> Input File <==

--------------------------------------------------------------------------
#psi4
#
memory 32 gb

molecule  {
0 1
  O        0.3109550    -0.6942360     1.0654250
  N       -0.6879410     0.7799218    -0.3378897
  C       -2.0331630     0.4428770     0.0915860
  C        1.7355170     0.5659250    -0.4538020
  C        0.4068390     0.1581200     0.1784230
  C       -2.5721020    -0.8329900    -0.5555930
  C        2.8806560    -0.3237650     0.0245060
  H       -1.9817026     0.3268426     1.1817101
  H       -2.6829100     1.2983230    -0.1207890
  H        1.6432190     0.5393270    -1.5482860
  H        1.9198310     1.6196100    -0.1921910
  H       -0.5759590     1.3845000    -1.1569370
  H       -2.6081430    -0.7287990    -1.6478990
  H       -1.9207320    -1.6762470    -0.2982990
  H       -3.5840310    -1.0569410    -0.1969260
  H        2.7105400    -1.3693420    -0.2530710
  H        3.8280690     0.0048160    -0.4188000
  H        2.9664850    -0.2871200     1.1156770
units angstrom
no_reorient  #important for SAPT in psi4, default
symmetry c1  #important for SAPT in psi4, default
}

set PROPERTIES_ORIGIN ["COM"]
properties('MP2/aug-cc-pvtz', properties = ['dipole'])
--------------------------------------------------------------------------

    Molecular point group: c1
  Charge       = 0
  Multiplicity = 1
  Basis Set: AUG-CC-PVTZ
    Blend: AUG-CC-PVTZ
  Basis Set: (AUG-CC-PVTZ AUX)
    Blend: AUG-CC-PVTZ-JKFIT

    Orbital Energies [Eh]
    ---------------------

    Doubly Occupied:

       1A    -20.512741     2A    -15.581883     3A    -11.344773
       4A    -11.262492     5A    -11.242408     6A    -11.215913
       7A    -11.215529     8A     -1.368812     9A     -1.225579
      10A     -1.054491    11A     -1.006789    12A     -0.894618
      13A     -0.836521    14A     -0.775145    15A     -0.692186
      16A     -0.648079    17A     -0.633985    18A     -0.605155
      19A     -0.587122    20A     -0.573615    21A     -0.535061
      22A     -0.514523    23A     -0.513382    24A     -0.510926
      25A     -0.495482    26A     -0.482426    27A     -0.418092
      28A     -0.386471

  @DF-RHF Final Energy:  -325.19821221805654

   => Energetics <=

    Nuclear Repulsion Energy =            313.8189129331883578
    One-Electron Energy =               -1063.7658508823283228
    Two-Electron Energy =                 424.7487257310834252
    Total Energy =                       -325.1982122180565398
  Basis Set: (AUG-CC-PVTZ AUX)
    Blend: AUG-CC-PVTZ-RI
    Molecular point group: c1

    Geometry (in Angstrom), charge = 0, multiplicity = 1:

       Center              X                  Y                   Z               Mass
    ------------   -----------------  -----------------  -----------------  -----------------
         O            0.310303981485    -0.694181202798     1.063764513735    15.994914619570
         N           -0.688592018515     0.779976597202    -0.339550186265    14.003074004430
         C           -2.033814018515     0.442931797202     0.089925513735    12.000000000000
         C            1.734865981485     0.565979797202    -0.455462486265    12.000000000000
         C            0.406187981485     0.158174797202     0.176762513735    12.000000000000
         C           -2.572753018515    -0.832935202798    -0.557253486265    12.000000000000
         C            2.880004981485    -0.323710202798     0.022845513735    12.000000000000
         H           -1.982353618515     0.326897397202     1.180049613735     1.007825032230
         H           -2.683561018515     1.298377797202    -0.122449486265     1.007825032230
         H            1.642567981485     0.539381797202    -1.549946486265     1.007825032230
         H            1.919179981485     1.619664797202    -0.193851486265     1.007825032230
         H           -0.576610018515     1.384554797202    -1.158597486265     1.007825032230
         H           -2.608794018515    -0.728744202798    -1.649559486265     1.007825032230
         H           -1.921383018515    -1.676192202798    -0.299959486265     1.007825032230
         H           -3.584682018515    -1.056886202798    -0.198586486265     1.007825032230
         H            2.709888981485    -1.369287202798    -0.254731486265     1.007825032230
         H            3.827417981485     0.004870797202    -0.420460486265     1.007825032230
         H            2.965833981485    -0.287065202798     1.114016513735     1.007825032230

  Basis Set: AUG-CC-PVTZ
    Blend: AUG-CC-PVTZ
  Basis Set: (AUG-CC-PVTZ AUX)
    Blend: AUG-CC-PVTZ-JKFIT
	 Reference Energy          =    -325.1982122180565398 [Eh]
	 Singles Energy            =      -0.0000000000000000 [Eh]
	 Same-Spin Energy          =      -0.3318701984532345 [Eh]
	 Opposite-Spin Energy      =      -1.1194558388815448 [Eh]
	 Correlation Energy        =      -1.4513260373347792 [Eh]
	 Total Energy              =    -326.6495382553912918 [Eh]

	 ================> DF-SCS-MP2 Energies <==================
	-----------------------------------------------------------
	 SCS Same-Spin Scale       =       0.3333333333333333 [-]
	 SCS Opposite-Spin Scale   =       1.2000000000000000 [-]
	 SCS Same-Spin Energy      =      -0.1106233994844115 [Eh]
	 SCS Opposite-Spin Energy  =      -1.3433470066578537 [Eh]
	 SCS Correlation Energy    =      -1.4539704061422651 [Eh]
	 SCS Total Energy          =    -326.6521826241988151 [Eh]
	-----------------------------------------------------------

  Dipole Moment: [D]
     X:    -0.7352      Y:     2.2526      Z:    -2.6117     Total:     3.5264

*** Psi4 exiting successfully. Buy a developer a beer!
