                               Psi4 1.3.2 release

  ==> Input File <==

--------------------------------------------------------------------------
#psi4
#
memory 32 gb

molecule  {
0 1
  O        0.3109550    -0.6942360     1.0654250
  N       -0.6919670     0.7804610    -0.3498900
  C       -2.0426573     0.4569098     0.0727457
  C        1.7355170     0.5659250    -0.4538020
  C        0.4068390     0.1581200     0.1784230
  C       -2.5721020    -0.8329900    -0.5555930
  C        2.8806560    -0.3237650     0.0245060
  H       -1.9910630     0.3248240     1.1818950
  H       -2.6829100     1.2983230    -0.1207890
  H        1.6432190     0.5393270    -1.5482860
  H        1.9198310     1.6196100    -0.1921910
  H       -0.5935696     1.3855571    -1.1584829
  H       -2.6081430    -0.7287990    -1.6478990
  H       -1.9207320    -1.6762470    -0.2982990
  H       -3.5840310    -1.0569410    -0.1969260
  H        2.7105400    -1.3693420    -0.2530710
  H        3.8280690     0.0048160    -0.4188000
  H        2.9664850    -0.2871200     1.1156770
units angstrom
no_reorient  #important for SAPT in psi4, default
symmetry c1  #important for SAPT in psi4, default
}

set PROPERTIES_ORIGIN ["COM"]
properties('MP2/aug-cc-pvtz', properties = ['dipole'])
--------------------------------------------------------------------------

    Molecular point group: c1
  Charge       = 0
  Multiplicity = 1
  Basis Set: AUG-CC-PVTZ
    Blend: AUG-CC-PVTZ
  Basis Set: (AUG-CC-PVTZ AUX)
    Blend: AUG-CC-PVTZ-JKFIT

    Orbital Energies [Eh]
    ---------------------

    Doubly Occupied:

       1A    -20.514516     2A    -15.581015     3A    -11.346833
       4A    -11.261829     5A    -11.242633     6A    -11.216101
       7A    -11.215064     8A     -1.368780     9A     -1.225067
      10A     -1.054431    11A     -1.006090    12A     -0.894701
      13A     -0.836382    14A     -0.776228    15A     -0.693332
      16A     -0.647659    17A     -0.633791    18A     -0.605977
      19A     -0.587050    20A     -0.572433    21A     -0.534669
      22A     -0.516367    23A     -0.514172    24A     -0.510850
      25A     -0.494942    26A     -0.480154    27A     -0.418886
      28A     -0.386216

  @DF-RHF Final Energy:  -325.19732360285349

   => Energetics <=

    Nuclear Repulsion Energy =            313.5410800090026555
    One-Electron Energy =               -1063.2044730207874181
    Two-Electron Energy =                 424.4660694089313324
    Total Energy =                       -325.1973236028534870
  Basis Set: (AUG-CC-PVTZ AUX)
    Blend: AUG-CC-PVTZ-RI
    Molecular point group: c1

    Geometry (in Angstrom), charge = 0, multiplicity = 1:

       Center              X                  Y                   Z               Mass
    ------------   -----------------  -----------------  -----------------  -----------------
         O            0.312257702152    -0.695912188147     1.067677062590    15.994914619570
         N           -0.690664297848     0.778784811853    -0.347637937410    14.003074004430
         C           -2.041354597848     0.455233611853     0.074997762590    12.000000000000
         C            1.736819702152     0.564248811853    -0.451549937410    12.000000000000
         C            0.408141702152     0.156443811853     0.180675062590    12.000000000000
         C           -2.570799297848    -0.834666188147    -0.553340937410    12.000000000000
         C            2.881958702152    -0.325441188147     0.026758062590    12.000000000000
         H           -1.989760297848     0.323147811853     1.184147062590     1.007825032230
         H           -2.681607297848     1.296646811853    -0.118536937410     1.007825032230
         H            1.644521702152     0.537650811853    -1.546033937410     1.007825032230
         H            1.921133702152     1.617933811853    -0.189938937410     1.007825032230
         H           -0.592266897848     1.383880911853    -1.156230837410     1.007825032230
         H           -2.606840297848    -0.730475188147    -1.645646937410     1.007825032230
         H           -1.919429297848    -1.677923188147    -0.296046937410     1.007825032230
         H           -3.582728297848    -1.058617188147    -0.194673937410     1.007825032230
         H            2.711842702152    -1.371018188147    -0.250818937410     1.007825032230
         H            3.829371702152     0.003139811853    -0.416547937410     1.007825032230
         H            2.967787702152    -0.288796188147     1.117929062590     1.007825032230

  Basis Set: AUG-CC-PVTZ
    Blend: AUG-CC-PVTZ
  Basis Set: (AUG-CC-PVTZ AUX)
    Blend: AUG-CC-PVTZ-JKFIT
	 Reference Energy          =    -325.1973236028534870 [Eh]
	 Singles Energy            =      -0.0000000000000000 [Eh]
	 Same-Spin Energy          =      -0.3318743899951571 [Eh]
	 Opposite-Spin Energy      =      -1.1195453826444433 [Eh]
	 Correlation Energy        =      -1.4514197726396003 [Eh]
	 Total Energy              =    -326.6487433754930976 [Eh]

	 ================> DF-SCS-MP2 Energies <==================
	-----------------------------------------------------------
	 SCS Same-Spin Scale       =       0.3333333333333333 [-]
	 SCS Opposite-Spin Scale   =       1.2000000000000000 [-]
	 SCS Same-Spin Energy      =      -0.1106247966650523 [Eh]
	 SCS Opposite-Spin Energy  =      -1.3434544591733319 [Eh]
	 SCS Correlation Energy    =      -1.4540792558383844 [Eh]
	 SCS Total Energy          =    -326.6514028586918812 [Eh]
	-----------------------------------------------------------

  Dipole Moment: [D]
     X:    -0.7134      Y:     2.2558      Z:    -2.5939     Total:     3.5109

*** Psi4 exiting successfully. Buy a developer a beer!
