                               Psi4 1.3.2 release

  ==> Input File <==

--------------------------------------------------------------------------
#psi4
#
memory 32 gb

molecule  {
0 1
  O        0.3109550    -0.6942360     1.0654250
  N       -0.6919670     0.7804610    -0.3498900
  C       -2.0515274     0.4771652     0.0591061
  C        1.7355170     0.5659250    -0.4538020
  C        0.4345306     0.1846600     0.1499320
  C       -2.5721020    -0.8329900    -0.5555930
  C        2.8806560    -0.3237650     0.0245060
  H       -1.9910630     0.3248240     1.1818950
  H       -2.6829100     1.2983230    -0.1207890
  H        1.6432190     0.5393270    -1.5482860
  H        1.9198310     1.6196100    -0.1921910
  H       -0.5759590     1.3845000    -1.1569370
  H       -2.6081430    -0.7287990    -1.6478990
  H       -1.9207320    -1.6762470    -0.2982990
  H       -3.5840310    -1.0569410    -0.1969260
  H        2.7105400    -1.3693420    -0.2530710
  H        3.8280690     0.0048160    -0.4188000
  H        2.9664850    -0.2871200     1.1156770
units angstrom
no_reorient  #important for SAPT in psi4, default
symmetry c1  #important for SAPT in psi4, default
}

set PROPERTIES_ORIGIN ["COM"]
properties('MP2/aug-cc-pvtz', properties = ['dipole'])
--------------------------------------------------------------------------

    Molecular point group: c1
  Charge       = 0
  Multiplicity = 1
  Basis Set: AUG-CC-PVTZ
    Blend: AUG-CC-PVTZ
  Basis Set: (AUG-CC-PVTZ AUX)
    Blend: AUG-CC-PVTZ-JKFIT

    Orbital Energies [Eh]
    ---------------------

    Doubly Occupied:

       1A    -20.508448     2A    -15.584329     3A    -11.349858
       4A    -11.263355     5A    -11.245208     6A    -11.218331
       7A    -11.215322     8A     -1.345634     9A     -1.220623
      10A     -1.063079    11A     -1.006860    12A     -0.900843
      13A     -0.841586    14A     -0.771366    15A     -0.696083
      16A     -0.649138    17A     -0.637732    18A     -0.603304
      19A     -0.581571    20A     -0.566988    21A     -0.535787
      22A     -0.517413    23A     -0.513462    24A     -0.512005
      25A     -0.494872    26A     -0.471643    27A     -0.418807
      28A     -0.382022

  @DF-RHF Final Energy:  -325.18792120661078

   => Energetics <=

    Nuclear Repulsion Energy =            313.0712555170413793
    One-Electron Energy =               -1062.2870106953891991
    Two-Electron Energy =                 424.0278339717369818
    Total Energy =                       -325.1879212066107812
  Basis Set: (AUG-CC-PVTZ AUX)
    Blend: AUG-CC-PVTZ-RI
    Molecular point group: c1

    Geometry (in Angstrom), charge = 0, multiplicity = 1:

       Center              X                  Y                   Z               Mass
    ------------   -----------------  -----------------  -----------------  -----------------
         O            0.309847763395    -0.701456874481     1.072663102758    15.994914619570
         N           -0.693074236605     0.773240125519    -0.342651897242    14.003074004430
         C           -2.052634636605     0.469944325519     0.066344202758    12.000000000000
         C            1.734409763395     0.558704125519    -0.446563897242    12.000000000000
         C            0.433423363395     0.177439125519     0.157170102758    12.000000000000
         C           -2.573209236605    -0.840210874481    -0.548354897242    12.000000000000
         C            2.879548763395    -0.330985874481     0.031744102758    12.000000000000
         H           -1.992170236605     0.317603125519     1.189133102758     1.007825032230
         H           -2.684017236605     1.291102125519    -0.113550897242     1.007825032230
         H            1.642111763395     0.532106125519    -1.541047897242     1.007825032230
         H            1.918723763395     1.612389125519    -0.184952897242     1.007825032230
         H           -0.577066236605     1.377279125519    -1.149698897242     1.007825032230
         H           -2.609250236605    -0.736019874481    -1.640660897242     1.007825032230
         H           -1.921839236605    -1.683467874481    -0.291060897242     1.007825032230
         H           -3.585138236605    -1.064161874481    -0.189687897242     1.007825032230
         H            2.709432763395    -1.376562874481    -0.245832897242     1.007825032230
         H            3.826961763395    -0.002404874481    -0.411561897242     1.007825032230
         H            2.965377763395    -0.294340874481     1.122915102758     1.007825032230

  Basis Set: AUG-CC-PVTZ
    Blend: AUG-CC-PVTZ
  Basis Set: (AUG-CC-PVTZ AUX)
    Blend: AUG-CC-PVTZ-JKFIT
	 Reference Energy          =    -325.1879212066107812 [Eh]
	 Singles Energy            =      -0.0000000000000000 [Eh]
	 Same-Spin Energy          =      -0.3330046994331760 [Eh]
	 Opposite-Spin Energy      =      -1.1218059488838406 [Eh]
	 Correlation Energy        =      -1.4548106483170165 [Eh]
	 Total Energy              =    -326.6427318549277743 [Eh]

	 ================> DF-SCS-MP2 Energies <==================
	-----------------------------------------------------------
	 SCS Same-Spin Scale       =       0.3333333333333333 [-]
	 SCS Opposite-Spin Scale   =       1.2000000000000000 [-]
	 SCS Same-Spin Energy      =      -0.1110015664777253 [Eh]
	 SCS Opposite-Spin Energy  =      -1.3461671386606087 [Eh]
	 SCS Correlation Energy    =      -1.4571687051383340 [Eh]
	 SCS Total Energy          =    -326.6450899117490962 [Eh]
	-----------------------------------------------------------

  Dipole Moment: [D]
     X:    -0.6189      Y:     2.3953      Z:    -2.7449     Total:     3.6952

*** Psi4 exiting successfully. Buy a developer a beer!
