                               Psi4 1.3.2 release

  ==> Input File <==

--------------------------------------------------------------------------
#psi4
#
memory 32 gb

molecule  {
0 1
  O        0.3109550    -0.6942360     1.0654250
  N       -0.7090892     0.7823605    -0.3975460
  C       -2.0331630     0.4428770     0.0915860
  C        1.7355170     0.5659250    -0.4538020
  C        0.4068390     0.1581200     0.1784230
  C       -2.5721020    -0.8329900    -0.5555930
  C        2.8806560    -0.3237650     0.0245060
  H       -2.0285295     0.3168410     1.1818044
  H       -2.6829100     1.2983230    -0.1207890
  H        1.6432190     0.5393270    -1.5482860
  H        1.9198310     1.6196100    -0.1921910
  H       -0.5759590     1.3845000    -1.1569370
  H       -2.6081430    -0.7287990    -1.6478990
  H       -1.9207320    -1.6762470    -0.2982990
  H       -3.5840310    -1.0569410    -0.1969260
  H        2.7105400    -1.3693420    -0.2530710
  H        3.8280690     0.0048160    -0.4188000
  H        2.9664850    -0.2871200     1.1156770
units angstrom
no_reorient  #important for SAPT in psi4, default
symmetry c1  #important for SAPT in psi4, default
}

set PROPERTIES_ORIGIN ["COM"]
properties('MP2/aug-cc-pvtz', properties = ['dipole'])
--------------------------------------------------------------------------

    Molecular point group: c1
  Charge       = 0
  Multiplicity = 1
  Basis Set: AUG-CC-PVTZ
    Blend: AUG-CC-PVTZ
  Basis Set: (AUG-CC-PVTZ AUX)
    Blend: AUG-CC-PVTZ-JKFIT

    Orbital Energies [Eh]
    ---------------------

    Doubly Occupied:

       1A    -20.520674     2A    -15.577254     3A    -11.351288
       4A    -11.261090     5A    -11.243497     6A    -11.217010
       7A    -11.212828     8A     -1.369559     9A     -1.223068
      10A     -1.054604    11A     -1.004439    12A     -0.892899
      13A     -0.835000    14A     -0.779772    15A     -0.693088
      16A     -0.650441    17A     -0.633594    18A     -0.605216
      19A     -0.588391    20A     -0.572353    21A     -0.533959
      22A     -0.516265    23A     -0.513847    24A     -0.512516
      25A     -0.494006    26A     -0.481670    27A     -0.420161
      28A     -0.386316

  @DF-RHF Final Energy:  -325.19536312132959

   => Energetics <=

    Nuclear Repulsion Energy =            313.0998217262572325
    One-Electron Energy =               -1062.3007604640581576
    Two-Electron Energy =                 424.0055756164713330
    Total Energy =                       -325.1953631213295921
  Basis Set: (AUG-CC-PVTZ AUX)
    Blend: AUG-CC-PVTZ-RI
    Molecular point group: c1

    Geometry (in Angstrom), charge = 0, multiplicity = 1:

       Center              X                  Y                   Z               Mass
    ------------   -----------------  -----------------  -----------------  -----------------
         O            0.313700492450    -0.694419315838     1.072027700957    15.994914619570
         N           -0.706343707550     0.782177184162    -0.390943299043    14.003074004430
         C           -2.030417507550     0.442693684162     0.098188700957    12.000000000000
         C            1.738262492450     0.565741684162    -0.447199299043    12.000000000000
         C            0.409584492450     0.157936684162     0.185025700957    12.000000000000
         C           -2.569356507550    -0.833173315838    -0.548990299043    12.000000000000
         C            2.883401492450    -0.323948315838     0.031108700957    12.000000000000
         H           -2.025784007550     0.316657684162     1.188407100957     1.007825032230
         H           -2.680164507550     1.298139684162    -0.114186299043     1.007825032230
         H            1.645964492450     0.539143684162    -1.541683299043     1.007825032230
         H            1.922576492450     1.619426684162    -0.185588299043     1.007825032230
         H           -0.573213507550     1.384316684162    -1.150334299043     1.007825032230
         H           -2.605397507550    -0.728982315838    -1.641296299043     1.007825032230
         H           -1.917986507550    -1.676430315838    -0.291696299043     1.007825032230
         H           -3.581285507550    -1.057124315838    -0.190323299043     1.007825032230
         H            2.713285492450    -1.369525315838    -0.246468299043     1.007825032230
         H            3.830814492450     0.004632684162    -0.412197299043     1.007825032230
         H            2.969230492450    -0.287303315838     1.122279700957     1.007825032230

  Basis Set: AUG-CC-PVTZ
    Blend: AUG-CC-PVTZ
  Basis Set: (AUG-CC-PVTZ AUX)
    Blend: AUG-CC-PVTZ-JKFIT
	 Reference Energy          =    -325.1953631213295921 [Eh]
	 Singles Energy            =      -0.0000000000000000 [Eh]
	 Same-Spin Energy          =      -0.3317751979363449 [Eh]
	 Opposite-Spin Energy      =      -1.1196083408781283 [Eh]
	 Correlation Energy        =      -1.4513835388144734 [Eh]
	 Total Energy              =    -326.6467466601440606 [Eh]

	 ================> DF-SCS-MP2 Energies <==================
	-----------------------------------------------------------
	 SCS Same-Spin Scale       =       0.3333333333333333 [-]
	 SCS Opposite-Spin Scale   =       1.2000000000000000 [-]
	 SCS Same-Spin Energy      =      -0.1105917326454483 [Eh]
	 SCS Opposite-Spin Energy  =      -1.3435300090537539 [Eh]
	 SCS Correlation Energy    =      -1.4541217416992023 [Eh]
	 SCS Total Energy          =    -326.6494848630288175 [Eh]
	-----------------------------------------------------------

  Dipole Moment: [D]
     X:    -0.5560      Y:     2.2117      Z:    -2.4451     Total:     3.3436

*** Psi4 exiting successfully. Buy a developer a beer!
