                               Psi4 1.3.2 release

  ==> Input File <==

--------------------------------------------------------------------------
#psi4
#
memory 32 gb

molecule  {
0 1
  O        0.3109550    -0.6942360     1.0654250
  N       -0.6919670     0.7804610    -0.3498900
  C       -2.0331630     0.4428770     0.0915860
  C        1.7355170     0.5659250    -0.4538020
  C        0.4466681     0.1896604     0.1278781
  C       -2.5721020    -0.8329900    -0.5555930
  C        2.8806560    -0.3237650     0.0245060
  H       -1.9910630     0.3248240     1.1818950
  H       -2.6829100     1.2983230    -0.1207890
  H        1.6432190     0.5393270    -1.5482860
  H        1.9198310     1.6196100    -0.1921910
  H       -0.5239719     1.3736206    -1.1558584
  H       -2.6081430    -0.7287990    -1.6478990
  H       -1.9207320    -1.6762470    -0.2982990
  H       -3.5840310    -1.0569410    -0.1969260
  H        2.7105400    -1.3693420    -0.2530710
  H        3.8280690     0.0048160    -0.4188000
  H        2.9664850    -0.2871200     1.1156770
units angstrom
no_reorient  #important for SAPT in psi4, default
symmetry c1  #important for SAPT in psi4, default
}

set PROPERTIES_ORIGIN ["COM"]
properties('MP2/aug-cc-pvtz', properties = ['dipole'])
--------------------------------------------------------------------------

    Molecular point group: c1
  Charge       = 0
  Multiplicity = 1
  Basis Set: AUG-CC-PVTZ
    Blend: AUG-CC-PVTZ
  Basis Set: (AUG-CC-PVTZ AUX)
    Blend: AUG-CC-PVTZ-JKFIT

    Orbital Energies [Eh]
    ---------------------

    Doubly Occupied:

       1A    -20.504843     2A    -15.585743     3A    -11.349298
       4A    -11.265141     5A    -11.246197     6A    -11.219470
       7A    -11.214999     8A     -1.336019     9A     -1.217741
      10A     -1.067951    11A     -1.009391    12A     -0.903212
      13A     -0.842186    14A     -0.768549    15A     -0.694723
      16A     -0.651006    17A     -0.640126    18A     -0.601908
      19A     -0.580524    20A     -0.566615    21A     -0.536712
      22A     -0.515244    23A     -0.513449    24A     -0.511632
      25A     -0.494187    26A     -0.472813    27A     -0.416826
      28A     -0.381050

  @DF-RHF Final Energy:  -325.18531477131137

   => Energetics <=

    Nuclear Repulsion Energy =            313.2980460008058685
    One-Electron Energy =               -1062.7516141268324645
    Two-Electron Energy =                 424.2682533547151706
    Total Energy =                       -325.1853147713113685
  Basis Set: (AUG-CC-PVTZ AUX)
    Blend: AUG-CC-PVTZ-RI
    Molecular point group: c1

    Geometry (in Angstrom), charge = 0, multiplicity = 1:

       Center              X                  Y                   Z               Mass
    ------------   -----------------  -----------------  -----------------  -----------------
         O            0.305708468987    -0.697871560264     1.071414646422    15.994914619570
         N           -0.697213531013     0.776825439736    -0.343900353578    14.003074004430
         C           -2.038409531013     0.439241439736     0.097575646422    12.000000000000
         C            1.730270468987     0.562289439736    -0.447812353578    12.000000000000
         C            0.441421568987     0.186024839736     0.133867746422    12.000000000000
         C           -2.577348531013    -0.836625560264    -0.549603353578    12.000000000000
         C            2.875409468987    -0.327400560264     0.030495646422    12.000000000000
         H           -1.996309531013     0.321188439736     1.187884646422     1.007825032230
         H           -2.688156531013     1.294687439736    -0.114799353578     1.007825032230
         H            1.637972468987     0.535691439736    -1.542296353578     1.007825032230
         H            1.914584468987     1.615974439736    -0.186201353578     1.007825032230
         H           -0.529218431013     1.369985039736    -1.149868753578     1.007825032230
         H           -2.613389531013    -0.732434560264    -1.641909353578     1.007825032230
         H           -1.925978531013    -1.679882560264    -0.292309353578     1.007825032230
         H           -3.589277531013    -1.060576560264    -0.190936353578     1.007825032230
         H            2.705293468987    -1.372977560264    -0.247081353578     1.007825032230
         H            3.822822468987     0.001180439736    -0.412810353578     1.007825032230
         H            2.961238468987    -0.290755560264     1.121666646422     1.007825032230

  Basis Set: AUG-CC-PVTZ
    Blend: AUG-CC-PVTZ
  Basis Set: (AUG-CC-PVTZ AUX)
    Blend: AUG-CC-PVTZ-JKFIT
	 Reference Energy          =    -325.1853147713113685 [Eh]
	 Singles Energy            =      -0.0000000000000000 [Eh]
	 Same-Spin Energy          =      -0.3335823578863345 [Eh]
	 Opposite-Spin Energy      =      -1.1227467755474811 [Eh]
	 Correlation Energy        =      -1.4563291334338158 [Eh]
	 Total Energy              =    -326.6416439047451945 [Eh]

	 ================> DF-SCS-MP2 Energies <==================
	-----------------------------------------------------------
	 SCS Same-Spin Scale       =       0.3333333333333333 [-]
	 SCS Opposite-Spin Scale   =       1.2000000000000000 [-]
	 SCS Same-Spin Energy      =      -0.1111941192954448 [Eh]
	 SCS Opposite-Spin Energy  =      -1.3472961306569773 [Eh]
	 SCS Correlation Energy    =      -1.4584902499524222 [Eh]
	 SCS Total Energy          =    -326.6438050212638018 [Eh]
	-----------------------------------------------------------

  Dipole Moment: [D]
     X:    -0.5542      Y:     2.4056      Z:    -2.7943     Total:     3.7286

*** Psi4 exiting successfully. Buy a developer a beer!
