                               Psi4 1.3.2 release

  ==> Input File <==

--------------------------------------------------------------------------
#psi4
#
memory 32 gb

molecule  {
0 1
  O        0.3109550    -0.6942360     1.0654250
  N       -0.6919670     0.7804610    -0.3498900
  C       -2.0282624     0.4358989     0.1009561
  C        1.7355170     0.5659250    -0.4538020
  C        0.4068390     0.1581200     0.1784230
  C       -2.5721020    -0.8329900    -0.5555930
  C        2.8806560    -0.3237650     0.0245060
  H       -1.9910630     0.3248240     1.1818950
  H       -2.6829100     1.2983230    -0.1207890
  H        1.6432190     0.5393270    -1.5482860
  H        1.9198310     1.6196100    -0.1921910
  H       -0.5671666     1.3839024    -1.1560718
  H       -2.6081430    -0.7287990    -1.6478990
  H       -1.9207320    -1.6762470    -0.2982990
  H       -3.5840310    -1.0569410    -0.1969260
  H        2.7105400    -1.3693420    -0.2530710
  H        3.8280690     0.0048160    -0.4188000
  H        2.9664850    -0.2871200     1.1156770
units angstrom
no_reorient  #important for SAPT in psi4, default
symmetry c1  #important for SAPT in psi4, default
}

set PROPERTIES_ORIGIN ["COM"]
properties('MP2/aug-cc-pvtz', properties = ['dipole'])
--------------------------------------------------------------------------

    Molecular point group: c1
  Charge       = 0
  Multiplicity = 1
  Basis Set: AUG-CC-PVTZ
    Blend: AUG-CC-PVTZ
  Basis Set: (AUG-CC-PVTZ AUX)
    Blend: AUG-CC-PVTZ-JKFIT

    Orbital Energies [Eh]
    ---------------------

    Doubly Occupied:

       1A    -20.514203     2A    -15.580965     3A    -11.345705
       4A    -11.262438     5A    -11.242596     6A    -11.216137
       7A    -11.214995     8A     -1.368897     9A     -1.225107
      10A     -1.054527    11A     -1.006353    12A     -0.894008
      13A     -0.836068    14A     -0.776406    15A     -0.691851
      16A     -0.649174    17A     -0.633977    18A     -0.604318
      19A     -0.587366    20A     -0.574303    21A     -0.534928
      22A     -0.514609    23A     -0.512961    24A     -0.511775
      25A     -0.494781    26A     -0.483183    27A     -0.418402
      28A     -0.386518

  @DF-RHF Final Energy:  -325.19831768390713

   => Energetics <=

    Nuclear Repulsion Energy =            313.7431839626599412
    One-Electron Energy =               -1063.6098975464230989
    Two-Electron Energy =                 424.6683958998560229
    Total Energy =                       -325.1983176839071348
  Basis Set: (AUG-CC-PVTZ AUX)
    Blend: AUG-CC-PVTZ-RI
    Molecular point group: c1

    Geometry (in Angstrom), charge = 0, multiplicity = 1:

       Center              X                  Y                   Z               Mass
    ------------   -----------------  -----------------  -----------------  -----------------
         O            0.310285596990    -0.693401421978     1.064304080208    15.994914619570
         N           -0.692636403010     0.781295578022    -0.351010919792    14.003074004430
         C           -2.028931803010     0.436733478022     0.099835180208    12.000000000000
         C            1.734847596990     0.566759578022    -0.454922919792    12.000000000000
         C            0.406169596990     0.158954578022     0.177302080208    12.000000000000
         C           -2.572771403010    -0.832155421978    -0.556713919792    12.000000000000
         C            2.879986596990    -0.322930421978     0.023385080208    12.000000000000
         H           -1.991732403010     0.325658578022     1.180774080208     1.007825032230
         H           -2.683579403010     1.299157578022    -0.121909919792     1.007825032230
         H            1.642549596990     0.540161578022    -1.549406919792     1.007825032230
         H            1.919161596990     1.620444578022    -0.193311919792     1.007825032230
         H           -0.567836003010     1.384736978022    -1.157192719792     1.007825032230
         H           -2.608812403010    -0.727964421978    -1.649019919792     1.007825032230
         H           -1.921401403010    -1.675412421978    -0.299419919792     1.007825032230
         H           -3.584700403010    -1.056106421978    -0.198046919792     1.007825032230
         H            2.709870596990    -1.368507421978    -0.254191919792     1.007825032230
         H            3.827399596990     0.005650578022    -0.419920919792     1.007825032230
         H            2.965815596990    -0.286285421978     1.114556080208     1.007825032230

  Basis Set: AUG-CC-PVTZ
    Blend: AUG-CC-PVTZ
  Basis Set: (AUG-CC-PVTZ AUX)
    Blend: AUG-CC-PVTZ-JKFIT
	 Reference Energy          =    -325.1983176839071348 [Eh]
	 Singles Energy            =      -0.0000000000000000 [Eh]
	 Same-Spin Energy          =      -0.3318269464514689 [Eh]
	 Opposite-Spin Energy      =      -1.1194205595464923 [Eh]
	 Correlation Energy        =      -1.4512475059979613 [Eh]
	 Total Energy              =    -326.6495651899051040 [Eh]

	 ================> DF-SCS-MP2 Energies <==================
	-----------------------------------------------------------
	 SCS Same-Spin Scale       =       0.3333333333333333 [-]
	 SCS Opposite-Spin Scale   =       1.2000000000000000 [-]
	 SCS Same-Spin Energy      =      -0.1106089821504896 [Eh]
	 SCS Opposite-Spin Energy  =      -1.3433046714557908 [Eh]
	 SCS Correlation Energy    =      -1.4539136536062804 [Eh]
	 SCS Total Energy          =    -326.6522313375133990 [Eh]
	-----------------------------------------------------------

  Dipole Moment: [D]
     X:    -0.6938      Y:     2.2392      Z:    -2.5735     Total:     3.4811

*** Psi4 exiting successfully. Buy a developer a beer!
