                               Psi4 1.3.2 release

  ==> Input File <==

--------------------------------------------------------------------------
#psi4
#
memory 32 gb

molecule  {
0 1
  O        0.3109550    -0.6942360     1.0654250
  N       -0.6919670     0.7804610    -0.3498900
  C       -2.0331630     0.4428770     0.0915860
  C        1.7355170     0.5659250    -0.4538020
  C        0.2328020     0.1047036     0.2612350
  C       -2.5721020    -0.8329900    -0.5555930
  C        2.8806560    -0.3237650     0.0245060
  H       -1.9910630     0.3248240     1.1818950
  H       -2.6829100     1.2983230    -0.1207890
  H        1.6432190     0.5393270    -1.5482860
  H        1.9198310     1.6196100    -0.1921910
  H       -0.5759590     1.3845000    -1.1569370
  H       -2.6081430    -0.7287990    -1.6478990
  H       -1.9207320    -1.6762470    -0.2982990
  H       -3.5840310    -1.0569410    -0.1969260
  H        2.7105400    -1.3693420    -0.2530710
  H        3.8280690     0.0048160    -0.4188000
  H        2.9664850    -0.2871200     1.1156770
units angstrom
no_reorient  #important for SAPT in psi4, default
symmetry c1  #important for SAPT in psi4, default
}

set PROPERTIES_ORIGIN ["COM"]
properties('MP2/aug-cc-pvtz', properties = ['dipole'])
--------------------------------------------------------------------------

    Molecular point group: c1
  Charge       = 0
  Multiplicity = 1
  Basis Set: AUG-CC-PVTZ
    Blend: AUG-CC-PVTZ
  Basis Set: (AUG-CC-PVTZ AUX)
    Blend: AUG-CC-PVTZ-JKFIT

    Orbital Energies [Eh]
    ---------------------

    Doubly Occupied:

       1A    -20.526380     2A    -15.588351     3A    -11.339680
       4A    -11.267188     5A    -11.222307     6A    -11.220954
       7A    -11.203201     8A     -1.436623     9A     -1.265059
      10A     -1.031605    11A     -1.001663    12A     -0.882332
      13A     -0.821351    14A     -0.810943    15A     -0.689861
      16A     -0.666049    17A     -0.634125    18A     -0.608890
      19A     -0.602542    20A     -0.579475    21A     -0.545161
      22A     -0.527716    23A     -0.517968    24A     -0.501335
      25A     -0.497795    26A     -0.478914    27A     -0.407547
      28A     -0.371275

  @DF-RHF Final Energy:  -325.16042144092080

   => Energetics <=

    Nuclear Repulsion Energy =            315.1250051617651025
    One-Electron Energy =               -1066.0782664852761172
    Two-Electron Energy =                 425.7928398825902150
    Total Energy =                       -325.1604214409207998
  Basis Set: (AUG-CC-PVTZ AUX)
    Blend: AUG-CC-PVTZ-RI
    Molecular point group: c1

    Geometry (in Angstrom), charge = 0, multiplicity = 1:

       Center              X                  Y                   Z               Mass
    ------------   -----------------  -----------------  -----------------  -----------------
         O            0.331615491297    -0.687894546790     1.055594192664    15.994914619570
         N           -0.671306508703     0.786802453210    -0.359720807336    14.003074004430
         C           -2.012502508703     0.449218453210     0.081755192664    12.000000000000
         C            1.756177491297     0.572266453210    -0.463632807336    12.000000000000
         C            0.253462491297     0.111045053210     0.251404192664    12.000000000000
         C           -2.551441508703    -0.826648546790    -0.565423807336    12.000000000000
         C            2.901316491297    -0.317423546790     0.014675192664    12.000000000000
         H           -1.970402508703     0.331165453210     1.172064192664     1.007825032230
         H           -2.662249508703     1.304664453210    -0.130619807336     1.007825032230
         H            1.663879491297     0.545668453210    -1.558116807336     1.007825032230
         H            1.940491491297     1.625951453210    -0.202021807336     1.007825032230
         H           -0.555298508703     1.390841453210    -1.166767807336     1.007825032230
         H           -2.587482508703    -0.722457546790    -1.657729807336     1.007825032230
         H           -1.900071508703    -1.669905546790    -0.308129807336     1.007825032230
         H           -3.563370508703    -1.050599546790    -0.206756807336     1.007825032230
         H            2.731200491297    -1.363000546790    -0.262901807336     1.007825032230
         H            3.848729491297     0.011157453210    -0.428630807336     1.007825032230
         H            2.987145491297    -0.280778546790     1.105846192664     1.007825032230

  Basis Set: AUG-CC-PVTZ
    Blend: AUG-CC-PVTZ
  Basis Set: (AUG-CC-PVTZ AUX)
    Blend: AUG-CC-PVTZ-JKFIT
	 Reference Energy          =    -325.1604214409207998 [Eh]
	 Singles Energy            =      -0.0000000000000000 [Eh]
	 Same-Spin Energy          =      -0.3308689626698759 [Eh]
	 Opposite-Spin Energy      =      -1.1172629911030791 [Eh]
	 Correlation Energy        =      -1.4481319537729549 [Eh]
	 Total Energy              =    -326.6085533946937289 [Eh]

	 ================> DF-SCS-MP2 Energies <==================
	-----------------------------------------------------------
	 SCS Same-Spin Scale       =       0.3333333333333333 [-]
	 SCS Opposite-Spin Scale   =       1.2000000000000000 [-]
	 SCS Same-Spin Energy      =      -0.1102896542232920 [Eh]
	 SCS Opposite-Spin Energy  =      -1.3407155893236948 [Eh]
	 SCS Correlation Energy    =      -1.4510052435469869 [Eh]
	 SCS Total Energy          =    -326.6114266844678014 [Eh]
	-----------------------------------------------------------

  Dipole Moment: [D]
     X:    -1.8599      Y:     1.9738      Z:    -2.1847     Total:     3.4826

*** Psi4 exiting successfully. Buy a developer a beer!
