                               Psi4 1.3.2 release

  ==> Input File <==

--------------------------------------------------------------------------
#psi4
#
memory 32 gb

molecule  {
0 1
  O        0.3109550    -0.6942360     1.0654250
  N       -0.6919670     0.7804610    -0.3498900
  C       -2.0331630     0.4428770     0.0915860
  C        1.7355170     0.5659250    -0.4538020
  C        0.3786060     0.1380356     0.2113235
  C       -2.5721020    -0.8329900    -0.5555930
  C        2.8806560    -0.3237650     0.0245060
  H       -1.9910630     0.3248240     1.1818950
  H       -2.6829100     1.2983230    -0.1207890
  H        1.6432190     0.5393270    -1.5482860
  H        1.9198310     1.6196100    -0.1921910
  H       -0.6108026     1.3908348    -1.1564270
  H       -2.6081430    -0.7287990    -1.6478990
  H       -1.9207320    -1.6762470    -0.2982990
  H       -3.5840310    -1.0569410    -0.1969260
  H        2.7105400    -1.3693420    -0.2530710
  H        3.8280690     0.0048160    -0.4188000
  H        2.9664850    -0.2871200     1.1156770
units angstrom
no_reorient  #important for SAPT in psi4, default
symmetry c1  #important for SAPT in psi4, default
}

set PROPERTIES_ORIGIN ["COM"]
properties('MP2/aug-cc-pvtz', properties = ['dipole'])
--------------------------------------------------------------------------

    Molecular point group: c1
  Charge       = 0
  Multiplicity = 1
  Basis Set: AUG-CC-PVTZ
    Blend: AUG-CC-PVTZ
  Basis Set: (AUG-CC-PVTZ AUX)
    Blend: AUG-CC-PVTZ-JKFIT

    Orbital Energies [Eh]
    ---------------------

    Doubly Occupied:

       1A    -20.520557     2A    -15.578320     3A    -11.344211
       4A    -11.260488     5A    -11.239168     6A    -11.215175
       7A    -11.213768     8A     -1.394626     9A     -1.228342
      10A     -1.046276    11A     -1.004358    12A     -0.888627
      13A     -0.832049    14A     -0.781691    15A     -0.692053
      16A     -0.649619    17A     -0.631243    18A     -0.608857
      19A     -0.591856    20A     -0.575206    21A     -0.535398
      22A     -0.517871    23A     -0.515542    24A     -0.509399
      25A     -0.495006    26A     -0.486036    27A     -0.414409
      28A     -0.389190

  @DF-RHF Final Energy:  -325.19761872819589

   => Energetics <=

    Nuclear Repulsion Energy =            313.9771715094117894
    One-Electron Energy =               -1064.0308967913895231
    Two-Electron Energy =                 424.8561065537817854
    Total Energy =                       -325.1976187281958914
  Basis Set: (AUG-CC-PVTZ AUX)
    Blend: AUG-CC-PVTZ-RI
    Molecular point group: c1

    Geometry (in Angstrom), charge = 0, multiplicity = 1:

       Center              X                  Y                   Z               Mass
    ------------   -----------------  -----------------  -----------------  -----------------
         O            0.314654046731    -0.691914650000     1.061514255487    15.994914619570
         N           -0.688267953269     0.782782350000    -0.353800744513    14.003074004430
         C           -2.029463953269     0.445198350000     0.087675255487    12.000000000000
         C            1.739216046731     0.568246350000    -0.457712744513    12.000000000000
         C            0.382305046731     0.140356950000     0.207412755487    12.000000000000
         C           -2.568402953269    -0.830668650000    -0.559503744513    12.000000000000
         C            2.884355046731    -0.321443650000     0.020595255487    12.000000000000
         H           -1.987363953269     0.327145350000     1.177984255487     1.007825032230
         H           -2.679210953269     1.300644350000    -0.124699744513     1.007825032230
         H            1.646918046731     0.541648350000    -1.552196744513     1.007825032230
         H            1.923530046731     1.621931350000    -0.196101744513     1.007825032230
         H           -0.607103553269     1.393156150000    -1.160337744513     1.007825032230
         H           -2.604443953269    -0.726477650000    -1.651809744513     1.007825032230
         H           -1.917032953269    -1.673925650000    -0.302209744513     1.007825032230
         H           -3.580331953269    -1.054619650000    -0.200836744513     1.007825032230
         H            2.714239046731    -1.367020650000    -0.256981744513     1.007825032230
         H            3.831768046731     0.007137350000    -0.422710744513     1.007825032230
         H            2.970184046731    -0.284798650000     1.111766255487     1.007825032230

  Basis Set: AUG-CC-PVTZ
    Blend: AUG-CC-PVTZ
  Basis Set: (AUG-CC-PVTZ AUX)
    Blend: AUG-CC-PVTZ-JKFIT
	 Reference Energy          =    -325.1976187281958914 [Eh]
	 Singles Energy            =      -0.0000000000000000 [Eh]
	 Same-Spin Energy          =      -0.3309699485729907 [Eh]
	 Opposite-Spin Energy      =      -1.1177904238504892 [Eh]
	 Correlation Energy        =      -1.4487603724234799 [Eh]
	 Total Energy              =    -326.6463791006193560 [Eh]

	 ================> DF-SCS-MP2 Energies <==================
	-----------------------------------------------------------
	 SCS Same-Spin Scale       =       0.3333333333333333 [-]
	 SCS Opposite-Spin Scale   =       1.2000000000000000 [-]
	 SCS Same-Spin Energy      =      -0.1103233161909969 [Eh]
	 SCS Opposite-Spin Energy  =      -1.3413485086205870 [Eh]
	 SCS Correlation Energy    =      -1.4516718248115839 [Eh]
	 SCS Total Energy          =    -326.6492905530074609 [Eh]
	-----------------------------------------------------------

  Dipole Moment: [D]
     X:    -0.8275      Y:     2.1278      Z:    -2.4223     Total:     3.3287

*** Psi4 exiting successfully. Buy a developer a beer!
