                               Psi4 1.3.2 release

  ==> Input File <==

--------------------------------------------------------------------------
#psi4
#
memory 32 gb

molecule  {
0 1
  O        0.3109550    -0.6942360     1.0654250
  N       -0.6919670     0.7804610    -0.3498900
  C       -2.0331630     0.4428770     0.0915860
  C        1.7355170     0.5659250    -0.4538020
  C        0.4403290     0.1682655     0.2502957
  C       -2.5721020    -0.8329900    -0.5555930
  C        2.8806560    -0.3237650     0.0245060
  H       -1.9910630     0.3248240     1.1818950
  H       -2.6829100     1.2983230    -0.1207890
  H        1.6981142     0.5561414    -1.5518124
  H        1.9198310     1.6196100    -0.1921910
  H       -0.5759590     1.3845000    -1.1569370
  H       -2.6081430    -0.7287990    -1.6478990
  H       -1.9207320    -1.6762470    -0.2982990
  H       -3.5840310    -1.0569410    -0.1969260
  H        2.7105400    -1.3693420    -0.2530710
  H        3.8280690     0.0048160    -0.4188000
  H        2.9664850    -0.2871200     1.1156770
units angstrom
no_reorient  #important for SAPT in psi4, default
symmetry c1  #important for SAPT in psi4, default
}

set PROPERTIES_ORIGIN ["COM"]
properties('MP2/aug-cc-pvtz', properties = ['dipole'])
--------------------------------------------------------------------------

    Molecular point group: c1
  Charge       = 0
  Multiplicity = 1
  Basis Set: AUG-CC-PVTZ
    Blend: AUG-CC-PVTZ
  Basis Set: (AUG-CC-PVTZ AUX)
    Blend: AUG-CC-PVTZ-JKFIT

    Orbital Energies [Eh]
    ---------------------

    Doubly Occupied:

       1A    -20.526950     2A    -15.570261     3A    -11.349383
       4A    -11.256987     5A    -11.242968     6A    -11.217128
       7A    -11.211511     8A     -1.397926     9A     -1.210374
      10A     -1.055268    11A     -0.999483    12A     -0.890614
      13A     -0.830325    14A     -0.767318    15A     -0.699047
      16A     -0.646109    17A     -0.632885    18A     -0.616441
      19A     -0.586501    20A     -0.570814    21A     -0.534934
      22A     -0.520736    23A     -0.516086    24A     -0.510020
      25A     -0.494688    26A     -0.484996    27A     -0.422518
      28A     -0.380872

  @DF-RHF Final Energy:  -325.19211713908243

   => Energetics <=

    Nuclear Repulsion Energy =            313.5101815421658102
    One-Electron Energy =               -1063.1183100366897634
    Two-Electron Energy =                 424.4160113554415261
    Total Energy =                       -325.1921171390824270
  Basis Set: (AUG-CC-PVTZ AUX)
    Blend: AUG-CC-PVTZ-RI
    Molecular point group: c1

    Geometry (in Angstrom), charge = 0, multiplicity = 1:

       Center              X                  Y                   Z               Mass
    ------------   -----------------  -----------------  -----------------  -----------------
         O            0.306432008793    -0.695607817731     1.056927989396    15.994914619570
         N           -0.696489991207     0.779089182269    -0.358387010604    14.003074004430
         C           -2.037685991207     0.441505182269     0.083088989396    12.000000000000
         C            1.730994008793     0.564553182269    -0.462299010604    12.000000000000
         C            0.435806008793     0.166893682269     0.241798689396    12.000000000000
         C           -2.576624991207    -0.834361817731    -0.564090010604    12.000000000000
         C            2.876133008793    -0.325136817731     0.016008989396    12.000000000000
         H           -1.995585991207     0.323452182269     1.173397989396     1.007825032230
         H           -2.687432991207     1.296951182269    -0.129286010604     1.007825032230
         H            1.693591208793     0.554769582269    -1.560309410604     1.007825032230
         H            1.915308008793     1.618238182269    -0.200688010604     1.007825032230
         H           -0.580481991207     1.383128182269    -1.165434010604     1.007825032230
         H           -2.612665991207    -0.730170817731    -1.656396010604     1.007825032230
         H           -1.925254991207    -1.677618817731    -0.306796010604     1.007825032230
         H           -3.588553991207    -1.058312817731    -0.205423010604     1.007825032230
         H            2.706017008793    -1.370713817731    -0.261568010604     1.007825032230
         H            3.823546008793     0.003444182269    -0.427297010604     1.007825032230
         H            2.961962008793    -0.288491817731     1.107179989396     1.007825032230

  Basis Set: AUG-CC-PVTZ
    Blend: AUG-CC-PVTZ
  Basis Set: (AUG-CC-PVTZ AUX)
    Blend: AUG-CC-PVTZ-JKFIT
	 Reference Energy          =    -325.1921171390824270 [Eh]
	 Singles Energy            =      -0.0000000000000000 [Eh]
	 Same-Spin Energy          =      -0.3313860385543451 [Eh]
	 Opposite-Spin Energy      =      -1.1187823264556891 [Eh]
	 Correlation Energy        =      -1.4501683650100343 [Eh]
	 Total Energy              =    -326.6422855040924560 [Eh]

	 ================> DF-SCS-MP2 Energies <==================
	-----------------------------------------------------------
	 SCS Same-Spin Scale       =       0.3333333333333333 [-]
	 SCS Opposite-Spin Scale   =       1.2000000000000000 [-]
	 SCS Same-Spin Energy      =      -0.1104620128514484 [Eh]
	 SCS Opposite-Spin Energy  =      -1.3425387917468268 [Eh]
	 SCS Correlation Energy    =      -1.4530008045982752 [Eh]
	 SCS Total Energy          =    -326.6451179436807024 [Eh]
	-----------------------------------------------------------

  Dipole Moment: [D]
     X:    -0.3551      Y:     2.0532      Z:    -2.3193     Total:     3.1178

*** Psi4 exiting successfully. Buy a developer a beer!
