                               Psi4 1.3.2 release

  ==> Input File <==

--------------------------------------------------------------------------
#psi4
#
memory 32 gb

molecule  {
0 1
  O        0.3109550    -0.6942360     1.0654250
  N       -0.6930874     0.7186080    -0.3940481
  C       -2.0331630     0.4428770     0.0915860
  C        1.7355170     0.5659250    -0.4538020
  C        0.4068390     0.1581200     0.1784230
  C       -2.5030375    -0.8393951    -0.5955303
  C        2.8806560    -0.3237650     0.0245060
  H       -1.9910630     0.3248240     1.1818950
  H       -2.6829100     1.2983230    -0.1207890
  H        1.6432190     0.5393270    -1.5482860
  H        1.9198310     1.6196100    -0.1921910
  H       -0.5759590     1.3845000    -1.1569370
  H       -2.6081430    -0.7287990    -1.6478990
  H       -1.9207320    -1.6762470    -0.2982990
  H       -3.5840310    -1.0569410    -0.1969260
  H        2.7105400    -1.3693420    -0.2530710
  H        3.8280690     0.0048160    -0.4188000
  H        2.9664850    -0.2871200     1.1156770
units angstrom
no_reorient  #important for SAPT in psi4, default
symmetry c1  #important for SAPT in psi4, default
}

set PROPERTIES_ORIGIN ["COM"]
properties('MP2/aug-cc-pvtz', properties = ['dipole'])
--------------------------------------------------------------------------

    Molecular point group: c1
  Charge       = 0
  Multiplicity = 1
  Basis Set: AUG-CC-PVTZ
    Blend: AUG-CC-PVTZ
  Basis Set: (AUG-CC-PVTZ AUX)
    Blend: AUG-CC-PVTZ-JKFIT

    Orbital Energies [Eh]
    ---------------------

    Doubly Occupied:

       1A    -20.512050     2A    -15.580291     3A    -11.344346
       4A    -11.263649     5A    -11.242109     6A    -11.215741
       7A    -11.214878     8A     -1.368513     9A     -1.226587
      10A     -1.054672    11A     -1.006085    12A     -0.892733
      13A     -0.837328    14A     -0.776910    15A     -0.693124
      16A     -0.650803    17A     -0.633723    18A     -0.610606
      19A     -0.588992    20A     -0.571251    21A     -0.527247
      22A     -0.519132    23A     -0.513603    24A     -0.504736
      25A     -0.496927    26A     -0.482432    27A     -0.416763
      28A     -0.384273

  @DF-RHF Final Energy:  -325.19026591833614

   => Energetics <=

    Nuclear Repulsion Energy =            314.5447145159585602
    One-Electron Energy =               -1065.2109551449293576
    Two-Electron Energy =                 425.4759747106347163
    Total Energy =                       -325.1902659183361379
  Basis Set: (AUG-CC-PVTZ AUX)
    Blend: AUG-CC-PVTZ-RI
    Molecular point group: c1

    Geometry (in Angstrom), charge = 0, multiplicity = 1:

       Center              X                  Y                   Z               Mass
    ------------   -----------------  -----------------  -----------------  -----------------
         O            0.302911372748    -0.684906968684     1.076283316744    15.994914619570
         N           -0.701131027252     0.727937031316    -0.383189783256    14.003074004430
         C           -2.041206627252     0.452206031316     0.102444316744    12.000000000000
         C            1.727473372748     0.575254031316    -0.442943683256    12.000000000000
         C            0.398795372748     0.167449031316     0.189281316744    12.000000000000
         C           -2.511081127252    -0.830066068684    -0.584671983256    12.000000000000
         C            2.872612372748    -0.314435968684     0.035364316744    12.000000000000
         H           -1.999106627252     0.334153031316     1.192753316744     1.007825032230
         H           -2.690953627252     1.307652031316    -0.109930683256     1.007825032230
         H            1.635175372748     0.548656031316    -1.537427683256     1.007825032230
         H            1.911787372748     1.628939031316    -0.181332683256     1.007825032230
         H           -0.584002627252     1.393829031316    -1.146078683256     1.007825032230
         H           -2.616186627252    -0.719469968684    -1.637040683256     1.007825032230
         H           -1.928775627252    -1.666917968684    -0.287440683256     1.007825032230
         H           -3.592074627252    -1.047611968684    -0.186067683256     1.007825032230
         H            2.702496372748    -1.360012968684    -0.242212683256     1.007825032230
         H            3.820025372748     0.014145031316    -0.407941683256     1.007825032230
         H            2.958441372748    -0.277790968684     1.126535316744     1.007825032230

  Basis Set: AUG-CC-PVTZ
    Blend: AUG-CC-PVTZ
  Basis Set: (AUG-CC-PVTZ AUX)
    Blend: AUG-CC-PVTZ-JKFIT
	 Reference Energy          =    -325.1902659183361379 [Eh]
	 Singles Energy            =      -0.0000000000000000 [Eh]
	 Same-Spin Energy          =      -0.3321452006122818 [Eh]
	 Opposite-Spin Energy      =      -1.1200406846171642 [Eh]
	 Correlation Energy        =      -1.4521858852294460 [Eh]
	 Total Energy              =    -326.6424518035655638 [Eh]

	 ================> DF-SCS-MP2 Energies <==================
	-----------------------------------------------------------
	 SCS Same-Spin Scale       =       0.3333333333333333 [-]
	 SCS Opposite-Spin Scale   =       1.2000000000000000 [-]
	 SCS Same-Spin Energy      =      -0.1107150668707606 [Eh]
	 SCS Opposite-Spin Energy  =      -1.3440488215405970 [Eh]
	 SCS Correlation Energy    =      -1.4547638884113576 [Eh]
	 SCS Total Energy          =    -326.6450298067475160 [Eh]
	-----------------------------------------------------------

  Dipole Moment: [D]
     X:    -0.7107      Y:     2.4306      Z:    -2.5456     Total:     3.5907

*** Psi4 exiting successfully. Buy a developer a beer!
