                               Psi4 1.3.2 release

  ==> Input File <==

--------------------------------------------------------------------------
#psi4
#
memory 32 gb

molecule  {
0 1
  O        0.3109550    -0.6942360     1.0654250
  N       -0.6919670     0.7804610    -0.3498900
  C       -2.0425509     0.4599723     0.0754108
  C        1.7355170     0.5659250    -0.4538020
  C        0.4208543     0.1712972     0.1642558
  C       -2.5721020    -0.8329900    -0.5555930
  C        2.8806560    -0.3237650     0.0245060
  H       -1.9910630     0.3248240     1.1818950
  H       -2.6829100     1.2983230    -0.1207890
  H        1.6432190     0.5393270    -1.5482860
  H        1.9198310     1.6196100    -0.1921910
  H       -0.5759590     1.3845000    -1.1569370
  H       -2.6081430    -0.7287990    -1.6478990
  H       -1.9207320    -1.6762470    -0.2982990
  H       -3.5840310    -1.0569410    -0.1969260
  H        2.7105400    -1.3693420    -0.2530710
  H        3.8280690     0.0048160    -0.4188000
  H        2.9664850    -0.2871200     1.1156770
units angstrom
no_reorient  #important for SAPT in psi4, default
symmetry c1  #important for SAPT in psi4, default
}

set PROPERTIES_ORIGIN ["COM"]
properties('MP2/aug-cc-pvtz', properties = ['dipole'])
--------------------------------------------------------------------------

    Molecular point group: c1
  Charge       = 0
  Multiplicity = 1
  Basis Set: AUG-CC-PVTZ
    Blend: AUG-CC-PVTZ
  Basis Set: (AUG-CC-PVTZ AUX)
    Blend: AUG-CC-PVTZ-JKFIT

    Orbital Energies [Eh]
    ---------------------

    Doubly Occupied:

       1A    -20.511357     2A    -15.582542     3A    -11.347922
       4A    -11.262646     5A    -11.244003     6A    -11.217231
       7A    -11.215070     8A     -1.356802     9A     -1.222975
      10A     -1.058685    11A     -1.006537    12A     -0.897523
      13A     -0.838664    14A     -0.773808    15A     -0.694021
      16A     -0.648028    17A     -0.635623    18A     -0.604437
      19A     -0.584217    20A     -0.570667    21A     -0.535067
      22A     -0.515181    23A     -0.513658    24A     -0.511696
      25A     -0.495543    26A     -0.477496    27A     -0.419216
      28A     -0.384348

  @DF-RHF Final Energy:  -325.19487951694066

   => Energetics <=

    Nuclear Repulsion Energy =            313.3674321162293381
    One-Electron Energy =               -1062.8746994220234683
    Two-Electron Energy =                 424.3123877888534707
    Total Energy =                       -325.1948795169406594
  Basis Set: (AUG-CC-PVTZ AUX)
    Blend: AUG-CC-PVTZ-RI
    Molecular point group: c1

    Geometry (in Angstrom), charge = 0, multiplicity = 1:

       Center              X                  Y                   Z               Mass
    ------------   -----------------  -----------------  -----------------  -----------------
         O            0.310405691101    -0.697829513396     1.069027099361    15.994914619570
         N           -0.692516308899     0.776867486604    -0.346287900639    14.003074004430
         C           -2.043100208899     0.456378786604     0.079012899361    12.000000000000
         C            1.734967691101     0.562331486604    -0.450199900639    12.000000000000
         C            0.420304991101     0.167703686604     0.167857899361    12.000000000000
         C           -2.572651308899    -0.836583513396    -0.551990900639    12.000000000000
         C            2.880106691101    -0.327358513396     0.028108099361    12.000000000000
         H           -1.991612308899     0.321230486604     1.185497099361     1.007825032230
         H           -2.683459308899     1.294729486604    -0.117186900639     1.007825032230
         H            1.642669691101     0.535733486604    -1.544683900639     1.007825032230
         H            1.919281691101     1.616016486604    -0.188588900639     1.007825032230
         H           -0.576508308899     1.380906486604    -1.153334900639     1.007825032230
         H           -2.608692308899    -0.732392513396    -1.644296900639     1.007825032230
         H           -1.921281308899    -1.679840513396    -0.294696900639     1.007825032230
         H           -3.584580308899    -1.060534513396    -0.193323900639     1.007825032230
         H            2.709990691101    -1.372935513396    -0.249468900639     1.007825032230
         H            3.827519691101     0.001222486604    -0.415197900639     1.007825032230
         H            2.965935691101    -0.290713513396     1.119279099361     1.007825032230

  Basis Set: AUG-CC-PVTZ
    Blend: AUG-CC-PVTZ
  Basis Set: (AUG-CC-PVTZ AUX)
    Blend: AUG-CC-PVTZ-JKFIT
	 Reference Energy          =    -325.1948795169406594 [Eh]
	 Singles Energy            =      -0.0000000000000000 [Eh]
	 Same-Spin Energy          =      -0.3323757631462353 [Eh]
	 Opposite-Spin Energy      =      -1.1205235597864287 [Eh]
	 Correlation Energy        =      -1.4528993229326641 [Eh]
	 Total Energy              =    -326.6477788398732969 [Eh]

	 ================> DF-SCS-MP2 Energies <==================
	-----------------------------------------------------------
	 SCS Same-Spin Scale       =       0.3333333333333333 [-]
	 SCS Opposite-Spin Scale   =       1.2000000000000000 [-]
	 SCS Same-Spin Energy      =      -0.1107919210487451 [Eh]
	 SCS Opposite-Spin Energy  =      -1.3446282717437144 [Eh]
	 SCS Correlation Energy    =      -1.4554201927924595 [Eh]
	 SCS Total Energy          =    -326.6502997097331331 [Eh]
	-----------------------------------------------------------

  Dipole Moment: [D]
     X:    -0.6587      Y:     2.3222      Z:    -2.6633     Total:     3.5944

*** Psi4 exiting successfully. Buy a developer a beer!
