                               Psi4 1.3.2 release

  ==> Input File <==

--------------------------------------------------------------------------
#psi4
#
memory 32 gb

molecule  {
0 1
  O        0.3109550    -0.6942360     1.0654250
  N       -0.6919670     0.7804610    -0.3498900
  C       -2.0331630     0.4428770     0.0915860
  C        1.7355170     0.5659250    -0.4538020
  C        0.5808760     0.2115364     0.0956110
  C       -2.5721020    -0.8329900    -0.5555930
  C        2.8806560    -0.3237650     0.0245060
  H       -1.9910630     0.3248240     1.1818950
  H       -2.6829100     1.2983230    -0.1207890
  H        1.6432190     0.5393270    -1.5482860
  H        1.9198310     1.6196100    -0.1921910
  H       -0.5759590     1.3845000    -1.1569370
  H       -2.6081430    -0.7287990    -1.6478990
  H       -1.9207320    -1.6762470    -0.2982990
  H       -3.5840310    -1.0569410    -0.1969260
  H        2.7105400    -1.3693420    -0.2530710
  H        3.8280690     0.0048160    -0.4188000
  H        2.9664850    -0.2871200     1.1156770
units angstrom
no_reorient  #important for SAPT in psi4, default
symmetry c1  #important for SAPT in psi4, default
}

set PROPERTIES_ORIGIN ["COM"]
properties('MP2/aug-cc-pvtz', properties = ['dipole'])
--------------------------------------------------------------------------

    Molecular point group: c1
  Charge       = 0
  Multiplicity = 1
  Basis Set: AUG-CC-PVTZ
    Blend: AUG-CC-PVTZ
  Basis Set: (AUG-CC-PVTZ AUX)
    Blend: AUG-CC-PVTZ-JKFIT

    Orbital Energies [Eh]
    ---------------------

    Doubly Occupied:

       1A    -20.508502     2A    -15.576476     3A    -11.363457
       4A    -11.258413     5A    -11.249244     6A    -11.229157
       7A    -11.208499     8A     -1.308790     9A     -1.188195
      10A     -1.107312    11A     -0.998844    12A     -0.922340
      13A     -0.836390    14A     -0.750303    15A     -0.703852
      16A     -0.659453    17A     -0.644065    18A     -0.598993
      19A     -0.575938    20A     -0.559631    21A     -0.537732
      22A     -0.523154    23A     -0.514704    24A     -0.510418
      25A     -0.483800    26A     -0.455395    27A     -0.416742
      28A     -0.367761

  @DF-RHF Final Energy:  -325.12757837290229

   => Energetics <=

    Nuclear Repulsion Energy =            312.5996167475061043
    One-Electron Energy =               -1061.3392722373432662
    Two-Electron Energy =                 423.6120771169348131
    Total Energy =                       -325.1275783729022919
  Basis Set: (AUG-CC-PVTZ AUX)
    Blend: AUG-CC-PVTZ-RI
    Molecular point group: c1

    Geometry (in Angstrom), charge = 0, multiplicity = 1:

       Center              X                  Y                   Z               Mass
    ------------   -----------------  -----------------  -----------------  -----------------
         O            0.290294556665    -0.700576996917     1.075255926885    15.994914619570
         N           -0.712627443335     0.774120003083    -0.340059073115    14.003074004430
         C           -2.053823443335     0.436536003083     0.101416926885    12.000000000000
         C            1.714856556665     0.559584003083    -0.443971073115    12.000000000000
         C            0.560215556665     0.205195403083     0.105441926885    12.000000000000
         C           -2.592762443335    -0.839330996917    -0.545762073115    12.000000000000
         C            2.859995556665    -0.330105996917     0.034336926885    12.000000000000
         H           -2.011723443335     0.318483003083     1.191725926885     1.007825032230
         H           -2.703570443335     1.291982003083    -0.110958073115     1.007825032230
         H            1.622558556665     0.532986003083    -1.538455073115     1.007825032230
         H            1.899170556665     1.613269003083    -0.182360073115     1.007825032230
         H           -0.596619443335     1.378159003083    -1.147106073115     1.007825032230
         H           -2.628803443335    -0.735139996917    -1.638068073115     1.007825032230
         H           -1.941392443335    -1.682587996917    -0.288468073115     1.007825032230
         H           -3.604691443335    -1.063281996917    -0.187095073115     1.007825032230
         H            2.689879556665    -1.375682996917    -0.243240073115     1.007825032230
         H            3.807408556665    -0.001524996917    -0.408969073115     1.007825032230
         H            2.945824556665    -0.293460996917     1.125507926885     1.007825032230

  Basis Set: AUG-CC-PVTZ
    Blend: AUG-CC-PVTZ
  Basis Set: (AUG-CC-PVTZ AUX)
    Blend: AUG-CC-PVTZ-JKFIT
	 Reference Energy          =    -325.1275783729022919 [Eh]
	 Singles Energy            =      -0.0000000000000000 [Eh]
	 Same-Spin Energy          =      -0.3374533993721130 [Eh]
	 Opposite-Spin Energy      =      -1.1299977155219287 [Eh]
	 Correlation Energy        =      -1.4674511148940417 [Eh]
	 Total Energy              =    -326.5950294877963529 [Eh]

	 ================> DF-SCS-MP2 Energies <==================
	-----------------------------------------------------------
	 SCS Same-Spin Scale       =       0.3333333333333333 [-]
	 SCS Opposite-Spin Scale   =       1.2000000000000000 [-]
	 SCS Same-Spin Energy      =      -0.1124844664573710 [Eh]
	 SCS Opposite-Spin Energy  =      -1.3559972586263145 [Eh]
	 SCS Correlation Energy    =      -1.4684817250836855 [Eh]
	 SCS Total Energy          =    -326.5960600979859692 [Eh]
	-----------------------------------------------------------

  Dipole Moment: [D]
     X:     0.2926      Y:     2.3846      Z:    -2.8204     Total:     3.7050

*** Psi4 exiting successfully. Buy a developer a beer!
