                               Psi4 1.4a3.dev225

  ==> Input File <==

--------------------------------------------------------------------------
#psi4
#
memory 32 gb

molecule  {
0 1
  O        0.3358460     1.2965490    -0.1579670
  N       -0.6355700    -0.7573960    -0.3171250
  C       -1.9537600    -0.2153280    -0.6135720
  C        1.6888930    -0.6226540     0.4213110
  C        0.4153876     0.0896587    -0.0433252
  C       -2.7106350     0.2148780     0.6378230
  C        2.9315370     0.1212560    -0.0546130
  H       -1.8024690     0.6408050    -1.2743770
  H       -2.5093410    -0.9768490    -1.1692540
  H        1.6661620    -0.6499400     1.5181760
  H        1.7013640    -1.6638910     0.0787670
  H       -0.5536820    -1.7388620    -0.0859220
  H       -2.8566760    -0.6308240     1.3159630
  H       -2.1451200     0.9906390     1.1579850
  H       -3.6935760     0.6181720     0.3752940
  H        2.8830370     1.1639450     0.2613510
  H        3.8370830    -0.3350390     0.3539010
  H        2.9990550     0.1035600    -1.1453320
units angstrom
no_reorient  #important for SAPT in psi4, default
symmetry c1  #important for SAPT in psi4, default
}

set PROPERTIES_ORIGIN ["COM"]
properties('MP2/aug-cc-pvtz', properties = ['dipole'])
--------------------------------------------------------------------------

    Molecular point group: c1
  Charge       = 0
  Multiplicity = 1
  Basis Set: AUG-CC-PVTZ
    Blend: AUG-CC-PVTZ
  Basis Set: (AUG-CC-PVTZ AUX)
    Blend: AUG-CC-PVTZ-JKFIT

    Orbital Energies [Eh]
    ---------------------

    Doubly Occupied:

       1A    -20.516245     2A    -15.579941     3A    -11.344763
       4A    -11.260394     5A    -11.239778     6A    -11.215746
       7A    -11.214447     8A     -1.380436     9A     -1.224586
      10A     -1.054836    11A     -1.007354    12A     -0.893101
      13A     -0.836421    14A     -0.777315    15A     -0.693150
      16A     -0.655572    17A     -0.621119    18A     -0.607391
      19A     -0.592257    20A     -0.584180    21A     -0.530675
      22A     -0.528748    23A     -0.516414    24A     -0.505484
      25A     -0.495562    26A     -0.485243    27A     -0.417353
      28A     -0.388688

  @DF-RHF Final Energy:  -325.20033068681693

   => Energetics <=

    Nuclear Repulsion Energy =            314.0980367740797305
    One-Electron Energy =               -1064.2623399809729108
    Two-Electron Energy =                 424.9639725200763110
    Total Energy =                       -325.2003306868169261
  Basis Set: (AUG-CC-PVTZ AUX)
    Blend: AUG-CC-PVTZ-RI
    Molecular point group: c1

    Geometry (in Angstrom), charge = 0, multiplicity = 1:

       Center              X                  Y                   Z               Mass
    ------------   -----------------  -----------------  -----------------  -----------------
         O            0.331383454750     1.269953610396    -0.144131920045    15.994914619570
         N           -0.640032545250    -0.783991389604    -0.303289920045    14.003074004430
         C           -1.958222545250    -0.241923389604    -0.599736920045    12.000000000000
         C            1.684430454750    -0.649249389604     0.435146079955    12.000000000000
         C            0.410925054750     0.063063310396    -0.029490120045    12.000000000000
         C           -2.715097545250     0.188282610396     0.651658079955    12.000000000000
         C            2.927074454750     0.094660610396    -0.040777920045    12.000000000000
         H           -1.806931545250     0.614209610396    -1.260541920045     1.007825032230
         H           -2.513803545250    -1.003444389604    -1.155418920045     1.007825032230
         H            1.661699454750    -0.676535389604     1.532011079955     1.007825032230
         H            1.696901454750    -1.690486389604     0.092602079955     1.007825032230
         H           -0.558144545250    -1.765457389604    -0.072086920045     1.007825032230
         H           -2.861138545250    -0.657419389604     1.329798079955     1.007825032230
         H           -2.149582545250     0.964043610396     1.171820079955     1.007825032230
         H           -3.698038545250     0.591576610396     0.389129079955     1.007825032230
         H            2.878574454750     1.137349610396     0.275186079955     1.007825032230
         H            3.832620454750    -0.361634389604     0.367736079955     1.007825032230
         H            2.994592454750     0.076964610396    -1.131496920045     1.007825032230

  Basis Set: AUG-CC-PVTZ
    Blend: AUG-CC-PVTZ
  Basis Set: (AUG-CC-PVTZ AUX)
    Blend: AUG-CC-PVTZ-JKFIT
	 Reference Energy          =    -325.2003306868169261 [Eh]
	 Singles Energy            =      -0.0000000000000000 [Eh]
	 Same-Spin Energy          =      -0.3315685983541131 [Eh]
	 Opposite-Spin Energy      =      -1.1185652545270481 [Eh]
	 Correlation Energy        =      -1.4501338528811611 [Eh]
	 Total Energy              =    -326.6504645396980777 [Eh]

	 ================> DF-SCS-MP2 Energies <==================
	-----------------------------------------------------------
	 SCS Same-Spin Scale       =       0.3333333333333333 [-]
	 SCS Opposite-Spin Scale   =       1.2000000000000000 [-]
	 SCS Same-Spin Energy      =      -0.1105228661180377 [Eh]
	 SCS Opposite-Spin Energy  =      -1.3422783054324576 [Eh]
	 SCS Correlation Energy    =      -1.4528011715504954 [Eh]
	 SCS Total Energy          =    -326.6531318583674306 [Eh]
	-----------------------------------------------------------

  Dipole Moment: [D]
     X:    -0.7766      Y:    -3.2599      Z:     0.3909     Total:     3.3739

*** Psi4 exiting successfully. Buy a developer a beer!
