                               Psi4 1.3.2 release

  ==> Input File <==

--------------------------------------------------------------------------
#psi4
#
memory 32 gb

molecule  {
0 1
  O        0.2681905    -0.6891939     1.0646017
  N       -0.7195853     0.7547342    -0.3205934
  C       -2.0331630     0.4428770     0.0915860
  C        1.7355170     0.5659250    -0.4538020
  C        0.4068390     0.1581200     0.1784230
  C       -2.5721020    -0.8329900    -0.5555930
  C        2.8806560    -0.3237650     0.0245060
  H       -1.9910630     0.3248240     1.1818950
  H       -2.6829100     1.2983230    -0.1207890
  H        1.6432190     0.5393270    -1.5482860
  H        1.9198310     1.6196100    -0.1921910
  H       -0.5759590     1.3845000    -1.1569370
  H       -2.6081430    -0.7287990    -1.6478990
  H       -1.9207320    -1.6762470    -0.2982990
  H       -3.5840310    -1.0569410    -0.1969260
  H        2.7105400    -1.3693420    -0.2530710
  H        3.8280690     0.0048160    -0.4188000
  H        2.9664850    -0.2871200     1.1156770
units angstrom
no_reorient  #important for SAPT in psi4, default
symmetry c1  #important for SAPT in psi4, default
}

set PROPERTIES_ORIGIN ["COM"]
properties('MP2/aug-cc-pvtz', properties = ['dipole'])
--------------------------------------------------------------------------

    Molecular point group: c1
  Charge       = 0
  Multiplicity = 1
  Basis Set: AUG-CC-PVTZ
    Blend: AUG-CC-PVTZ
  Basis Set: (AUG-CC-PVTZ AUX)
    Blend: AUG-CC-PVTZ-JKFIT

    Orbital Energies [Eh]
    ---------------------

    Doubly Occupied:

       1A    -20.511930     2A    -15.580894     3A    -11.345943
       4A    -11.257256     5A    -11.247417     6A    -11.219191
       7A    -11.212095     8A     -1.370458     9A     -1.225010
      10A     -1.058091    11A     -1.004329    12A     -0.897347
      13A     -0.838286    14A     -0.763558    15A     -0.694943
      16A     -0.652611    17A     -0.636157    18A     -0.606192
      19A     -0.585050    20A     -0.570975    21A     -0.535332
      22A     -0.516938    23A     -0.514251    24A     -0.513866
      25A     -0.494170    26A     -0.480940    27A     -0.419287
      28A     -0.380484

  @DF-RHF Final Energy:  -325.19309560042279

   => Energetics <=

    Nuclear Repulsion Energy =            314.3018444212952431
    One-Electron Energy =               -1064.7238752421653771
    Two-Electron Energy =                 425.2289352204472834
    Total Energy =                       -325.1930956004227937
  Basis Set: (AUG-CC-PVTZ AUX)
    Blend: AUG-CC-PVTZ-RI
    Molecular point group: c1

    Geometry (in Angstrom), charge = 0, multiplicity = 1:

       Center              X                  Y                   Z               Mass
    ------------   -----------------  -----------------  -----------------  -----------------
         O            0.278783248323    -0.686427594647     1.060673605038    15.994914619570
         N           -0.708992551677     0.757500505353    -0.324521494962    14.003074004430
         C           -2.022570251677     0.445643305353     0.087657905038    12.000000000000
         C            1.746109748323     0.568691305353    -0.457730094962    12.000000000000
         C            0.417431748323     0.160886305353     0.174494905038    12.000000000000
         C           -2.561509251677    -0.830223694647    -0.559521094962    12.000000000000
         C            2.891248748323    -0.320998694647     0.020577905038    12.000000000000
         H           -1.980470251677     0.327590305353     1.177966905038     1.007825032230
         H           -2.672317251677     1.301089305353    -0.124717094962     1.007825032230
         H            1.653811748323     0.542093305353    -1.552214094962     1.007825032230
         H            1.930423748323     1.622376305353    -0.196119094962     1.007825032230
         H           -0.565366251677     1.387266305353    -1.160865094962     1.007825032230
         H           -2.597550251677    -0.726032694647    -1.651827094962     1.007825032230
         H           -1.910139251677    -1.673480694647    -0.302227094962     1.007825032230
         H           -3.573438251677    -1.054174694647    -0.200854094962     1.007825032230
         H            2.721132748323    -1.366575694647    -0.256999094962     1.007825032230
         H            3.838661748323     0.007582305353    -0.422728094962     1.007825032230
         H            2.977077748323    -0.284353694647     1.111748905038     1.007825032230

  Basis Set: AUG-CC-PVTZ
    Blend: AUG-CC-PVTZ
  Basis Set: (AUG-CC-PVTZ AUX)
    Blend: AUG-CC-PVTZ-JKFIT
	 Reference Energy          =    -325.1930956004227937 [Eh]
	 Singles Energy            =      -0.0000000000000000 [Eh]
	 Same-Spin Energy          =      -0.3324389239389184 [Eh]
	 Opposite-Spin Energy      =      -1.1201908955773410 [Eh]
	 Correlation Energy        =      -1.4526298195162592 [Eh]
	 Total Energy              =    -326.6457254199390263 [Eh]

	 ================> DF-SCS-MP2 Energies <==================
	-----------------------------------------------------------
	 SCS Same-Spin Scale       =       0.3333333333333333 [-]
	 SCS Opposite-Spin Scale   =       1.2000000000000000 [-]
	 SCS Same-Spin Energy      =      -0.1108129746463061 [Eh]
	 SCS Opposite-Spin Energy  =      -1.3442290746928092 [Eh]
	 SCS Correlation Energy    =      -1.4550420493391152 [Eh]
	 SCS Total Energy          =    -326.6481376497619067 [Eh]
	-----------------------------------------------------------

  Dipole Moment: [D]
     X:    -0.4403      Y:     2.2876      Z:    -2.6127     Total:     3.5005

*** Psi4 exiting successfully. Buy a developer a beer!
