                               Psi4 1.3.2 release

  ==> Input File <==

--------------------------------------------------------------------------
#psi4
#
memory 32 gb

molecule  {
0 1
  O        0.3109550    -0.6942360     1.0654250
  N       -0.6919670     0.7804610    -0.3498900
  C       -2.0331630     0.4428770     0.0915860
  C        1.7355170     0.5659250    -0.4538020
  C        0.3769908     0.1490923     0.1048174
  C       -2.5721020    -0.8329900    -0.5555930
  C        2.8806560    -0.3237650     0.0245060
  H       -1.9910630     0.3248240     1.1818950
  H       -2.6829100     1.2983230    -0.1207890
  H        1.5885768     0.5225855    -1.5417597
  H        1.9198310     1.6196100    -0.1921910
  H       -0.5759590     1.3845000    -1.1569370
  H       -2.6081430    -0.7287990    -1.6478990
  H       -1.9207320    -1.6762470    -0.2982990
  H       -3.5840310    -1.0569410    -0.1969260
  H        2.7105400    -1.3693420    -0.2530710
  H        3.8280690     0.0048160    -0.4188000
  H        2.9664850    -0.2871200     1.1156770
units angstrom
no_reorient  #important for SAPT in psi4, default
symmetry c1  #important for SAPT in psi4, default
}

set PROPERTIES_ORIGIN ["COM"]
properties('MP2/aug-cc-pvtz', properties = ['dipole'])
--------------------------------------------------------------------------

    Molecular point group: c1
  Charge       = 0
  Multiplicity = 1
  Basis Set: AUG-CC-PVTZ
    Blend: AUG-CC-PVTZ
  Basis Set: (AUG-CC-PVTZ AUX)
    Blend: AUG-CC-PVTZ-JKFIT

    Orbital Energies [Eh]
    ---------------------

    Doubly Occupied:

       1A    -20.501974     2A    -15.591209     3A    -11.343628
       4A    -11.267239     5A    -11.243408     6A    -11.218384
       7A    -11.215442     8A     -1.345566     9A     -1.233391
      10A     -1.055063    11A     -1.012314    12A     -0.898586
      13A     -0.841860    14A     -0.785665    15A     -0.687836
      16A     -0.651321    17A     -0.635321    18A     -0.602048
      19A     -0.584985    20A     -0.570003    21A     -0.537134
      22A     -0.514760    23A     -0.512276    24A     -0.506206
      25A     -0.497601    26A     -0.476693    27A     -0.410093
      28A     -0.387483

  @DF-RHF Final Energy:  -325.19062111400149

   => Energetics <=

    Nuclear Repulsion Energy =            313.7724779693371033
    One-Electron Energy =               -1063.6712134855160912
    Two-Electron Energy =                 424.7081144021774435
    Total Energy =                       -325.1906211140014875
  Basis Set: (AUG-CC-PVTZ AUX)
    Blend: AUG-CC-PVTZ-RI
    Molecular point group: c1

    Geometry (in Angstrom), charge = 0, multiplicity = 1:

       Center              X                  Y                   Z               Mass
    ------------   -----------------  -----------------  -----------------  -----------------
         O            0.315043187444    -0.692997150276     1.074097938535    15.994914619570
         N           -0.687878812556     0.781699849724    -0.341217061465    14.003074004430
         C           -2.029074812556     0.444115849724     0.100258938535    12.000000000000
         C            1.739605187444     0.567163849724    -0.445129061465    12.000000000000
         C            0.381078987444     0.150331149724     0.113490338535    12.000000000000
         C           -2.568013812556    -0.831751150276    -0.546920061465    12.000000000000
         C            2.884744187444    -0.322526150276     0.033178938535    12.000000000000
         H           -1.986974812556     0.326062849724     1.190567938535     1.007825032230
         H           -2.678821812556     1.299561849724    -0.112116061465     1.007825032230
         H            1.592664987444     0.523824349724    -1.533086761465     1.007825032230
         H            1.923919187444     1.620848849724    -0.183518061465     1.007825032230
         H           -0.571870812556     1.385738849724    -1.148264061465     1.007825032230
         H           -2.604054812556    -0.727560150276    -1.639226061465     1.007825032230
         H           -1.916643812556    -1.675008150276    -0.289626061465     1.007825032230
         H           -3.579942812556    -1.055702150276    -0.188253061465     1.007825032230
         H            2.714628187444    -1.368103150276    -0.244398061465     1.007825032230
         H            3.832157187444     0.006054849724    -0.410127061465     1.007825032230
         H            2.970573187444    -0.285881150276     1.124349938535     1.007825032230

  Basis Set: AUG-CC-PVTZ
    Blend: AUG-CC-PVTZ
  Basis Set: (AUG-CC-PVTZ AUX)
    Blend: AUG-CC-PVTZ-JKFIT
	 Reference Energy          =    -325.1906211140014875 [Eh]
	 Singles Energy            =      -0.0000000000000000 [Eh]
	 Same-Spin Energy          =      -0.3327107011360561 [Eh]
	 Opposite-Spin Energy      =      -1.1210823665304435 [Eh]
	 Correlation Energy        =      -1.4537930676664996 [Eh]
	 Total Energy              =    -326.6444141816679689 [Eh]

	 ================> DF-SCS-MP2 Energies <==================
	-----------------------------------------------------------
	 SCS Same-Spin Scale       =       0.3333333333333333 [-]
	 SCS Opposite-Spin Scale   =       1.2000000000000000 [-]
	 SCS Same-Spin Energy      =      -0.1109035670453520 [Eh]
	 SCS Opposite-Spin Energy  =      -1.3452988398365322 [Eh]
	 SCS Correlation Energy    =      -1.4562024068818842 [Eh]
	 SCS Total Energy          =    -326.6468235208833448 [Eh]
	-----------------------------------------------------------

  Dipole Moment: [D]
     X:    -1.0075      Y:     2.4349      Z:    -2.8161     Total:     3.8567

*** Psi4 exiting successfully. Buy a developer a beer!
