                               Psi4 1.3.2 release

  ==> Input File <==

--------------------------------------------------------------------------
#psi4
#
memory 32 gb

molecule  {
0 1
  O        0.3109550    -0.6942360     1.0654250
  N       -0.6919670     0.7804610    -0.3498900
  C       -2.0233665     0.4258846     0.1076267
  C        1.7355170     0.5659250    -0.4538020
  C        0.3924890     0.1451323     0.1924293
  C       -2.5721020    -0.8329900    -0.5555930
  C        2.8806560    -0.3237650     0.0245060
  H       -1.9910630     0.3248240     1.1818950
  H       -2.6829100     1.2983230    -0.1207890
  H        1.6432190     0.5393270    -1.5482860
  H        1.9198310     1.6196100    -0.1921910
  H       -0.5759590     1.3845000    -1.1569370
  H       -2.6081430    -0.7287990    -1.6478990
  H       -1.9207320    -1.6762470    -0.2982990
  H       -3.5840310    -1.0569410    -0.1969260
  H        2.7105400    -1.3693420    -0.2530710
  H        3.8280690     0.0048160    -0.4188000
  H        2.9664850    -0.2871200     1.1156770
units angstrom
no_reorient  #important for SAPT in psi4, default
symmetry c1  #important for SAPT in psi4, default
}

set PROPERTIES_ORIGIN ["COM"]
properties('MP2/aug-cc-pvtz', properties = ['dipole'])
--------------------------------------------------------------------------

    Molecular point group: c1
  Charge       = 0
  Multiplicity = 1
  Basis Set: AUG-CC-PVTZ
    Blend: AUG-CC-PVTZ
  Basis Set: (AUG-CC-PVTZ AUX)
    Blend: AUG-CC-PVTZ-JKFIT

    Orbital Energies [Eh]
    ---------------------

    Doubly Occupied:

       1A    -20.517292     2A    -15.579605     3A    -11.344344
       4A    -11.261982     5A    -11.240973     6A    -11.215080
       7A    -11.214989     8A     -1.381658     9A     -1.227002
      10A     -1.050485    11A     -1.006023    12A     -0.890948
      13A     -0.833858    14A     -0.779010    15A     -0.691082
      16A     -0.650251    17A     -0.632596    18A     -0.605454
      19A     -0.590139    20A     -0.576159    21A     -0.535170
      22A     -0.515405    23A     -0.514364    24A     -0.511159
      25A     -0.493718    26A     -0.485584    27A     -0.416734
      28A     -0.388302

  @DF-RHF Final Energy:  -325.19850273879433

   => Energetics <=

    Nuclear Repulsion Energy =            313.9951212547254613
    One-Electron Energy =               -1064.0885144455273803
    Two-Electron Energy =                 424.8948904520075303
    Total Energy =                       -325.1985027387943319
  Basis Set: (AUG-CC-PVTZ AUX)
    Blend: AUG-CC-PVTZ-RI
    Molecular point group: c1

    Geometry (in Angstrom), charge = 0, multiplicity = 1:

       Center              X                  Y                   Z               Mass
    ------------   -----------------  -----------------  -----------------  -----------------
         O            0.311495583965    -0.690676742014     1.061858088030    15.994914619570
         N           -0.691426416035     0.784020257986    -0.353456911970    14.003074004430
         C           -2.022825916035     0.429443857986     0.104059788030    12.000000000000
         C            1.736057583965     0.569484257986    -0.457368911970    12.000000000000
         C            0.393029583965     0.148691557986     0.188862388030    12.000000000000
         C           -2.571561416035    -0.829430742014    -0.559159911970    12.000000000000
         C            2.881196583965    -0.320205742014     0.020939088030    12.000000000000
         H           -1.990522416035     0.328383257986     1.178328088030     1.007825032230
         H           -2.682369416035     1.301882257986    -0.124355911970     1.007825032230
         H            1.643759583965     0.542886257986    -1.551852911970     1.007825032230
         H            1.920371583965     1.623169257986    -0.195757911970     1.007825032230
         H           -0.575418416035     1.388059257986    -1.160503911970     1.007825032230
         H           -2.607602416035    -0.725239742014    -1.651465911970     1.007825032230
         H           -1.920191416035    -1.672687742014    -0.301865911970     1.007825032230
         H           -3.583490416035    -1.053381742014    -0.200492911970     1.007825032230
         H            2.711080583965    -1.365782742014    -0.256637911970     1.007825032230
         H            3.828609583965     0.008375257986    -0.422366911970     1.007825032230
         H            2.967025583965    -0.283560742014     1.112110088030     1.007825032230

  Basis Set: AUG-CC-PVTZ
    Blend: AUG-CC-PVTZ
  Basis Set: (AUG-CC-PVTZ AUX)
    Blend: AUG-CC-PVTZ-JKFIT
	 Reference Energy          =    -325.1985027387943319 [Eh]
	 Singles Energy            =      -0.0000000000000000 [Eh]
	 Same-Spin Energy          =      -0.3313810797567016 [Eh]
	 Opposite-Spin Energy      =      -1.1185517613441307 [Eh]
	 Correlation Energy        =      -1.4499328411008323 [Eh]
	 Total Energy              =    -326.6484355798951924 [Eh]

	 ================> DF-SCS-MP2 Energies <==================
	-----------------------------------------------------------
	 SCS Same-Spin Scale       =       0.3333333333333333 [-]
	 SCS Opposite-Spin Scale   =       1.2000000000000000 [-]
	 SCS Same-Spin Energy      =      -0.1104603599189005 [Eh]
	 SCS Opposite-Spin Energy  =      -1.3422621136129569 [Eh]
	 SCS Correlation Energy    =      -1.4527224735318574 [Eh]
	 SCS Total Energy          =    -326.6512252123262101 [Eh]
	-----------------------------------------------------------

  Dipole Moment: [D]
     X:    -0.7473      Y:     2.1641      Z:    -2.4951     Total:     3.3863

*** Psi4 exiting successfully. Buy a developer a beer!
