                               Psi4 1.3.2 release

  ==> Input File <==

--------------------------------------------------------------------------
#psi4
#
memory 32 gb

molecule  {
0 1
  O        0.3536707    -0.6995264     1.0639131
  N       -0.6919670     0.7804610    -0.3498900
  C       -2.0331630     0.4428770     0.0915860
  C        1.7602694     0.5309757    -0.4220796
  C        0.4068390     0.1581200     0.1784230
  C       -2.5721020    -0.8329900    -0.5555930
  C        2.8806560    -0.3237650     0.0245060
  H       -1.9910630     0.3248240     1.1818950
  H       -2.6829100     1.2983230    -0.1207890
  H        1.6432190     0.5393270    -1.5482860
  H        1.9198310     1.6196100    -0.1921910
  H       -0.5759590     1.3845000    -1.1569370
  H       -2.6081430    -0.7287990    -1.6478990
  H       -1.9207320    -1.6762470    -0.2982990
  H       -3.5840310    -1.0569410    -0.1969260
  H        2.7105400    -1.3693420    -0.2530710
  H        3.8280690     0.0048160    -0.4188000
  H        2.9664850    -0.2871200     1.1156770
units angstrom
no_reorient  #important for SAPT in psi4, default
symmetry c1  #important for SAPT in psi4, default
}

set PROPERTIES_ORIGIN ["COM"]
properties('MP2/aug-cc-pvtz', properties = ['dipole'])
--------------------------------------------------------------------------

    Molecular point group: c1
  Charge       = 0
  Multiplicity = 1
  Basis Set: AUG-CC-PVTZ
    Blend: AUG-CC-PVTZ
  Basis Set: (AUG-CC-PVTZ AUX)
    Blend: AUG-CC-PVTZ-JKFIT

    Orbital Energies [Eh]
    ---------------------

    Doubly Occupied:

       1A    -20.513591     2A    -15.583793     3A    -11.345978
       4A    -11.264278     5A    -11.243527     6A    -11.216240
       7A    -11.212580     8A     -1.368391     9A     -1.227644
      10A     -1.057980    11A     -1.009686    12A     -0.894350
      13A     -0.835105    14A     -0.777127    15A     -0.690280
      16A     -0.650310    17A     -0.630074    18A     -0.605943
      19A     -0.588689    20A     -0.575217    21A     -0.543098
      22A     -0.519064    23A     -0.513738    24A     -0.510001
      25A     -0.494268    26A     -0.473749    27A     -0.415905
      28A     -0.388247

  @DF-RHF Final Energy:  -325.19478648755774

   => Energetics <=

    Nuclear Repulsion Energy =            313.8601818889729884
    One-Electron Energy =               -1063.8122347911787529
    Two-Electron Energy =                 424.7572664146480292
    Total Energy =                       -325.1947864875577352
  Basis Set: (AUG-CC-PVTZ AUX)
    Blend: AUG-CC-PVTZ-RI
    Molecular point group: c1

    Geometry (in Angstrom), charge = 0, multiplicity = 1:

       Center              X                  Y                   Z               Mass
    ------------   -----------------  -----------------  -----------------  -----------------
         O            0.343973223348    -0.694540112959     1.060386529814    15.994914619570
         N           -0.701664476652     0.785447287041    -0.353416570186    14.003074004430
         C           -2.042860476652     0.447863287041     0.088059429814    12.000000000000
         C            1.750571923348     0.535961987041    -0.425606170186    12.000000000000
         C            0.397141523348     0.163106287041     0.174896429814    12.000000000000
         C           -2.581799476652    -0.828003712959    -0.559119570186    12.000000000000
         C            2.870958523348    -0.318778712959     0.020979429814    12.000000000000
         H           -2.000760476652     0.329810287041     1.178368429814     1.007825032230
         H           -2.692607476652     1.303309287041    -0.124315570186     1.007825032230
         H            1.633521523348     0.544313287041    -1.551812570186     1.007825032230
         H            1.910133523348     1.624596287041    -0.195717570186     1.007825032230
         H           -0.585656476652     1.389486287041    -1.160463570186     1.007825032230
         H           -2.617840476652    -0.723812712959    -1.651425570186     1.007825032230
         H           -1.930429476652    -1.671260712959    -0.301825570186     1.007825032230
         H           -3.593728476652    -1.051954712959    -0.200452570186     1.007825032230
         H            2.700842523348    -1.364355712959    -0.256597570186     1.007825032230
         H            3.818371523348     0.009802287041    -0.422326570186     1.007825032230
         H            2.956787523348    -0.282133712959     1.112150429814     1.007825032230

  Basis Set: AUG-CC-PVTZ
    Blend: AUG-CC-PVTZ
  Basis Set: (AUG-CC-PVTZ AUX)
    Blend: AUG-CC-PVTZ-JKFIT
	 Reference Energy          =    -325.1947864875577352 [Eh]
	 Singles Energy            =      -0.0000000000000000 [Eh]
	 Same-Spin Energy          =      -0.3321069428544501 [Eh]
	 Opposite-Spin Energy      =      -1.1196861260370254 [Eh]
	 Correlation Energy        =      -1.4517930688914755 [Eh]
	 Total Energy              =    -326.6465795564491827 [Eh]

	 ================> DF-SCS-MP2 Energies <==================
	-----------------------------------------------------------
	 SCS Same-Spin Scale       =       0.3333333333333333 [-]
	 SCS Opposite-Spin Scale   =       1.2000000000000000 [-]
	 SCS Same-Spin Energy      =      -0.1107023142848167 [Eh]
	 SCS Opposite-Spin Energy  =      -1.3436233512444304 [Eh]
	 SCS Correlation Energy    =      -1.4543256655292471 [Eh]
	 SCS Total Energy          =    -326.6491121530870032 [Eh]
	-----------------------------------------------------------

  Dipole Moment: [D]
     X:    -0.8237      Y:     2.2362      Z:    -2.5611     Total:     3.4983

*** Psi4 exiting successfully. Buy a developer a beer!
