                               Psi4 1.3.2 release

  ==> Input File <==

--------------------------------------------------------------------------
#psi4
#
memory 32 gb

molecule  {
0 1
  O        0.3109550    -0.6942360     1.0654250
  N       -0.6919670     0.7804610    -0.3498900
  C       -2.0331630     0.4428770     0.0915860
  C        1.7355170     0.5659250    -0.4538020
  C        0.4176020     0.1613789     0.2025829
  C       -2.5721020    -0.8329900    -0.5555930
  C        2.8806560    -0.3237650     0.0245060
  H       -1.9910630     0.3248240     1.1818950
  H       -2.6829100     1.2983230    -0.1207890
  H        1.6614967     0.5449260    -1.5497954
  H        1.9198310     1.6196100    -0.1921910
  H       -0.5759590     1.3845000    -1.1569370
  H       -2.6081430    -0.7287990    -1.6478990
  H       -1.9207320    -1.6762470    -0.2982990
  H       -3.5840310    -1.0569410    -0.1969260
  H        2.7105400    -1.3693420    -0.2530710
  H        3.8280690     0.0048160    -0.4188000
  H        2.9664850    -0.2871200     1.1156770
units angstrom
no_reorient  #important for SAPT in psi4, default
symmetry c1  #important for SAPT in psi4, default
}

set PROPERTIES_ORIGIN ["COM"]
properties('MP2/aug-cc-pvtz', properties = ['dipole'])
--------------------------------------------------------------------------

    Molecular point group: c1
  Charge       = 0
  Multiplicity = 1
  Basis Set: AUG-CC-PVTZ
    Blend: AUG-CC-PVTZ
  Basis Set: (AUG-CC-PVTZ AUX)
    Blend: AUG-CC-PVTZ-JKFIT

    Orbital Energies [Eh]
    ---------------------

    Doubly Occupied:

       1A    -20.518486     2A    -15.577444     3A    -11.347065
       4A    -11.260463     5A    -11.242581     6A    -11.216415
       7A    -11.213834     8A     -1.378232     9A     -1.220590
      10A     -1.054597    11A     -1.004069    12A     -0.892917
      13A     -0.834161    14A     -0.773258    15A     -0.694423
      16A     -0.647429    17A     -0.633467    18A     -0.608350
      19A     -0.587582    20A     -0.572917    21A     -0.534490
      22A     -0.516616    23A     -0.514510    24A     -0.510829
      25A     -0.494754    26A     -0.483742    27A     -0.420457
      28A     -0.385018

  @DF-RHF Final Energy:  -325.19784581617159

   => Energetics <=

    Nuclear Repulsion Energy =            313.6284453571980748
    One-Electron Energy =               -1063.3751932129182478
    Two-Electron Energy =                 424.5489020395485795
    Total Energy =                       -325.1978458161715935
  Basis Set: (AUG-CC-PVTZ AUX)
    Blend: AUG-CC-PVTZ-RI
    Molecular point group: c1

    Geometry (in Angstrom), charge = 0, multiplicity = 1:

       Center              X                  Y                   Z               Mass
    ------------   -----------------  -----------------  -----------------  -----------------
         O            0.309495083435    -0.694678468858     1.062572012741    15.994914619570
         N           -0.693426916565     0.780018531142    -0.352742987259    14.003074004430
         C           -2.034622916565     0.442434531142     0.088733012741    12.000000000000
         C            1.734057083435     0.565482531142    -0.456654987259    12.000000000000
         C            0.416142083435     0.160936431142     0.199729912741    12.000000000000
         C           -2.573561916565    -0.833432468858    -0.558445987259    12.000000000000
         C            2.879196083435    -0.324207468858     0.021653012741    12.000000000000
         H           -1.992522916565     0.324381531142     1.179042012741     1.007825032230
         H           -2.684369916565     1.297880531142    -0.123641987259     1.007825032230
         H            1.660036783435     0.544483531142    -1.552648387259     1.007825032230
         H            1.918371083435     1.619167531142    -0.195043987259     1.007825032230
         H           -0.577418916565     1.384057531142    -1.159789987259     1.007825032230
         H           -2.609602916565    -0.729241468858    -1.650751987259     1.007825032230
         H           -1.922191916565    -1.676689468858    -0.301151987259     1.007825032230
         H           -3.585490916565    -1.057383468858    -0.199778987259     1.007825032230
         H            2.709080083435    -1.369784468858    -0.255923987259     1.007825032230
         H            3.826609083435     0.004373531142    -0.421652987259     1.007825032230
         H            2.965025083435    -0.287562468858     1.112824012741     1.007825032230

  Basis Set: AUG-CC-PVTZ
    Blend: AUG-CC-PVTZ
  Basis Set: (AUG-CC-PVTZ AUX)
    Blend: AUG-CC-PVTZ-JKFIT
	 Reference Energy          =    -325.1978458161715935 [Eh]
	 Singles Energy            =      -0.0000000000000000 [Eh]
	 Same-Spin Energy          =      -0.3316340228899148 [Eh]
	 Opposite-Spin Energy      =      -1.1191042374084623 [Eh]
	 Correlation Energy        =      -1.4507382602983772 [Eh]
	 Total Energy              =    -326.6485840764699446 [Eh]

	 ================> DF-SCS-MP2 Energies <==================
	-----------------------------------------------------------
	 SCS Same-Spin Scale       =       0.3333333333333333 [-]
	 SCS Opposite-Spin Scale   =       1.2000000000000000 [-]
	 SCS Same-Spin Energy      =      -0.1105446742966383 [Eh]
	 SCS Opposite-Spin Energy  =      -1.3429250848901548 [Eh]
	 SCS Correlation Energy    =      -1.4534697591867931 [Eh]
	 SCS Total Energy          =    -326.6513155753584101 [Eh]
	-----------------------------------------------------------

  Dipole Moment: [D]
     X:    -0.5901      Y:     2.1813      Z:    -2.4955     Total:     3.3666

*** Psi4 exiting successfully. Buy a developer a beer!
