                               Psi4 1.3.2 release

  ==> Input File <==

--------------------------------------------------------------------------
#psi4
#
memory 32 gb

molecule  {
0 1
  O        0.3109550    -0.6942360     1.0654250
  N       -0.6631615     0.8040945    -0.3798004
  C       -2.0331630     0.4428770     0.0915860
  C        1.7089307     0.5988699    -0.4861787
  C        0.4068390     0.1581200     0.1784230
  C       -2.5721020    -0.8329900    -0.5555930
  C        2.8806560    -0.3237650     0.0245060
  H       -1.9910630     0.3248240     1.1818950
  H       -2.6829100     1.2983230    -0.1207890
  H        1.6432190     0.5393270    -1.5482860
  H        1.9198310     1.6196100    -0.1921910
  H       -0.5759590     1.3845000    -1.1569370
  H       -2.6081430    -0.7287990    -1.6478990
  H       -1.9207320    -1.6762470    -0.2982990
  H       -3.5840310    -1.0569410    -0.1969260
  H        2.7105400    -1.3693420    -0.2530710
  H        3.8280690     0.0048160    -0.4188000
  H        2.9664850    -0.2871200     1.1156770
units angstrom
no_reorient  #important for SAPT in psi4, default
symmetry c1  #important for SAPT in psi4, default
}

set PROPERTIES_ORIGIN ["COM"]
properties('MP2/aug-cc-pvtz', properties = ['dipole'])
--------------------------------------------------------------------------

    Molecular point group: c1
  Charge       = 0
  Multiplicity = 1
  Basis Set: AUG-CC-PVTZ
    Blend: AUG-CC-PVTZ
  Basis Set: (AUG-CC-PVTZ AUX)
    Blend: AUG-CC-PVTZ-JKFIT

    Orbital Energies [Eh]
    ---------------------

    Doubly Occupied:

       1A    -20.517529     2A    -15.578168     3A    -11.347225
       4A    -11.265067     5A    -11.237722     6A    -11.216580
       7A    -11.216526     8A     -1.368606     9A     -1.224111
      10A     -1.048883    11A     -1.004689    12A     -0.891424
      13A     -0.835491    14A     -0.789214    15A     -0.691901
      16A     -0.643506    17A     -0.636573    18A     -0.602928
      19A     -0.592101    20A     -0.570785    21A     -0.531231
      22A     -0.515666    23A     -0.514204    24A     -0.499876
      25A     -0.497182    26A     -0.485308    27A     -0.418851
      28A     -0.390358

  @DF-RHF Final Energy:  -325.19289437499100

   => Energetics <=

    Nuclear Repulsion Energy =            312.9853877228947567
    One-Electron Energy =               -1062.0931573303248570
    Two-Electron Energy =                 423.9148752324391012
    Total Energy =                       -325.1928943749909990
  Basis Set: (AUG-CC-PVTZ AUX)
    Blend: AUG-CC-PVTZ-RI
    Molecular point group: c1

    Geometry (in Angstrom), charge = 0, multiplicity = 1:

       Center              X                  Y                   Z               Mass
    ------------   -----------------  -----------------  -----------------  -----------------
         O            0.310120768364    -0.701420687268     1.073412055083    15.994914619570
         N           -0.663995731636     0.796909812732    -0.371813344917    14.003074004430
         C           -2.033997231636     0.435692312732     0.099573055083    12.000000000000
         C            1.708096468364     0.591685212732    -0.478191644917    12.000000000000
         C            0.406004768364     0.150935312732     0.186410055083    12.000000000000
         C           -2.572936231636    -0.840174687268    -0.547605944917    12.000000000000
         C            2.879821768364    -0.330949687268     0.032493055083    12.000000000000
         H           -1.991897231636     0.317639312732     1.189882055083     1.007825032230
         H           -2.683744231636     1.291138312732    -0.112801944917     1.007825032230
         H            1.642384768364     0.532142312732    -1.540298944917     1.007825032230
         H            1.918996768364     1.612425312732    -0.184203944917     1.007825032230
         H           -0.576793231636     1.377315312732    -1.148949944917     1.007825032230
         H           -2.608977231636    -0.735983687268    -1.639911944917     1.007825032230
         H           -1.921566231636    -1.683431687268    -0.290311944917     1.007825032230
         H           -3.584865231636    -1.064125687268    -0.188938944917     1.007825032230
         H            2.709705768364    -1.376526687268    -0.245083944917     1.007825032230
         H            3.827234768364    -0.002368687268    -0.410812944917     1.007825032230
         H            2.965650768364    -0.294304687268     1.123664055083     1.007825032230

  Basis Set: AUG-CC-PVTZ
    Blend: AUG-CC-PVTZ
  Basis Set: (AUG-CC-PVTZ AUX)
    Blend: AUG-CC-PVTZ-JKFIT
	 Reference Energy          =    -325.1928943749909990 [Eh]
	 Singles Energy            =      -0.0000000000000000 [Eh]
	 Same-Spin Energy          =      -0.3314241262489115 [Eh]
	 Opposite-Spin Energy      =      -1.1194444850194794 [Eh]
	 Correlation Energy        =      -1.4508686112683908 [Eh]
	 Total Energy              =    -326.6437629862593894 [Eh]

	 ================> DF-SCS-MP2 Energies <==================
	-----------------------------------------------------------
	 SCS Same-Spin Scale       =       0.3333333333333333 [-]
	 SCS Opposite-Spin Scale   =       1.2000000000000000 [-]
	 SCS Same-Spin Energy      =      -0.1104747087496372 [Eh]
	 SCS Opposite-Spin Energy  =      -1.3433333820233753 [Eh]
	 SCS Correlation Energy    =      -1.4538080907730124 [Eh]
	 SCS Total Energy          =    -326.6467024657640081 [Eh]
	-----------------------------------------------------------

  Dipole Moment: [D]
     X:    -0.8337      Y:     2.2010      Z:    -2.5456     Total:     3.4669

*** Psi4 exiting successfully. Buy a developer a beer!
