                               Psi4 1.4a3.dev225

  ==> Input File <==

--------------------------------------------------------------------------
#psi4
#
memory 32 gb

molecule  {
0 1
  O        0.3358460     1.2965490    -0.1579670
  N       -0.6355700    -0.7573960    -0.3171250
  C       -1.9537600    -0.2153280    -0.6135720
  C        1.6888930    -0.6226540     0.4213110
  C        0.4166970     0.0697910    -0.0414380
  C       -2.7106350     0.2148780     0.6378230
  C        2.9315370     0.1212560    -0.0546130
  H       -1.8024690     0.6408050    -1.2743770
  H       -2.5093410    -0.9768490    -1.1692540
  H        1.6661620    -0.6499400     1.5181760
  H        1.7013640    -1.6638910     0.0787670
  H       -0.5553009    -1.7194587    -0.0904928
  H       -2.8566760    -0.6308240     1.3159630
  H       -2.1451200     0.9906390     1.1579850
  H       -3.6935760     0.6181720     0.3752940
  H        2.8830370     1.1639450     0.2613510
  H        3.8370830    -0.3350390     0.3539010
  H        2.9990550     0.1035600    -1.1453320
units angstrom
no_reorient  #important for SAPT in psi4, default
symmetry c1  #important for SAPT in psi4, default
}

set PROPERTIES_ORIGIN ["COM"]
properties('MP2/aug-cc-pvtz', properties = ['dipole'])
--------------------------------------------------------------------------

    Molecular point group: c1
  Charge       = 0
  Multiplicity = 1
  Basis Set: AUG-CC-PVTZ
    Blend: AUG-CC-PVTZ
  Basis Set: (AUG-CC-PVTZ AUX)
    Blend: AUG-CC-PVTZ-JKFIT

    Orbital Energies [Eh]
    ---------------------

    Doubly Occupied:

       1A    -20.512164     2A    -15.581103     3A    -11.345270
       4A    -11.261827     5A    -11.240659     6A    -11.216166
       7A    -11.215139     8A     -1.367982     9A     -1.228855
      10A     -1.056915    11A     -1.009682    12A     -0.895552
      13A     -0.838876    14A     -0.783197    15A     -0.693035
      16A     -0.656238    17A     -0.621241    18A     -0.605692
      19A     -0.592196    20A     -0.582781    21A     -0.531672
      22A     -0.527991    23A     -0.514904    24A     -0.505052
      25A     -0.496338    26A     -0.482790    27A     -0.417168
      28A     -0.388868

  @DF-RHF Final Energy:  -325.19995536130466

   => Energetics <=

    Nuclear Repulsion Energy =            314.1197664351279286
    One-Electron Energy =               -1064.3007364010391029
    Two-Electron Energy =                 424.9810146046064574
    Total Energy =                       -325.1999553613046601
  Basis Set: (AUG-CC-PVTZ AUX)
    Blend: AUG-CC-PVTZ-RI
    Molecular point group: c1

    Geometry (in Angstrom), charge = 0, multiplicity = 1:

       Center              X                  Y                   Z               Mass
    ------------   -----------------  -----------------  -----------------  -----------------
         O            0.331244152554     1.272118711995    -0.144310383718    15.994914619570
         N           -0.640171847446    -0.781826288005    -0.303468383718    14.003074004430
         C           -1.958361847446    -0.239758288005    -0.599915383718    12.000000000000
         C            1.684291152554    -0.647084288005     0.434967616282    12.000000000000
         C            0.412095152554     0.045360711995    -0.027781383718    12.000000000000
         C           -2.715236847446     0.190447711995     0.651479616282    12.000000000000
         C            2.926935152554     0.096825711995    -0.040956383718    12.000000000000
         H           -1.807070847446     0.616374711995    -1.260720383718     1.007825032230
         H           -2.513942847446    -1.001279288005    -1.155597383718     1.007825032230
         H            1.661560152554    -0.674370288005     1.531832616282     1.007825032230
         H            1.696762152554    -1.688321288005     0.092423616282     1.007825032230
         H           -0.559902747446    -1.743888988005    -0.076836183718     1.007825032230
         H           -2.861277847446    -0.655254288005     1.329619616282     1.007825032230
         H           -2.149721847446     0.966208711995     1.171641616282     1.007825032230
         H           -3.698177847446     0.593741711995     0.388950616282     1.007825032230
         H            2.878435152554     1.139514711995     0.275007616282     1.007825032230
         H            3.832481152554    -0.359469288005     0.367557616282     1.007825032230
         H            2.994453152554     0.079129711995    -1.131675383718     1.007825032230

  Basis Set: AUG-CC-PVTZ
    Blend: AUG-CC-PVTZ
  Basis Set: (AUG-CC-PVTZ AUX)
    Blend: AUG-CC-PVTZ-JKFIT
	 Reference Energy          =    -325.1999553613046601 [Eh]
	 Singles Energy            =      -0.0000000000000000 [Eh]
	 Same-Spin Energy          =      -0.3318212376605431 [Eh]
	 Opposite-Spin Energy      =      -1.1189757855779408 [Eh]
	 Correlation Energy        =      -1.4507970232384839 [Eh]
	 Total Energy              =    -326.6507523845431251 [Eh]

	 ================> DF-SCS-MP2 Energies <==================
	-----------------------------------------------------------
	 SCS Same-Spin Scale       =       0.3333333333333333 [-]
	 SCS Opposite-Spin Scale   =       1.2000000000000000 [-]
	 SCS Same-Spin Energy      =      -0.1106070792201810 [Eh]
	 SCS Opposite-Spin Energy  =      -1.3427709426935288 [Eh]
	 SCS Correlation Energy    =      -1.4533780219137098 [Eh]
	 SCS Total Energy          =    -326.6533333832183530 [Eh]
	-----------------------------------------------------------

  Dipole Moment: [D]
     X:    -0.8164      Y:    -3.3698      Z:     0.3910     Total:     3.4893

*** Psi4 exiting successfully. Buy a developer a beer!
