                               Psi4 1.3.2 release

  ==> Input File <==

--------------------------------------------------------------------------
#psi4
#
memory 32 gb

molecule  {
0 1
  O        0.3109550    -0.6942360     1.0654250
  N       -0.6919670     0.7804610    -0.3498900
  C       -2.0331630     0.4428770     0.0915860
  C        1.7355170     0.5659250    -0.4538020
  C        0.3947119     0.1776854     0.1649955
  C       -2.5721020    -0.8329900    -0.5555930
  C        2.8975224    -0.3098459     0.0092734
  H       -1.9910630     0.3248240     1.1818950
  H       -2.6829100     1.2983230    -0.1207890
  H        1.6432190     0.5393270    -1.5482860
  H        1.9198310     1.6196100    -0.1921910
  H       -0.5759590     1.3845000    -1.1569370
  H       -2.6081430    -0.7287990    -1.6478990
  H       -1.9207320    -1.6762470    -0.2982990
  H       -3.5840310    -1.0569410    -0.1969260
  H        2.7105400    -1.3693420    -0.2530710
  H        3.8280690     0.0048160    -0.4188000
  H        2.9664850    -0.2871200     1.1156770
units angstrom
no_reorient  #important for SAPT in psi4, default
symmetry c1  #important for SAPT in psi4, default
}

set PROPERTIES_ORIGIN ["COM"]
properties('MP2/aug-cc-pvtz', properties = ['dipole'])
--------------------------------------------------------------------------

    Molecular point group: c1
  Charge       = 0
  Multiplicity = 1
  Basis Set: AUG-CC-PVTZ
    Blend: AUG-CC-PVTZ
  Basis Set: (AUG-CC-PVTZ AUX)
    Blend: AUG-CC-PVTZ-JKFIT

    Orbital Energies [Eh]
    ---------------------

    Doubly Occupied:

       1A    -20.508478     2A    -15.586271     3A    -11.345878
       4A    -11.264833     5A    -11.242786     6A    -11.216507
       7A    -11.215675     8A     -1.356220     9A     -1.230402
      10A     -1.054389    11A     -1.009500    12A     -0.896310
      13A     -0.838846    14A     -0.781577    15A     -0.690674
      16A     -0.650358    17A     -0.632492    18A     -0.603471
      19A     -0.585310    20A     -0.574100    21A     -0.538270
      22A     -0.515182    23A     -0.511347    24A     -0.508794
      25A     -0.494828    26A     -0.478006    27A     -0.415534
      28A     -0.387369

  @DF-RHF Final Energy:  -325.19542179496119

   => Energetics <=

    Nuclear Repulsion Energy =            313.4816690506698365
    One-Electron Energy =               -1063.0873677646532087
    Two-Electron Energy =                 424.4102769190222375
    Total Energy =                       -325.1954217949611916
  Basis Set: (AUG-CC-PVTZ AUX)
    Blend: AUG-CC-PVTZ-RI
    Molecular point group: c1

    Geometry (in Angstrom), charge = 0, multiplicity = 1:

       Center              X                  Y                   Z               Mass
    ------------   -----------------  -----------------  -----------------  -----------------
         O            0.310392407108    -0.698210819791     1.068827388356    15.994914619570
         N           -0.692529592892     0.776486180209    -0.346487611644    14.003074004430
         C           -2.033725592892     0.438902180209     0.094988388356    12.000000000000
         C            1.734954407108     0.561950180209    -0.450399611644    12.000000000000
         C            0.394149307108     0.173710580209     0.168397888356    12.000000000000
         C           -2.572664592892    -0.836964819791    -0.552190611644    12.000000000000
         C            2.896959807108    -0.313820719791     0.012675788356    12.000000000000
         H           -1.991625592892     0.320849180209     1.185297388356     1.007825032230
         H           -2.683472592892     1.294348180209    -0.117386611644     1.007825032230
         H            1.642656407108     0.535352180209    -1.544883611644     1.007825032230
         H            1.919268407108     1.615635180209    -0.188788611644     1.007825032230
         H           -0.576521592892     1.380525180209    -1.153534611644     1.007825032230
         H           -2.608705592892    -0.732773819791    -1.644496611644     1.007825032230
         H           -1.921294592892    -1.680221819791    -0.294896611644     1.007825032230
         H           -3.584593592892    -1.060915819791    -0.193523611644     1.007825032230
         H            2.709977407108    -1.373316819791    -0.249668611644     1.007825032230
         H            3.827506407108     0.000841180209    -0.415397611644     1.007825032230
         H            2.965922407108    -0.291094819791     1.119079388356     1.007825032230

  Basis Set: AUG-CC-PVTZ
    Blend: AUG-CC-PVTZ
  Basis Set: (AUG-CC-PVTZ AUX)
    Blend: AUG-CC-PVTZ-JKFIT
	 Reference Energy          =    -325.1954217949611916 [Eh]
	 Singles Energy            =      -0.0000000000000000 [Eh]
	 Same-Spin Energy          =      -0.3322107190911413 [Eh]
	 Opposite-Spin Energy      =      -1.1201593311031663 [Eh]
	 Correlation Energy        =      -1.4523700501943075 [Eh]
	 Total Energy              =    -326.6477918451554956 [Eh]

	 ================> DF-SCS-MP2 Energies <==================
	-----------------------------------------------------------
	 SCS Same-Spin Scale       =       0.3333333333333333 [-]
	 SCS Opposite-Spin Scale   =       1.2000000000000000 [-]
	 SCS Same-Spin Energy      =      -0.1107369063637138 [Eh]
	 SCS Opposite-Spin Energy  =      -1.3441911973237997 [Eh]
	 SCS Correlation Energy    =      -1.4549281036875135 [Eh]
	 SCS Total Energy          =    -326.6503498986486989 [Eh]
	-----------------------------------------------------------

  Dipole Moment: [D]
     X:    -0.8463      Y:     2.3608      Z:    -2.7002     Total:     3.6852

*** Psi4 exiting successfully. Buy a developer a beer!
