                               Psi4 1.3.2 release

  ==> Input File <==

--------------------------------------------------------------------------
#psi4
#
memory 32 gb

molecule  {
0 1
  O        0.3216250    -0.6956562     1.0651483
  N       -0.6919670     0.7804610    -0.3498900
  C       -2.0331630     0.4428770     0.0915860
  C        1.7418581     0.5572326    -0.4459421
  C        0.4068390     0.1581200     0.1784230
  C       -2.5721020    -0.8329900    -0.5555930
  C        2.8806560    -0.3237650     0.0245060
  H       -1.9910630     0.3248240     1.1818950
  H       -2.6829100     1.2983230    -0.1207890
  H        1.6432190     0.5393270    -1.5482860
  H        1.9198310     1.6196100    -0.1921910
  H       -0.5759590     1.3845000    -1.1569370
  H       -2.6081430    -0.7287990    -1.6478990
  H       -1.9207320    -1.6762470    -0.2982990
  H       -3.5840310    -1.0569410    -0.1969260
  H        2.7105400    -1.3693420    -0.2530710
  H        3.8280690     0.0048160    -0.4188000
  H        2.9664850    -0.2871200     1.1156770
units angstrom
no_reorient  #important for SAPT in psi4, default
symmetry c1  #important for SAPT in psi4, default
}

set PROPERTIES_ORIGIN ["COM"]
properties('MP2/aug-cc-pvtz', properties = ['dipole'])
--------------------------------------------------------------------------

    Molecular point group: c1
  Charge       = 0
  Multiplicity = 1
  Basis Set: AUG-CC-PVTZ
    Blend: AUG-CC-PVTZ
  Basis Set: (AUG-CC-PVTZ AUX)
    Blend: AUG-CC-PVTZ-JKFIT

    Orbital Energies [Eh]
    ---------------------

    Doubly Occupied:

       1A    -20.514119     2A    -15.581669     3A    -11.346011
       4A    -11.262707     5A    -11.242760     6A    -11.215297
       7A    -11.215233     8A     -1.368689     9A     -1.225707
      10A     -1.055228    11A     -1.007117    12A     -0.894242
      13A     -0.835835    14A     -0.776550    15A     -0.691812
      16A     -0.648888    17A     -0.632795    18A     -0.605154
      19A     -0.587636    20A     -0.574051    21A     -0.536478
      22A     -0.514500    23A     -0.513626    24A     -0.512667
      25A     -0.494661    26A     -0.480765    27A     -0.417993
      28A     -0.386901

  @DF-RHF Final Energy:  -325.19821323922321

   => Energetics <=

    Nuclear Repulsion Energy =            313.7151682571662263
    One-Electron Energy =               -1063.5485830109148537
    Two-Electron Energy =                 424.6352015145254768
    Total Energy =                       -325.1982132392232074
  Basis Set: (AUG-CC-PVTZ AUX)
    Blend: AUG-CC-PVTZ-RI
    Molecular point group: c1

    Geometry (in Angstrom), charge = 0, multiplicity = 1:

       Center              X                  Y                   Z               Mass
    ------------   -----------------  -----------------  -----------------  -----------------
         O            0.319183897959    -0.694399346697     1.064259070172    15.994914619570
         N           -0.694408102041     0.781717853303    -0.350779229828    14.003074004430
         C           -2.035604102041     0.444133853303     0.090696770172    12.000000000000
         C            1.739416997959     0.558489453303    -0.446831329828    12.000000000000
         C            0.404397897959     0.159376853303     0.177533770172    12.000000000000
         C           -2.574543102041    -0.831733146697    -0.556482229828    12.000000000000
         C            2.878214897959    -0.322508146697     0.023616770172    12.000000000000
         H           -1.993504102041     0.326080853303     1.181005770172     1.007825032230
         H           -2.685351102041     1.299579853303    -0.121678229828     1.007825032230
         H            1.640777897959     0.540583853303    -1.549175229828     1.007825032230
         H            1.917389897959     1.620866853303    -0.193080229828     1.007825032230
         H           -0.578400102041     1.385756853303    -1.157826229828     1.007825032230
         H           -2.610584102041    -0.727542146697    -1.648788229828     1.007825032230
         H           -1.923173102041    -1.674990146697    -0.299188229828     1.007825032230
         H           -3.586472102041    -1.055684146697    -0.197815229828     1.007825032230
         H            2.708098897959    -1.368085146697    -0.253960229828     1.007825032230
         H            3.825627897959     0.006072853303    -0.419689229828     1.007825032230
         H            2.964043897959    -0.285863146697     1.114787770172     1.007825032230

  Basis Set: AUG-CC-PVTZ
    Blend: AUG-CC-PVTZ
  Basis Set: (AUG-CC-PVTZ AUX)
    Blend: AUG-CC-PVTZ-JKFIT
	 Reference Energy          =    -325.1982132392232074 [Eh]
	 Singles Energy            =      -0.0000000000000000 [Eh]
	 Same-Spin Energy          =      -0.3318771899013931 [Eh]
	 Opposite-Spin Energy      =      -1.1194497164396089 [Eh]
	 Correlation Energy        =      -1.4513269063410021 [Eh]
	 Total Energy              =    -326.6495401455642309 [Eh]

	 ================> DF-SCS-MP2 Energies <==================
	-----------------------------------------------------------
	 SCS Same-Spin Scale       =       0.3333333333333333 [-]
	 SCS Opposite-Spin Scale   =       1.2000000000000000 [-]
	 SCS Same-Spin Energy      =      -0.1106257299671310 [Eh]
	 SCS Opposite-Spin Energy  =      -1.3433396597275307 [Eh]
	 SCS Correlation Energy    =      -1.4539653896946616 [Eh]
	 SCS Total Energy          =    -326.6521786289178522 [Eh]
	-----------------------------------------------------------

  Dipole Moment: [D]
     X:    -0.7321      Y:     2.2440      Z:    -2.5765     Total:     3.4942

*** Psi4 exiting successfully. Buy a developer a beer!
