                               Psi4 1.4a3.dev225

  ==> Input File <==

--------------------------------------------------------------------------
#psi4
#
memory 32 gb

molecule  {
0 1
  O        0.3358460     1.2965490    -0.1579670
  N       -0.6355700    -0.7573960    -0.3171250
  C       -1.9537600    -0.2153280    -0.6135720
  C        1.6888930    -0.6226540     0.4213110
  C        0.4180064     0.0499233    -0.0395508
  C       -2.7106350     0.2148780     0.6378230
  C        2.9315370     0.1212560    -0.0546130
  H       -1.8024690     0.6408050    -1.2743770
  H       -2.5093410    -0.9768490    -1.1692540
  H        1.6661620    -0.6499400     1.5181760
  H        1.7013640    -1.6638910     0.0787670
  H       -0.5536820    -1.7388620    -0.0859220
  H       -2.8566760    -0.6308240     1.3159630
  H       -2.1451200     0.9906390     1.1579850
  H       -3.6935760     0.6181720     0.3752940
  H        2.8830370     1.1639450     0.2613510
  H        3.8370830    -0.3350390     0.3539010
  H        2.9990550     0.1035600    -1.1453320
units angstrom
no_reorient  #important for SAPT in psi4, default
symmetry c1  #important for SAPT in psi4, default
}

set PROPERTIES_ORIGIN ["COM"]
properties('MP2/aug-cc-pvtz', properties = ['dipole'])
--------------------------------------------------------------------------

    Molecular point group: c1
  Charge       = 0
  Multiplicity = 1
  Basis Set: AUG-CC-PVTZ
    Blend: AUG-CC-PVTZ
  Basis Set: (AUG-CC-PVTZ AUX)
    Blend: AUG-CC-PVTZ-JKFIT

    Orbital Energies [Eh]
    ---------------------

    Doubly Occupied:

       1A    -20.507967     2A    -15.586135     3A    -11.345610
       4A    -11.263264     5A    -11.241277     6A    -11.216409
       7A    -11.215720     8A     -1.356390     9A     -1.227696
      10A     -1.058772    11A     -1.010989    12A     -0.897572
      13A     -0.840559    14A     -0.780193    15A     -0.692318
      16A     -0.656550    17A     -0.621495    18A     -0.604602
      19A     -0.591903    20A     -0.578253    21A     -0.532610
      22A     -0.527391    23A     -0.513077    24A     -0.504549
      25A     -0.496682    26A     -0.480106    27A     -0.415954
      28A     -0.387958

  @DF-RHF Final Energy:  -325.19743196279222

   => Energetics <=

    Nuclear Repulsion Energy =            313.9134649609085841
    One-Electron Energy =               -1063.9177928707201772
    Two-Electron Energy =                 424.8068959470193136
    Total Energy =                       -325.1974319627922227
  Basis Set: (AUG-CC-PVTZ AUX)
    Blend: AUG-CC-PVTZ-RI
    Molecular point group: c1

    Geometry (in Angstrom), charge = 0, multiplicity = 1:

       Center              X                  Y                   Z               Mass
    ------------   -----------------  -----------------  -----------------  -----------------
         O            0.331072568951     1.274670721890    -0.144579990673    15.994914619570
         N           -0.640343431049    -0.779274278110    -0.303737990673    14.003074004430
         C           -1.958533431049    -0.237206278110    -0.600184990673    12.000000000000
         C            1.684119568951    -0.644532278110     0.434698009327    12.000000000000
         C            0.413232968951     0.028045021890    -0.026163790673    12.000000000000
         C           -2.715408431049     0.192999721890     0.651210009327    12.000000000000
         C            2.926763568951     0.099377721890    -0.041225990673    12.000000000000
         H           -1.807242431049     0.618926721890    -1.260989990673     1.007825032230
         H           -2.514114431049    -0.998727278110    -1.155866990673     1.007825032230
         H            1.661388568951    -0.671818278110     1.531563009327     1.007825032230
         H            1.696590568951    -1.685769278110     0.092154009327     1.007825032230
         H           -0.558455431049    -1.760740278110    -0.072534990673     1.007825032230
         H           -2.861449431049    -0.652702278110     1.329350009327     1.007825032230
         H           -2.149893431049     0.968760721890     1.171372009327     1.007825032230
         H           -3.698349431049     0.596293721890     0.388681009327     1.007825032230
         H            2.878263568951     1.142066721890     0.274738009327     1.007825032230
         H            3.832309568951    -0.356917278110     0.367288009327     1.007825032230
         H            2.994281568951     0.081681721890    -1.131944990673     1.007825032230

  Basis Set: AUG-CC-PVTZ
    Blend: AUG-CC-PVTZ
  Basis Set: (AUG-CC-PVTZ AUX)
    Blend: AUG-CC-PVTZ-JKFIT
	 Reference Energy          =    -325.1974319627922227 [Eh]
	 Singles Energy            =      -0.0000000000000000 [Eh]
	 Same-Spin Energy          =      -0.3323830679833549 [Eh]
	 Opposite-Spin Energy      =      -1.1201203053427453 [Eh]
	 Correlation Energy        =      -1.4525033733261004 [Eh]
	 Total Energy              =    -326.6499353361183466 [Eh]

	 ================> DF-SCS-MP2 Energies <==================
	-----------------------------------------------------------
	 SCS Same-Spin Scale       =       0.3333333333333333 [-]
	 SCS Opposite-Spin Scale   =       1.2000000000000000 [-]
	 SCS Same-Spin Energy      =      -0.1107943559944516 [Eh]
	 SCS Opposite-Spin Energy  =      -1.3441443664112944 [Eh]
	 SCS Correlation Energy    =      -1.4549387224057460 [Eh]
	 SCS Total Energy          =    -326.6523706851979796 [Eh]
	-----------------------------------------------------------

  Dipole Moment: [D]
     X:    -0.8632      Y:    -3.5043      Z:     0.3945     Total:     3.6305

*** Psi4 exiting successfully. Buy a developer a beer!
