                               Psi4 1.4a3.dev225

  ==> Input File <==

--------------------------------------------------------------------------
#psi4
#
memory 32 gb

molecule  {
0 1
  O        0.3358460     1.2965490    -0.1579670
  N       -0.6355700    -0.7573960    -0.3171250
  C       -1.9718695    -0.2078810    -0.6176446
  C        1.6888930    -0.6226540     0.4213110
  C        0.4166970     0.0697910    -0.0414380
  C       -2.7106350     0.2148780     0.6378230
  C        2.9315370     0.1212560    -0.0546130
  H       -1.8024690     0.6408050    -1.2743770
  H       -2.5093410    -0.9768490    -1.1692540
  H        1.6661620    -0.6499400     1.5181760
  H        1.7013640    -1.6638910     0.0787670
  H       -0.5536820    -1.7388620    -0.0859220
  H       -2.8566760    -0.6308240     1.3159630
  H       -2.1451200     0.9906390     1.1579850
  H       -3.6935760     0.6181720     0.3752940
  H        2.8830370     1.1639450     0.2613510
  H        3.8370830    -0.3350390     0.3539010
  H        2.9990550     0.1035600    -1.1453320
units angstrom
no_reorient  #important for SAPT in psi4, default
symmetry c1  #important for SAPT in psi4, default
}

set PROPERTIES_ORIGIN ["COM"]
properties('MP2/aug-cc-pvtz', properties = ['dipole'])
--------------------------------------------------------------------------

    Molecular point group: c1
  Charge       = 0
  Multiplicity = 1
  Basis Set: AUG-CC-PVTZ
    Blend: AUG-CC-PVTZ
  Basis Set: (AUG-CC-PVTZ AUX)
    Blend: AUG-CC-PVTZ-JKFIT

    Orbital Energies [Eh]
    ---------------------

    Doubly Occupied:

       1A    -20.511175     2A    -15.582066     3A    -11.344374
       4A    -11.262470     5A    -11.239957     6A    -11.215648
       7A    -11.215595     8A     -1.366502     9A     -1.222093
      10A     -1.056344    11A     -1.011177    12A     -0.894048
      13A     -0.838821    14A     -0.776943    15A     -0.691586
      16A     -0.653572    17A     -0.619670    18A     -0.606998
      19A     -0.591287    20A     -0.581804    21A     -0.533040
      22A     -0.526756    23A     -0.513722    24A     -0.504817
      25A     -0.498206    26A     -0.483082    27A     -0.415980
      28A     -0.388791

  @DF-RHF Final Energy:  -325.19918820602862

   => Energetics <=

    Nuclear Repulsion Energy =            313.7442573747508732
    One-Electron Energy =               -1063.5938425595961689
    Two-Electron Energy =                 424.6503969788166728
    Total Energy =                       -325.1991882060286230
  Basis Set: (AUG-CC-PVTZ AUX)
    Blend: AUG-CC-PVTZ-RI
    Molecular point group: c1

    Geometry (in Angstrom), charge = 0, multiplicity = 1:

       Center              X                  Y                   Z               Mass
    ------------   -----------------  -----------------  -----------------  -----------------
         O            0.333377846270     1.271428109878    -0.143872484493    15.994914619570
         N           -0.638038153730    -0.782516890122    -0.303030484493    14.003074004430
         C           -1.974337653730    -0.233001890122    -0.603550084493    12.000000000000
         C            1.686424846270    -0.647774890122     0.435405515507    12.000000000000
         C            0.414228846270     0.044670109878    -0.027343484493    12.000000000000
         C           -2.713103153730     0.189757109878     0.651917515507    12.000000000000
         C            2.929068846270     0.096135109878    -0.040518484493    12.000000000000
         H           -1.804937153730     0.615684109878    -1.260282484493     1.007825032230
         H           -2.511809153730    -1.001969890122    -1.155159484493     1.007825032230
         H            1.663693846270    -0.675060890122     1.532270515507     1.007825032230
         H            1.698895846270    -1.689011890122     0.092861515507     1.007825032230
         H           -0.556150153730    -1.763982890122    -0.071827484493     1.007825032230
         H           -2.859144153730    -0.655944890122     1.330057515507     1.007825032230
         H           -2.147588153730     0.965518109878     1.172079515507     1.007825032230
         H           -3.696044153730     0.593051109878     0.389388515507     1.007825032230
         H            2.880568846270     1.138824109878     0.275445515507     1.007825032230
         H            3.834614846270    -0.360159890122     0.367995515507     1.007825032230
         H            2.996586846270     0.078439109878    -1.131237484493     1.007825032230

  Basis Set: AUG-CC-PVTZ
    Blend: AUG-CC-PVTZ
  Basis Set: (AUG-CC-PVTZ AUX)
    Blend: AUG-CC-PVTZ-JKFIT
	 Reference Energy          =    -325.1991882060286230 [Eh]
	 Singles Energy            =      -0.0000000000000000 [Eh]
	 Same-Spin Energy          =      -0.3319073181534421 [Eh]
	 Opposite-Spin Energy      =      -1.1193655744926931 [Eh]
	 Correlation Energy        =      -1.4512728926461351 [Eh]
	 Total Energy              =    -326.6504610986747821 [Eh]

	 ================> DF-SCS-MP2 Energies <==================
	-----------------------------------------------------------
	 SCS Same-Spin Scale       =       0.3333333333333333 [-]
	 SCS Opposite-Spin Scale   =       1.2000000000000000 [-]
	 SCS Same-Spin Energy      =      -0.1106357727178140 [Eh]
	 SCS Opposite-Spin Energy  =      -1.3432386893912318 [Eh]
	 SCS Correlation Energy    =      -1.4538744621090458 [Eh]
	 SCS Total Energy          =    -326.6530626681376930 [Eh]
	-----------------------------------------------------------

  Dipole Moment: [D]
     X:    -0.8855      Y:    -3.3752      Z:     0.3917     Total:     3.5113

*** Psi4 exiting successfully. Buy a developer a beer!
