                               Psi4 1.3.2 release

  ==> Input File <==

--------------------------------------------------------------------------
#psi4
#
memory 32 gb

molecule  {
0 1
  O        0.3323843    -0.6963679     1.0654314
  N       -0.6776536     0.7930420    -0.3642991
  C       -2.0331630     0.4428770     0.0915860
  C        1.7355170     0.5659250    -0.4538020
  C        0.4068390     0.1581200     0.1784230
  C       -2.5721020    -0.8329900    -0.5555930
  C        2.8806560    -0.3237650     0.0245060
  H       -1.9910630     0.3248240     1.1818950
  H       -2.6829100     1.2983230    -0.1207890
  H        1.6432190     0.5393270    -1.5482860
  H        1.9198310     1.6196100    -0.1921910
  H       -0.5759590     1.3845000    -1.1569370
  H       -2.6081430    -0.7287990    -1.6478990
  H       -1.9207320    -1.6762470    -0.2982990
  H       -3.5840310    -1.0569410    -0.1969260
  H        2.7105400    -1.3693420    -0.2530710
  H        3.8280690     0.0048160    -0.4188000
  H        2.9664850    -0.2871200     1.1156770
units angstrom
no_reorient  #important for SAPT in psi4, default
symmetry c1  #important for SAPT in psi4, default
}

set PROPERTIES_ORIGIN ["COM"]
properties('MP2/aug-cc-pvtz', properties = ['dipole'])
--------------------------------------------------------------------------

    Molecular point group: c1
  Charge       = 0
  Multiplicity = 1
  Basis Set: AUG-CC-PVTZ
    Blend: AUG-CC-PVTZ
  Basis Set: (AUG-CC-PVTZ AUX)
    Blend: AUG-CC-PVTZ-JKFIT

    Orbital Energies [Eh]
    ---------------------

    Doubly Occupied:

       1A    -20.515520     2A    -15.580962     3A    -11.346374
       4A    -11.264677     5A    -11.240179     6A    -11.216441
       7A    -11.214583     8A     -1.368345     9A     -1.225525
      10A     -1.052722    11A     -1.007213    12A     -0.892779
      13A     -0.835347    14A     -0.782928    15A     -0.691066
      16A     -0.646410    17A     -0.632818    18A     -0.604399
      19A     -0.590123    20A     -0.573214    21A     -0.534825
      22A     -0.514412    23A     -0.512682    24A     -0.509672
      25A     -0.495733    26A     -0.482570    27A     -0.417822
      28A     -0.389301

  @DF-RHF Final Energy:  -325.19800116147866

   => Energetics <=

    Nuclear Repulsion Energy =            313.3904946750365639
    One-Electron Energy =               -1062.8997049189831614
    Two-Electron Energy =                 424.3112090824679967
    Total Energy =                       -325.1980011614786577
  Basis Set: (AUG-CC-PVTZ AUX)
    Blend: AUG-CC-PVTZ-RI
    Molecular point group: c1

    Geometry (in Angstrom), charge = 0, multiplicity = 1:

       Center              X                  Y                   Z               Mass
    ------------   -----------------  -----------------  -----------------  -----------------
         O            0.327010663664    -0.697773166547     1.067426525250    15.994914619570
         N           -0.683027236336     0.791636733453    -0.362303974750    14.003074004430
         C           -2.038536636336     0.441471733453     0.093581125250    12.000000000000
         C            1.730143363664     0.564519733453    -0.451806874750    12.000000000000
         C            0.401465363664     0.156714733453     0.180418125250    12.000000000000
         C           -2.577475636336    -0.834395266547    -0.553597874750    12.000000000000
         C            2.875282363664    -0.325170266547     0.026501125250    12.000000000000
         H           -1.996436636336     0.323418733453     1.183890125250     1.007825032230
         H           -2.688283636336     1.296917733453    -0.118793874750     1.007825032230
         H            1.637845363664     0.537921733453    -1.546290874750     1.007825032230
         H            1.914457363664     1.618204733453    -0.190195874750     1.007825032230
         H           -0.581332636336     1.383094733453    -1.154941874750     1.007825032230
         H           -2.613516636336    -0.730204266547    -1.645903874750     1.007825032230
         H           -1.926105636336    -1.677652266547    -0.296303874750     1.007825032230
         H           -3.589404636336    -1.058346266547    -0.194930874750     1.007825032230
         H            2.705166363664    -1.370747266547    -0.251075874750     1.007825032230
         H            3.822695363664     0.003410733453    -0.416804874750     1.007825032230
         H            2.961111363664    -0.288525266547     1.117672125250     1.007825032230

  Basis Set: AUG-CC-PVTZ
    Blend: AUG-CC-PVTZ
  Basis Set: (AUG-CC-PVTZ AUX)
    Blend: AUG-CC-PVTZ-JKFIT
	 Reference Energy          =    -325.1980011614786577 [Eh]
	 Singles Energy            =      -0.0000000000000000 [Eh]
	 Same-Spin Energy          =      -0.3316241515191197 [Eh]
	 Opposite-Spin Energy      =      -1.1192729171511508 [Eh]
	 Correlation Energy        =      -1.4508970686702707 [Eh]
	 Total Energy              =    -326.6488982301489159 [Eh]

	 ================> DF-SCS-MP2 Energies <==================
	-----------------------------------------------------------
	 SCS Same-Spin Scale       =       0.3333333333333333 [-]
	 SCS Opposite-Spin Scale   =       1.2000000000000000 [-]
	 SCS Same-Spin Energy      =      -0.1105413838397066 [Eh]
	 SCS Opposite-Spin Energy  =      -1.3431275005813810 [Eh]
	 SCS Correlation Energy    =      -1.4536688844210874 [Eh]
	 SCS Total Energy          =    -326.6516700458997207 [Eh]
	-----------------------------------------------------------

  Dipole Moment: [D]
     X:    -0.8313      Y:     2.2200      Z:    -2.5592     Total:     3.4884

*** Psi4 exiting successfully. Buy a developer a beer!
