                               Psi4 1.3.2 release

  ==> Input File <==

--------------------------------------------------------------------------
#psi4
#
memory 32 gb

molecule  {
0 1
  O        0.3109550    -0.6942360     1.0654250
  N       -0.6919670     0.7804610    -0.3498900
  C       -2.0517402     0.4710411     0.0537767
  C        1.7355170     0.5659250    -0.4538020
  C        0.4068390     0.1581200     0.1784230
  C       -2.5721020    -0.8329900    -0.5555930
  C        2.8806560    -0.3237650     0.0245060
  H       -1.9910630     0.3248240     1.1818950
  H       -2.6829100     1.2983230    -0.1207890
  H        1.6432190     0.5393270    -1.5482860
  H        1.9198310     1.6196100    -0.1921910
  H       -0.6112101     1.3864299    -1.1597825
  H       -2.6081430    -0.7287990    -1.6478990
  H       -1.9207320    -1.6762470    -0.2982990
  H       -3.5840310    -1.0569410    -0.1969260
  H        2.7105400    -1.3693420    -0.2530710
  H        3.8280690     0.0048160    -0.4188000
  H        2.9664850    -0.2871200     1.1156770
units angstrom
no_reorient  #important for SAPT in psi4, default
symmetry c1  #important for SAPT in psi4, default
}

set PROPERTIES_ORIGIN ["COM"]
properties('MP2/aug-cc-pvtz', properties = ['dipole'])
--------------------------------------------------------------------------

    Molecular point group: c1
  Charge       = 0
  Multiplicity = 1
  Basis Set: AUG-CC-PVTZ
    Blend: AUG-CC-PVTZ
  Basis Set: (AUG-CC-PVTZ AUX)
    Blend: AUG-CC-PVTZ-JKFIT

    Orbital Energies [Eh]
    ---------------------

    Doubly Occupied:

       1A    -20.514782     2A    -15.581149     3A    -11.347641
       4A    -11.261689     5A    -11.242695     6A    -11.216105
       7A    -11.215274     8A     -1.368776     9A     -1.225153
      10A     -1.054419    11A     -1.005933    12A     -0.895286
      13A     -0.837044    14A     -0.776031    15A     -0.694455
      16A     -0.647740    17A     -0.633814    18A     -0.606617
      19A     -0.586729    20A     -0.571025    21A     -0.534585
      22A     -0.519437    23A     -0.514240    24A     -0.510539
      25A     -0.493919    26A     -0.477180    27A     -0.419259
      28A     -0.385823

  @DF-RHF Final Energy:  -325.19450047765577

   => Energetics <=

    Nuclear Repulsion Energy =            313.4081265365101672
    One-Electron Energy =               -1062.9305764027469650
    Two-Electron Energy =                 424.3279493885810325
    Total Energy =                       -325.1945004776557653
  Basis Set: (AUG-CC-PVTZ AUX)
    Blend: AUG-CC-PVTZ-RI
    Molecular point group: c1

    Geometry (in Angstrom), charge = 0, multiplicity = 1:

       Center              X                  Y                   Z               Mass
    ------------   -----------------  -----------------  -----------------  -----------------
         O            0.313511839871    -0.697598460176     1.069941888127    15.994914619570
         N           -0.689410160129     0.777098539824    -0.345373111873    14.003074004430
         C           -2.049183360129     0.467678639824     0.058293588127    12.000000000000
         C            1.738073839871     0.562562539824    -0.449285111873    12.000000000000
         C            0.409395839871     0.154757539824     0.182939888127    12.000000000000
         C           -2.569545160129    -0.836352460176    -0.551076111873    12.000000000000
         C            2.883212839871    -0.327127460176     0.029022888127    12.000000000000
         H           -1.988506160129     0.321461539824     1.186411888127     1.007825032230
         H           -2.680353160129     1.294960539824    -0.116272111873     1.007825032230
         H            1.645775839871     0.535964539824    -1.543769111873     1.007825032230
         H            1.922387839871     1.616247539824    -0.187674111873     1.007825032230
         H           -0.608653260129     1.383067439824    -1.155265611873     1.007825032230
         H           -2.605586160129    -0.732161460176    -1.643382111873     1.007825032230
         H           -1.918175160129    -1.679609460176    -0.293782111873     1.007825032230
         H           -3.581474160129    -1.060303460176    -0.192409111873     1.007825032230
         H            2.713096839871    -1.372704460176    -0.248554111873     1.007825032230
         H            3.830625839871     0.001453539824    -0.414283111873     1.007825032230
         H            2.969041839871    -0.290482460176     1.120193888127     1.007825032230

  Basis Set: AUG-CC-PVTZ
    Blend: AUG-CC-PVTZ
  Basis Set: (AUG-CC-PVTZ AUX)
    Blend: AUG-CC-PVTZ-JKFIT
	 Reference Energy          =    -325.1945004776557653 [Eh]
	 Singles Energy            =      -0.0000000000000000 [Eh]
	 Same-Spin Energy          =      -0.3319519465630801 [Eh]
	 Opposite-Spin Energy      =      -1.1197549153347122 [Eh]
	 Correlation Energy        =      -1.4517068618977924 [Eh]
	 Total Energy              =    -326.6462073395535413 [Eh]

	 ================> DF-SCS-MP2 Energies <==================
	-----------------------------------------------------------
	 SCS Same-Spin Scale       =       0.3333333333333333 [-]
	 SCS Opposite-Spin Scale   =       1.2000000000000000 [-]
	 SCS Same-Spin Energy      =      -0.1106506488543600 [Eh]
	 SCS Opposite-Spin Energy  =      -1.3437058984016546 [Eh]
	 SCS Correlation Energy    =      -1.4543565472560145 [Eh]
	 SCS Total Energy          =    -326.6488570249117629 [Eh]
	-----------------------------------------------------------

  Dipole Moment: [D]
     X:    -0.7225      Y:     2.2646      Z:    -2.6087     Total:     3.5292

*** Psi4 exiting successfully. Buy a developer a beer!
