                               Psi4 1.3.2 release

  ==> Input File <==

--------------------------------------------------------------------------
#psi4
#
memory 32 gb

molecule  {
0 1
  O        0.3109550    -0.6942360     1.0654250
  N       -0.6919670     0.7804610    -0.3498900
  C       -2.0331630     0.4428770     0.0915860
  C        1.7355170     0.5659250    -0.4538020
  C        0.2462966     0.2490479     0.1012332
  C       -2.5721020    -0.8329900    -0.5555930
  C        2.8806560    -0.3237650     0.0245060
  H       -1.9910630     0.3248240     1.1818950
  H       -2.6829100     1.2983230    -0.1207890
  H        1.6432190     0.5393270    -1.5482860
  H        1.9198310     1.6196100    -0.1921910
  H       -0.5759590     1.3845000    -1.1569370
  H       -2.6081430    -0.7287990    -1.6478990
  H       -1.9207320    -1.6762470    -0.2982990
  H       -3.5840310    -1.0569410    -0.1969260
  H        2.7105400    -1.3693420    -0.2530710
  H        3.8280690     0.0048160    -0.4188000
  H        2.9664850    -0.2871200     1.1156770
units angstrom
no_reorient  #important for SAPT in psi4, default
symmetry c1  #important for SAPT in psi4, default
}

set PROPERTIES_ORIGIN ["COM"]
properties('MP2/aug-cc-pvtz', properties = ['dipole'])
--------------------------------------------------------------------------

    Molecular point group: c1
  Charge       = 0
  Multiplicity = 1
  Basis Set: AUG-CC-PVTZ
    Blend: AUG-CC-PVTZ
  Basis Set: (AUG-CC-PVTZ AUX)
    Blend: AUG-CC-PVTZ-JKFIT

    Orbital Energies [Eh]
    ---------------------

    Doubly Occupied:

       1A    -20.475227     2A    -15.614095     3A    -11.329427
       4A    -11.280907     5A    -11.241035     6A    -11.228077
       7A    -11.208025     8A     -1.371732     9A     -1.228571
      10A     -1.056226    11A     -1.015726    12A     -0.906950
      13A     -0.844568    14A     -0.827404    15A     -0.698663
      16A     -0.649366    17A     -0.634189    18A     -0.610074
      19A     -0.593149    20A     -0.551422    21A     -0.544234
      22A     -0.515537    23A     -0.511769    24A     -0.505479
      25A     -0.479145    26A     -0.473606    27A     -0.382359
      28A     -0.378055

  @DF-RHF Final Energy:  -325.13198581324838

   => Energetics <=

    Nuclear Repulsion Energy =            314.4344287424246431
    One-Electron Energy =               -1064.8227969896074683
    Two-Electron Energy =                 425.2563824339344478
    Total Energy =                       -325.1319858132483773
  Basis Set: (AUG-CC-PVTZ AUX)
    Blend: AUG-CC-PVTZ-RI
    Molecular point group: c1

    Geometry (in Angstrom), charge = 0, multiplicity = 1:

       Center              X                  Y                   Z               Mass
    ------------   -----------------  -----------------  -----------------  -----------------
         O            0.330013505845    -0.705030102404     1.074588498239    15.994914619570
         N           -0.672908494155     0.769666897596    -0.340726501761    14.003074004430
         C           -2.014104494155     0.432082897596     0.100749498239    12.000000000000
         C            1.754575505845     0.555130897596    -0.444638501761    12.000000000000
         C            0.265355105845     0.238253797596     0.110396698239    12.000000000000
         C           -2.553043494155    -0.843784102404    -0.546429501761    12.000000000000
         C            2.899714505845    -0.334559102404     0.033669498239    12.000000000000
         H           -1.972004494155     0.314029897596     1.191058498239     1.007825032230
         H           -2.663851494155     1.287528897596    -0.111625501761     1.007825032230
         H            1.662277505845     0.528532897596    -1.539122501761     1.007825032230
         H            1.938889505845     1.608815897596    -0.183027501761     1.007825032230
         H           -0.556900494155     1.373705897596    -1.147773501761     1.007825032230
         H           -2.589084494155    -0.739593102404    -1.638735501761     1.007825032230
         H           -1.901673494155    -1.687041102404    -0.289135501761     1.007825032230
         H           -3.564972494155    -1.067735102404    -0.187762501761     1.007825032230
         H            2.729598505845    -1.380136102404    -0.243907501761     1.007825032230
         H            3.847127505845    -0.005978102404    -0.409636501761     1.007825032230
         H            2.985543505845    -0.297914102404     1.124840498239     1.007825032230

  Basis Set: AUG-CC-PVTZ
    Blend: AUG-CC-PVTZ
  Basis Set: (AUG-CC-PVTZ AUX)
    Blend: AUG-CC-PVTZ-JKFIT
	 Reference Energy          =    -325.1319858132483773 [Eh]
	 Singles Energy            =      -0.0000000000000000 [Eh]
	 Same-Spin Energy          =      -0.3332603089384321 [Eh]
	 Opposite-Spin Energy      =      -1.1220462684186447 [Eh]
	 Correlation Energy        =      -1.4553065773570768 [Eh]
	 Total Energy              =    -326.5872923906054552 [Eh]

	 ================> DF-SCS-MP2 Energies <==================
	-----------------------------------------------------------
	 SCS Same-Spin Scale       =       0.3333333333333333 [-]
	 SCS Opposite-Spin Scale   =       1.2000000000000000 [-]
	 SCS Same-Spin Energy      =      -0.1110867696461440 [Eh]
	 SCS Opposite-Spin Energy  =      -1.3464555221023737 [Eh]
	 SCS Correlation Energy    =      -1.4575422917485177 [Eh]
	 SCS Total Energy          =    -326.5895281049968730 [Eh]
	-----------------------------------------------------------

  Dipole Moment: [D]
     X:    -2.0204      Y:     2.9304      Z:    -3.2895     Total:     4.8466

*** Psi4 exiting successfully. Buy a developer a beer!
