                               Psi4 1.3.2 release

  ==> Input File <==

--------------------------------------------------------------------------
#psi4
#
memory 32 gb

molecule  {
0 1
  O        0.3109550    -0.6942360     1.0654250
  N       -0.6919670     0.7804610    -0.3498900
  C       -2.0331630     0.4428770     0.0915860
  C        1.7355170     0.5659250    -0.4538020
  C        0.3198205     0.1314118     0.2198290
  C       -2.5721020    -0.8329900    -0.5555930
  C        2.8806560    -0.3237650     0.0245060
  H       -1.9910630     0.3248240     1.1818950
  H       -2.6829100     1.2983230    -0.1207890
  H        1.6432190     0.5393270    -1.5482860
  H        1.9198310     1.6196100    -0.1921910
  H       -0.5759590     1.3845000    -1.1569370
  H       -2.6081430    -0.7287990    -1.6478990
  H       -1.9207320    -1.6762470    -0.2982990
  H       -3.5840310    -1.0569410    -0.1969260
  H        2.7105400    -1.3693420    -0.2530710
  H        3.8280690     0.0048160    -0.4188000
  H        2.9664850    -0.2871200     1.1156770
units angstrom
no_reorient  #important for SAPT in psi4, default
symmetry c1  #important for SAPT in psi4, default
}

set PROPERTIES_ORIGIN ["COM"]
properties('MP2/aug-cc-pvtz', properties = ['dipole'])
--------------------------------------------------------------------------

    Molecular point group: c1
  Charge       = 0
  Multiplicity = 1
  Basis Set: AUG-CC-PVTZ
    Blend: AUG-CC-PVTZ
  Basis Set: (AUG-CC-PVTZ AUX)
    Blend: AUG-CC-PVTZ-JKFIT

    Orbital Energies [Eh]
    ---------------------

    Doubly Occupied:

       1A    -20.518527     2A    -15.583650     3A    -11.340098
       4A    -11.264163     5A    -11.234321     6A    -11.218299
       7A    -11.210004     8A     -1.401911     9A     -1.244552
      10A     -1.038737    11A     -1.006746    12A     -0.885745
      13A     -0.830560    14A     -0.793091    15A     -0.688644
      16A     -0.655269    17A     -0.629161    18A     -0.605475
      19A     -0.597164    20A     -0.579011    21A     -0.537508
      22A     -0.520438    23A     -0.514016    24A     -0.506831
      25A     -0.496506    26A     -0.484841    27A     -0.402648
      28A     -0.394973

  @DF-RHF Final Energy:  -325.19119261733226

   => Energetics <=

    Nuclear Repulsion Energy =            314.3866019565936654
    One-Electron Energy =               -1064.7898107982236979
    Two-Electron Energy =                 425.2120162242977131
    Total Energy =                       -325.1911926173322627
  Basis Set: (AUG-CC-PVTZ AUX)
    Blend: AUG-CC-PVTZ-RI
    Molecular point group: c1

    Geometry (in Angstrom), charge = 0, multiplicity = 1:

       Center              X                  Y                   Z               Mass
    ------------   -----------------  -----------------  -----------------  -----------------
         O            0.321285257639    -0.691065159322     1.060509626219    15.994914619570
         N           -0.681636742361     0.783631840678    -0.354805373781    14.003074004430
         C           -2.022832742361     0.446047840678     0.086670626219    12.000000000000
         C            1.745847257639     0.569095840678    -0.458717373781    12.000000000000
         C            0.330150757639     0.134582640678     0.214913626219    12.000000000000
         C           -2.561771742361    -0.829819159322    -0.560508373781    12.000000000000
         C            2.890986257639    -0.320594159322     0.019590626219    12.000000000000
         H           -1.980732742361     0.327994840678     1.176979626219     1.007825032230
         H           -2.672579742361     1.301493840678    -0.125704373781     1.007825032230
         H            1.653549257639     0.542497840678    -1.553201373781     1.007825032230
         H            1.930161257639     1.622780840678    -0.197106373781     1.007825032230
         H           -0.565628742361     1.387670840678    -1.161852373781     1.007825032230
         H           -2.597812742361    -0.725628159322    -1.652814373781     1.007825032230
         H           -1.910401742361    -1.673076159322    -0.303214373781     1.007825032230
         H           -3.573700742361    -1.053770159322    -0.201841373781     1.007825032230
         H            2.720870257639    -1.366171159322    -0.257986373781     1.007825032230
         H            3.838399257639     0.007986840678    -0.423715373781     1.007825032230
         H            2.976815257639    -0.283949159322     1.110761626219     1.007825032230

  Basis Set: AUG-CC-PVTZ
    Blend: AUG-CC-PVTZ
  Basis Set: (AUG-CC-PVTZ AUX)
    Blend: AUG-CC-PVTZ-JKFIT
	 Reference Energy          =    -325.1911926173322627 [Eh]
	 Singles Energy            =      -0.0000000000000000 [Eh]
	 Same-Spin Energy          =      -0.3307727908852287 [Eh]
	 Opposite-Spin Energy      =      -1.1172850394039684 [Eh]
	 Correlation Energy        =      -1.4480578302891971 [Eh]
	 Total Energy              =    -326.6392504476214640 [Eh]

	 ================> DF-SCS-MP2 Energies <==================
	-----------------------------------------------------------
	 SCS Same-Spin Scale       =       0.3333333333333333 [-]
	 SCS Opposite-Spin Scale   =       1.2000000000000000 [-]
	 SCS Same-Spin Energy      =      -0.1102575969617429 [Eh]
	 SCS Opposite-Spin Energy  =      -1.3407420472847620 [Eh]
	 SCS Correlation Energy    =      -1.4509996442465050 [Eh]
	 SCS Total Energy          =    -326.6421922615787707 [Eh]
	-----------------------------------------------------------

  Dipole Moment: [D]
     X:    -1.2298      Y:     2.1321      Z:    -2.4106     Total:     3.4452

*** Psi4 exiting successfully. Buy a developer a beer!
