                               Psi4 1.3.2 release

  ==> Input File <==

--------------------------------------------------------------------------
#psi4
#
memory 32 gb

molecule  {
0 1
  O        0.2468683    -0.6862853     1.0637851
  N       -0.7328819     0.7415962    -0.3057148
  C       -2.0331630     0.4428770     0.0915860
  C        1.7355170     0.5659250    -0.4538020
  C        0.4068390     0.1581200     0.1784230
  C       -2.5721020    -0.8329900    -0.5555930
  C        2.8806560    -0.3237650     0.0245060
  H       -1.9910630     0.3248240     1.1818950
  H       -2.6829100     1.2983230    -0.1207890
  H        1.6432190     0.5393270    -1.5482860
  H        1.9198310     1.6196100    -0.1921910
  H       -0.5759590     1.3845000    -1.1569370
  H       -2.6081430    -0.7287990    -1.6478990
  H       -1.9207320    -1.6762470    -0.2982990
  H       -3.5840310    -1.0569410    -0.1969260
  H        2.7105400    -1.3693420    -0.2530710
  H        3.8280690     0.0048160    -0.4188000
  H        2.9664850    -0.2871200     1.1156770
units angstrom
no_reorient  #important for SAPT in psi4, default
symmetry c1  #important for SAPT in psi4, default
}

set PROPERTIES_ORIGIN ["COM"]
properties('MP2/aug-cc-pvtz', properties = ['dipole'])
--------------------------------------------------------------------------

    Molecular point group: c1
  Charge       = 0
  Multiplicity = 1
  Basis Set: AUG-CC-PVTZ
    Blend: AUG-CC-PVTZ
  Basis Set: (AUG-CC-PVTZ AUX)
    Blend: AUG-CC-PVTZ-JKFIT

    Orbital Energies [Eh]
    ---------------------

    Doubly Occupied:

       1A    -20.510801     2A    -15.580843     3A    -11.346134
       4A    -11.254857     5A    -11.249807     6A    -11.220725
       7A    -11.210669     8A     -1.371614     9A     -1.225419
      10A     -1.059912    11A     -1.003360    12A     -0.898991
      13A     -0.839677    14A     -0.757511    15A     -0.696308
      16A     -0.654702    17A     -0.637354    18A     -0.606858
      19A     -0.585748    20A     -0.567786    21A     -0.535926
      22A     -0.518217    23A     -0.515237    24A     -0.514099
      25A     -0.493695    26A     -0.479702    27A     -0.419259
      28A     -0.377381

  @DF-RHF Final Energy:  -325.18737714718617

   => Energetics <=

    Nuclear Repulsion Energy =            314.6430405104970305
    One-Electron Energy =               -1065.3956516813980215
    Two-Electron Energy =                 425.5652340237148223
    Total Energy =                       -325.1873771471861687
  Basis Set: (AUG-CC-PVTZ AUX)
    Blend: AUG-CC-PVTZ-RI
    Molecular point group: c1

    Geometry (in Angstrom), charge = 0, multiplicity = 1:

       Center              X                  Y                   Z               Mass
    ------------   -----------------  -----------------  -----------------  -----------------
         O            0.262676905517    -0.682159239487     1.057925101216    15.994914619570
         N           -0.717073294483     0.745722260513    -0.311574798784    14.003074004430
         C           -2.017354394483     0.447003060513     0.085726001216    12.000000000000
         C            1.751325605517     0.570051060513    -0.459661998784    12.000000000000
         C            0.422647605517     0.162246060513     0.172563001216    12.000000000000
         C           -2.556293394483    -0.828863939487    -0.561452998784    12.000000000000
         C            2.896464605517    -0.319638939487     0.018646001216    12.000000000000
         H           -1.975254394483     0.328950060513     1.176035001216     1.007825032230
         H           -2.667101394483     1.302449060513    -0.126648998784     1.007825032230
         H            1.659027605517     0.543453060513    -1.554145998784     1.007825032230
         H            1.935639605517     1.623736060513    -0.198050998784     1.007825032230
         H           -0.560150394483     1.388626060513    -1.162796998784     1.007825032230
         H           -2.592334394483    -0.724672939487    -1.653758998784     1.007825032230
         H           -1.904923394483    -1.672120939487    -0.304158998784     1.007825032230
         H           -3.568222394483    -1.052814939487    -0.202785998784     1.007825032230
         H            2.726348605517    -1.365215939487    -0.258930998784     1.007825032230
         H            3.843877605517     0.008942060513    -0.424659998784     1.007825032230
         H            2.982293605517    -0.282993939487     1.109817001216     1.007825032230

  Basis Set: AUG-CC-PVTZ
    Blend: AUG-CC-PVTZ
  Basis Set: (AUG-CC-PVTZ AUX)
    Blend: AUG-CC-PVTZ-JKFIT
	 Reference Energy          =    -325.1873771471861687 [Eh]
	 Singles Energy            =      -0.0000000000000000 [Eh]
	 Same-Spin Energy          =      -0.3328339082987722 [Eh]
	 Opposite-Spin Energy      =      -1.1207795339486943 [Eh]
	 Correlation Energy        =      -1.4536134422474665 [Eh]
	 Total Energy              =    -326.6409905894336134 [Eh]

	 ================> DF-SCS-MP2 Energies <==================
	-----------------------------------------------------------
	 SCS Same-Spin Scale       =       0.3333333333333333 [-]
	 SCS Opposite-Spin Scale   =       1.2000000000000000 [-]
	 SCS Same-Spin Energy      =      -0.1109446360995907 [Eh]
	 SCS Opposite-Spin Energy  =      -1.3449354407384331 [Eh]
	 SCS Correlation Energy    =      -1.4558800768380238 [Eh]
	 SCS Total Energy          =    -326.6432572240241825 [Eh]
	-----------------------------------------------------------

  Dipole Moment: [D]
     X:    -0.3102      Y:     2.3042      Z:    -2.6237     Total:     3.5056

*** Psi4 exiting successfully. Buy a developer a beer!
