                               Psi4 1.3.2 release

  ==> Input File <==

--------------------------------------------------------------------------
#psi4
#
memory 32 gb

molecule  {
0 1
  O        0.3109550    -0.6942360     1.0654250
  N       -0.6919670     0.7804610    -0.3498900
  C       -2.0331630     0.4428770     0.0915860
  C        1.7355170     0.5659250    -0.4538020
  C        0.3265678     0.2035839     0.1398281
  C       -2.5721020    -0.8329900    -0.5555930
  C        2.8806560    -0.3237650     0.0245060
  H       -1.9910630     0.3248240     1.1818950
  H       -2.6829100     1.2983230    -0.1207890
  H        1.6432190     0.5393270    -1.5482860
  H        1.9198310     1.6196100    -0.1921910
  H       -0.5759590     1.3845000    -1.1569370
  H       -2.6081430    -0.7287990    -1.6478990
  H       -1.9207320    -1.6762470    -0.2982990
  H       -3.5840310    -1.0569410    -0.1969260
  H        2.7105400    -1.3693420    -0.2530710
  H        3.8280690     0.0048160    -0.4188000
  H        2.9664850    -0.2871200     1.1156770
units angstrom
no_reorient  #important for SAPT in psi4, default
symmetry c1  #important for SAPT in psi4, default
}

set PROPERTIES_ORIGIN ["COM"]
properties('MP2/aug-cc-pvtz', properties = ['dipole'])
--------------------------------------------------------------------------

    Molecular point group: c1
  Charge       = 0
  Multiplicity = 1
  Basis Set: AUG-CC-PVTZ
    Blend: AUG-CC-PVTZ
  Basis Set: (AUG-CC-PVTZ AUX)
    Blend: AUG-CC-PVTZ-JKFIT

    Orbital Energies [Eh]
    ---------------------

    Doubly Occupied:

       1A    -20.494857     2A    -15.598725     3A    -11.339426
       4A    -11.271598     5A    -11.241188     6A    -11.221528
       7A    -11.211842     8A     -1.348431     9A     -1.244250
      10A     -1.049774    11A     -1.015427    12A     -0.897971
      13A     -0.841750    14A     -0.802084    15A     -0.688621
      16A     -0.651788    17A     -0.631918    18A     -0.603968
      19A     -0.588600    20A     -0.566626    21A     -0.539091
      22A     -0.513713    23A     -0.510797    24A     -0.500521
      25A     -0.497630    26A     -0.477640    27A     -0.400845
      28A     -0.389745

  @DF-RHF Final Energy:  -325.18301131893452

   => Energetics <=

    Nuclear Repulsion Energy =            313.9337037781989466
    One-Electron Energy =               -1063.9527238126577231
    Two-Electron Energy =                 424.8360087155242582
    Total Energy =                       -325.1830113189345184
  Basis Set: (AUG-CC-PVTZ AUX)
    Blend: AUG-CC-PVTZ-RI
    Molecular point group: c1

    Geometry (in Angstrom), charge = 0, multiplicity = 1:

       Center              X                  Y                   Z               Mass
    ------------   -----------------  -----------------  -----------------  -----------------
         O            0.320484264913    -0.699632931193     1.070006779007    15.994914619570
         N           -0.682437735087     0.775064068807    -0.345308220993    14.003074004430
         C           -2.023633735087     0.437480068807     0.096167779007    12.000000000000
         C            1.745046264913     0.560528068807    -0.449220220993    12.000000000000
         C            0.336097064913     0.198186968807     0.144409879007    12.000000000000
         C           -2.562572735087    -0.838386931193    -0.551011220993    12.000000000000
         C            2.890185264913    -0.329161931193     0.029087779007    12.000000000000
         H           -1.981533735087     0.319427068807     1.186476779007     1.007825032230
         H           -2.673380735087     1.292926068807    -0.116207220993     1.007825032230
         H            1.652748264913     0.533930068807    -1.543704220993     1.007825032230
         H            1.929360264913     1.614213068807    -0.187609220993     1.007825032230
         H           -0.566429735087     1.379103068807    -1.152355220993     1.007825032230
         H           -2.598613735087    -0.734195931193    -1.643317220993     1.007825032230
         H           -1.911202735087    -1.681643931193    -0.293717220993     1.007825032230
         H           -3.574501735087    -1.062337931193    -0.192344220993     1.007825032230
         H            2.720069264913    -1.374738931193    -0.248489220993     1.007825032230
         H            3.837598264913    -0.000580931193    -0.414218220993     1.007825032230
         H            2.976014264913    -0.292516931193     1.120258779007     1.007825032230

  Basis Set: AUG-CC-PVTZ
    Blend: AUG-CC-PVTZ
  Basis Set: (AUG-CC-PVTZ AUX)
    Blend: AUG-CC-PVTZ-JKFIT
	 Reference Energy          =    -325.1830113189345184 [Eh]
	 Singles Energy            =      -0.0000000000000000 [Eh]
	 Same-Spin Energy          =      -0.3325150204882860 [Eh]
	 Opposite-Spin Energy      =      -1.1206620790663084 [Eh]
	 Correlation Energy        =      -1.4531770995545945 [Eh]
	 Total Energy              =    -326.6361884184890982 [Eh]

	 ================> DF-SCS-MP2 Energies <==================
	-----------------------------------------------------------
	 SCS Same-Spin Scale       =       0.3333333333333333 [-]
	 SCS Opposite-Spin Scale   =       1.2000000000000000 [-]
	 SCS Same-Spin Energy      =      -0.1108383401627620 [Eh]
	 SCS Opposite-Spin Energy  =      -1.3447944948795700 [Eh]
	 SCS Correlation Energy    =      -1.4556328350423320 [Eh]
	 SCS Total Energy          =    -326.6386441539768271 [Eh]
	-----------------------------------------------------------

  Dipole Moment: [D]
     X:    -1.3987      Y:     2.5844      Z:    -2.9263     Total:     4.1471

*** Psi4 exiting successfully. Buy a developer a beer!
