                               Psi4 1.3.2 release

  ==> Input File <==

--------------------------------------------------------------------------
#psi4
#
memory 32 gb

molecule  {
0 1
  O        0.3109550    -0.6942360     1.0654250
  N       -0.6923054     0.7393181    -0.3794707
  C       -2.0331630     0.4428770     0.0915860
  C        1.7355170     0.5659250    -0.4538020
  C        0.4068390     0.1581200     0.1784230
  C       -2.5262115    -0.8376499    -0.5824218
  C        2.8806560    -0.3237650     0.0245060
  H       -1.9910630     0.3248240     1.1818950
  H       -2.6829100     1.2983230    -0.1207890
  H        1.6432190     0.5393270    -1.5482860
  H        1.9198310     1.6196100    -0.1921910
  H       -0.5759590     1.3845000    -1.1569370
  H       -2.6081430    -0.7287990    -1.6478990
  H       -1.9207320    -1.6762470    -0.2982990
  H       -3.5840310    -1.0569410    -0.1969260
  H        2.7105400    -1.3693420    -0.2530710
  H        3.8280690     0.0048160    -0.4188000
  H        2.9664850    -0.2871200     1.1156770
units angstrom
no_reorient  #important for SAPT in psi4, default
symmetry c1  #important for SAPT in psi4, default
}

set PROPERTIES_ORIGIN ["COM"]
properties('MP2/aug-cc-pvtz', properties = ['dipole'])
--------------------------------------------------------------------------

    Molecular point group: c1
  Charge       = 0
  Multiplicity = 1
  Basis Set: AUG-CC-PVTZ
    Blend: AUG-CC-PVTZ
  Basis Set: (AUG-CC-PVTZ AUX)
    Blend: AUG-CC-PVTZ-JKFIT

    Orbital Energies [Eh]
    ---------------------

    Doubly Occupied:

       1A    -20.512540     2A    -15.580369     3A    -11.344762
       4A    -11.263119     5A    -11.242168     6A    -11.215791
       7A    -11.214649     8A     -1.368477     9A     -1.226125
      10A     -1.054523    11A     -1.006102    12A     -0.893159
      13A     -0.836803    14A     -0.777051    15A     -0.692773
      16A     -0.649953    17A     -0.633720    18A     -0.608206
      19A     -0.588309    20A     -0.571759    21A     -0.528847
      22A     -0.517567    23A     -0.513675    24A     -0.503816
      25A     -0.500651    26A     -0.483092    27A     -0.417168
      28A     -0.385060

  @DF-RHF Final Energy:  -325.19477472394408

   => Energetics <=

    Nuclear Repulsion Energy =            314.2638864690105720
    One-Electron Energy =               -1064.6568542011984846
    Two-Electron Energy =                 425.1981930082438339
    Total Energy =                       -325.1947747239440787
  Basis Set: (AUG-CC-PVTZ AUX)
    Blend: AUG-CC-PVTZ-RI
    Molecular point group: c1

    Geometry (in Angstrom), charge = 0, multiplicity = 1:

       Center              X                  Y                   Z               Mass
    ------------   -----------------  -----------------  -----------------  -----------------
         O            0.305554099857    -0.687983096124     1.072707773807    15.994914619570
         N           -0.697706300143     0.745571003876    -0.372187926193    14.003074004430
         C           -2.038563900143     0.449129903876     0.098868773807    12.000000000000
         C            1.730116099857     0.572177903876    -0.446519226193    12.000000000000
         C            0.401438099857     0.164372903876     0.185705773807    12.000000000000
         C           -2.531612400143    -0.831396996124    -0.575139026193    12.000000000000
         C            2.875255099857    -0.317512096124     0.031788773807    12.000000000000
         H           -1.996463900143     0.331076903876     1.189177773807     1.007825032230
         H           -2.688310900143     1.304575903876    -0.113506226193     1.007825032230
         H            1.637818099857     0.545579903876    -1.541003226193     1.007825032230
         H            1.914430099857     1.625862903876    -0.184908226193     1.007825032230
         H           -0.581359900143     1.390752903876    -1.149654226193     1.007825032230
         H           -2.613543900143    -0.722546096124    -1.640616226193     1.007825032230
         H           -1.926132900143    -1.669994096124    -0.291016226193     1.007825032230
         H           -3.589431900143    -1.050688096124    -0.189643226193     1.007825032230
         H            2.705139099857    -1.363089096124    -0.245788226193     1.007825032230
         H            3.822668099857     0.011068903876    -0.411517226193     1.007825032230
         H            2.961084099857    -0.280867096124     1.122959773807     1.007825032230

  Basis Set: AUG-CC-PVTZ
    Blend: AUG-CC-PVTZ
  Basis Set: (AUG-CC-PVTZ AUX)
    Blend: AUG-CC-PVTZ-JKFIT
	 Reference Energy          =    -325.1947747239440787 [Eh]
	 Singles Energy            =      -0.0000000000000000 [Eh]
	 Same-Spin Energy          =      -0.3319982146821386 [Eh]
	 Opposite-Spin Energy      =      -1.1197061505493158 [Eh]
	 Correlation Energy        =      -1.4517043652314543 [Eh]
	 Total Energy              =    -326.6464790891755570 [Eh]

	 ================> DF-SCS-MP2 Energies <==================
	-----------------------------------------------------------
	 SCS Same-Spin Scale       =       0.3333333333333333 [-]
	 SCS Opposite-Spin Scale   =       1.2000000000000000 [-]
	 SCS Same-Spin Energy      =      -0.1106660715607129 [Eh]
	 SCS Opposite-Spin Energy  =      -1.3436473806591789 [Eh]
	 SCS Correlation Energy    =      -1.4543134522198917 [Eh]
	 SCS Total Energy          =    -326.6490881761639571 [Eh]
	-----------------------------------------------------------

  Dipole Moment: [D]
     X:    -0.7190      Y:     2.3699      Z:    -2.5602     Total:     3.5620

*** Psi4 exiting successfully. Buy a developer a beer!
