                               Psi4 1.3.2 release

  ==> Input File <==

--------------------------------------------------------------------------
#psi4
#
memory 32 gb

molecule  {
0 1
  O        0.3109550    -0.6942360     1.0654250
  N       -0.6764789     0.7781502    -0.3016961
  C       -2.0331630     0.4428770     0.0915860
  C        1.7355170     0.5659250    -0.4538020
  C        0.4068390     0.1581200     0.1784230
  C       -2.5721020    -0.8329900    -0.5555930
  C        2.8806560    -0.3237650     0.0245060
  H       -1.9536478     0.3329508     1.1806573
  H       -2.6829100     1.2983230    -0.1207890
  H        1.6432190     0.5393270    -1.5482860
  H        1.9198310     1.6196100    -0.1921910
  H       -0.5759590     1.3845000    -1.1569370
  H       -2.6081430    -0.7287990    -1.6478990
  H       -1.9207320    -1.6762470    -0.2982990
  H       -3.5840310    -1.0569410    -0.1969260
  H        2.7105400    -1.3693420    -0.2530710
  H        3.8280690     0.0048160    -0.4188000
  H        2.9664850    -0.2871200     1.1156770
units angstrom
no_reorient  #important for SAPT in psi4, default
symmetry c1  #important for SAPT in psi4, default
}

set PROPERTIES_ORIGIN ["COM"]
properties('MP2/aug-cc-pvtz', properties = ['dipole'])
--------------------------------------------------------------------------

    Molecular point group: c1
  Charge       = 0
  Multiplicity = 1
  Basis Set: AUG-CC-PVTZ
    Blend: AUG-CC-PVTZ
  Basis Set: (AUG-CC-PVTZ AUX)
    Blend: AUG-CC-PVTZ-JKFIT

    Orbital Energies [Eh]
    ---------------------

    Doubly Occupied:

       1A    -20.508212     2A    -15.584624     3A    -11.340955
       4A    -11.263500     5A    -11.241913     6A    -11.217159
       7A    -11.215337     8A     -1.369123     9A     -1.227085
      10A     -1.054608    11A     -1.008511    12A     -0.896013
      13A     -0.838162    14A     -0.770706    15A     -0.691967
      16A     -0.647349    17A     -0.634363    18A     -0.606085
      19A     -0.587319    20A     -0.572166    21A     -0.535803
      22A     -0.514344    23A     -0.513025    24A     -0.509433
      25A     -0.495777    26A     -0.482497    27A     -0.416623
      28A     -0.386480

  @DF-RHF Final Energy:  -325.19526356061419

   => Energetics <=

    Nuclear Repulsion Energy =            314.2472735157141983
    One-Electron Energy =               -1064.6267953621809284
    Two-Electron Energy =                 425.1842582858525930
    Total Energy =                       -325.1952635606141939
  Basis Set: (AUG-CC-PVTZ AUX)
    Blend: AUG-CC-PVTZ-RI
    Molecular point group: c1

    Geometry (in Angstrom), charge = 0, multiplicity = 1:

       Center              X                  Y                   Z               Mass
    ------------   -----------------  -----------------  -----------------  -----------------
         O            0.308436437217    -0.693996684603     1.058761147218    15.994914619570
         N           -0.678997462783     0.778389515397    -0.308359952782    14.003074004430
         C           -2.035681562783     0.443116315397     0.084922147218    12.000000000000
         C            1.732998437217     0.566164315397    -0.460465852782    12.000000000000
         C            0.404320437217     0.158359315397     0.171759147218    12.000000000000
         C           -2.574620562783    -0.832750684603    -0.562256852782    12.000000000000
         C            2.878137437217    -0.323525684603     0.017842147218    12.000000000000
         H           -1.956166362783     0.333190115397     1.173993447218     1.007825032230
         H           -2.685428562783     1.298562315397    -0.127452852782     1.007825032230
         H            1.640700437217     0.539566315397    -1.554949852782     1.007825032230
         H            1.917312437217     1.619849315397    -0.198854852782     1.007825032230
         H           -0.578477562783     1.384739315397    -1.163600852782     1.007825032230
         H           -2.610661562783    -0.728559684603    -1.654562852782     1.007825032230
         H           -1.923250562783    -1.676007684603    -0.304962852782     1.007825032230
         H           -3.586549562783    -1.056701684603    -0.203589852782     1.007825032230
         H            2.708021437217    -1.369102684603    -0.259734852782     1.007825032230
         H            3.825550437217     0.005055315397    -0.425463852782     1.007825032230
         H            2.963966437217    -0.286880684603     1.109013147218     1.007825032230

  Basis Set: AUG-CC-PVTZ
    Blend: AUG-CC-PVTZ
  Basis Set: (AUG-CC-PVTZ AUX)
    Blend: AUG-CC-PVTZ-JKFIT
	 Reference Energy          =    -325.1952635606141939 [Eh]
	 Singles Energy            =      -0.0000000000000000 [Eh]
	 Same-Spin Energy          =      -0.3320344771908454 [Eh]
	 Opposite-Spin Energy      =      -1.1196647175095378 [Eh]
	 Correlation Energy        =      -1.4516991947003832 [Eh]
	 Total Energy              =    -326.6469627553145756 [Eh]

	 ================> DF-SCS-MP2 Energies <==================
	-----------------------------------------------------------
	 SCS Same-Spin Scale       =       0.3333333333333333 [-]
	 SCS Opposite-Spin Scale   =       1.2000000000000000 [-]
	 SCS Same-Spin Energy      =      -0.1106781590636151 [Eh]
	 SCS Opposite-Spin Energy  =      -1.3435976610114453 [Eh]
	 SCS Correlation Energy    =      -1.4542758200750605 [Eh]
	 SCS Total Energy          =    -326.6495393806892480 [Eh]
	-----------------------------------------------------------

  Dipole Moment: [D]
     X:    -0.8314      Y:     2.2719      Z:    -2.7007     Total:     3.6258

*** Psi4 exiting successfully. Buy a developer a beer!
