                               Psi4 1.3.2 release

  ==> Input File <==

--------------------------------------------------------------------------
#psi4
#
memory 32 gb

molecule  {
0 1
  O        0.3109550    -0.6942360     1.0654250
  N       -0.6919670     0.7804610    -0.3498900
  C       -2.0331630     0.4428770     0.0915860
  C        1.7355170     0.5659250    -0.4538020
  C        0.4068390     0.1581200     0.1784230
  C       -2.5721020    -0.8329900    -0.5555930
  C        2.8806560    -0.3237650     0.0245060
  H       -1.9910630     0.3248240     1.1818950
  H       -2.6829100     1.2983230    -0.1207890
  H        1.6432190     0.5393270    -1.5482860
  H        1.9198310     1.6196100    -0.1921910
  H       -0.5530939     1.5035559    -1.3160058
  H       -2.6081430    -0.7287990    -1.6478990
  H       -1.9207320    -1.6762470    -0.2982990
  H       -3.5840310    -1.0569410    -0.1969260
  H        2.7105400    -1.3693420    -0.2530710
  H        3.8280690     0.0048160    -0.4188000
  H        2.9664850    -0.2871200     1.1156770
units angstrom
no_reorient  #important for SAPT in psi4, default
symmetry c1  #important for SAPT in psi4, default
}

set PROPERTIES_ORIGIN ["COM"]
properties('MP2/aug-cc-pvtz', properties = ['dipole'])
--------------------------------------------------------------------------

    Molecular point group: c1
  Charge       = 0
  Multiplicity = 1
  Basis Set: AUG-CC-PVTZ
    Blend: AUG-CC-PVTZ
  Basis Set: (AUG-CC-PVTZ AUX)
    Blend: AUG-CC-PVTZ-JKFIT

    Orbital Energies [Eh]
    ---------------------

    Doubly Occupied:

       1A    -20.514142     2A    -15.596820     3A    -11.346013
       4A    -11.262476     5A    -11.241496     6A    -11.215275
       7A    -11.214483     8A     -1.367679     9A     -1.208746
      10A     -1.053395    11A     -1.002583    12A     -0.892641
      13A     -0.833786    14A     -0.740388    15A     -0.685898
      16A     -0.644351    17A     -0.632678    18A     -0.604416
      19A     -0.582347    20A     -0.564656    21A     -0.534211
      22A     -0.513852    23A     -0.512973    24A     -0.506923
      25A     -0.493666    26A     -0.481195    27A     -0.417391
      28A     -0.383988

  @DF-RHF Final Energy:  -325.16734651487536

   => Energetics <=

    Nuclear Repulsion Energy =            312.6433363312394249
    One-Electron Energy =               -1061.5244253061425752
    Two-Electron Energy =                 423.7137424600277882
    Total Energy =                       -325.1673465148753621
  Basis Set: (AUG-CC-PVTZ AUX)
    Blend: AUG-CC-PVTZ-RI
    Molecular point group: c1

    Geometry (in Angstrom), charge = 0, multiplicity = 1:

       Center              X                  Y                   Z               Mass
    ------------   -----------------  -----------------  -----------------  -----------------
         O            0.310727055108    -0.695422779098     1.067011002328    15.994914619570
         N           -0.692194944892     0.779274220902    -0.348303997672    14.003074004430
         C           -2.033390944892     0.441690220902     0.093172002328    12.000000000000
         C            1.735289055108     0.564738220902    -0.452215997672    12.000000000000
         C            0.406611055108     0.156933220902     0.180009002328    12.000000000000
         C           -2.572329944892    -0.834176779098    -0.554006997672    12.000000000000
         C            2.880428055108    -0.324951779098     0.026092002328    12.000000000000
         H           -1.991290944892     0.323637220902     1.183481002328     1.007825032230
         H           -2.683137944892     1.297136220902    -0.119202997672     1.007825032230
         H            1.642991055108     0.538140220902    -1.546699997672     1.007825032230
         H            1.919603055108     1.618423220902    -0.190604997672     1.007825032230
         H           -0.553321844892     1.502369120902    -1.314419797672     1.007825032230
         H           -2.608370944892    -0.729985779098    -1.646312997672     1.007825032230
         H           -1.920959944892    -1.677433779098    -0.296712997672     1.007825032230
         H           -3.584258944892    -1.058127779098    -0.195339997672     1.007825032230
         H            2.710312055108    -1.370528779098    -0.251484997672     1.007825032230
         H            3.827841055108     0.003629220902    -0.417213997672     1.007825032230
         H            2.966257055108    -0.288306779098     1.117263002328     1.007825032230

  Basis Set: AUG-CC-PVTZ
    Blend: AUG-CC-PVTZ
  Basis Set: (AUG-CC-PVTZ AUX)
    Blend: AUG-CC-PVTZ-JKFIT
	 Reference Energy          =    -325.1673465148753621 [Eh]
	 Singles Energy            =      -0.0000000000000000 [Eh]
	 Same-Spin Energy          =      -0.3334004459372857 [Eh]
	 Opposite-Spin Energy      =      -1.1237335984248413 [Eh]
	 Correlation Energy        =      -1.4571340443621270 [Eh]
	 Total Energy              =    -326.6244805592374973 [Eh]

	 ================> DF-SCS-MP2 Energies <==================
	-----------------------------------------------------------
	 SCS Same-Spin Scale       =       0.3333333333333333 [-]
	 SCS Opposite-Spin Scale   =       1.2000000000000000 [-]
	 SCS Same-Spin Energy      =      -0.1111334819790952 [Eh]
	 SCS Opposite-Spin Energy  =      -1.3484803181098095 [Eh]
	 SCS Correlation Energy    =      -1.4596138000889047 [Eh]
	 SCS Total Energy          =    -326.6269603149642649 [Eh]
	-----------------------------------------------------------

  Dipole Moment: [D]
     X:    -0.7328      Y:     2.3284      Z:    -2.6809     Total:     3.6257

*** Psi4 exiting successfully. Buy a developer a beer!
