                               Psi4 1.3.2 release

  ==> Input File <==

--------------------------------------------------------------------------
#psi4
#
memory 32 gb

molecule  {
0 1
  O        0.3002923    -0.6927509     1.0656342
  N       -0.6919670     0.7804610    -0.3498900
  C       -2.0331630     0.4428770     0.0915860
  C        1.7290747     0.5745863    -0.4616137
  C        0.4068390     0.1581200     0.1784230
  C       -2.5721020    -0.8329900    -0.5555930
  C        2.8806560    -0.3237650     0.0245060
  H       -1.9910630     0.3248240     1.1818950
  H       -2.6829100     1.2983230    -0.1207890
  H        1.6432190     0.5393270    -1.5482860
  H        1.9198310     1.6196100    -0.1921910
  H       -0.5759590     1.3845000    -1.1569370
  H       -2.6081430    -0.7287990    -1.6478990
  H       -1.9207320    -1.6762470    -0.2982990
  H       -3.5840310    -1.0569410    -0.1969260
  H        2.7105400    -1.3693420    -0.2530710
  H        3.8280690     0.0048160    -0.4188000
  H        2.9664850    -0.2871200     1.1156770
units angstrom
no_reorient  #important for SAPT in psi4, default
symmetry c1  #important for SAPT in psi4, default
}

set PROPERTIES_ORIGIN ["COM"]
properties('MP2/aug-cc-pvtz', properties = ['dipole'])
--------------------------------------------------------------------------

    Molecular point group: c1
  Charge       = 0
  Multiplicity = 1
  Basis Set: AUG-CC-PVTZ
    Blend: AUG-CC-PVTZ
  Basis Set: (AUG-CC-PVTZ AUX)
    Blend: AUG-CC-PVTZ-JKFIT

    Orbital Energies [Eh]
    ---------------------

    Doubly Occupied:

       1A    -20.514471     2A    -15.580254     3A    -11.346150
       4A    -11.261657     5A    -11.242490     6A    -11.217004
       7A    -11.214675     8A     -1.369022     9A     -1.224440
      10A     -1.053818    11A     -1.005412    12A     -0.894191
      13A     -0.836323    14A     -0.776195    15A     -0.692814
      16A     -0.648026    17A     -0.635065    18A     -0.604790
      19A     -0.586960    20A     -0.573382    21A     -0.533453
      22A     -0.515403    23A     -0.513828    24A     -0.508926
      25A     -0.496057    26A     -0.483452    27A     -0.419048
      28A     -0.386007

  @DF-RHF Final Energy:  -325.19817136161828

   => Energetics <=

    Nuclear Repulsion Energy =            313.6399728077623763
    One-Electron Energy =               -1063.4096610170315671
    Two-Electron Energy =                 424.5715168476508552
    Total Energy =                       -325.1981713616182788
  Basis Set: (AUG-CC-PVTZ AUX)
    Blend: AUG-CC-PVTZ-RI
    Molecular point group: c1

    Geometry (in Angstrom), charge = 0, multiplicity = 1:

       Center              X                  Y                   Z               Mass
    ------------   -----------------  -----------------  -----------------  -----------------
         O            0.302744308660    -0.694013874407     1.066528508188    15.994914619570
         N           -0.689514991340     0.779198025593    -0.348995691812    14.003074004430
         C           -2.030710991340     0.441614025593     0.092480308188    12.000000000000
         C            1.731526708660     0.573323325593    -0.460719391812    12.000000000000
         C            0.409291008660     0.156857025593     0.179317308188    12.000000000000
         C           -2.569649991340    -0.834252974407    -0.554698691812    12.000000000000
         C            2.883108008660    -0.325027974407     0.025400308188    12.000000000000
         H           -1.988610991340     0.323561025593     1.182789308188     1.007825032230
         H           -2.680457991340     1.297060025593    -0.119894691812     1.007825032230
         H            1.645671008660     0.538064025593    -1.547391691812     1.007825032230
         H            1.922283008660     1.618347025593    -0.191296691812     1.007825032230
         H           -0.573506991340     1.383237025593    -1.156042691812     1.007825032230
         H           -2.605690991340    -0.730061974407    -1.647004691812     1.007825032230
         H           -1.918279991340    -1.677509974407    -0.297404691812     1.007825032230
         H           -3.581578991340    -1.058203974407    -0.196031691812     1.007825032230
         H            2.712992008660    -1.370604974407    -0.252176691812     1.007825032230
         H            3.830521008660     0.003553025593    -0.417905691812     1.007825032230
         H            2.968937008660    -0.288382974407     1.116571308188     1.007825032230

  Basis Set: AUG-CC-PVTZ
    Blend: AUG-CC-PVTZ
  Basis Set: (AUG-CC-PVTZ AUX)
    Blend: AUG-CC-PVTZ-JKFIT
	 Reference Energy          =    -325.1981713616182788 [Eh]
	 Singles Energy            =      -0.0000000000000000 [Eh]
	 Same-Spin Energy          =      -0.3318063551801994 [Eh]
	 Opposite-Spin Energy      =      -1.1194568662228388 [Eh]
	 Correlation Energy        =      -1.4512632214030381 [Eh]
	 Total Energy              =    -326.6494345830213319 [Eh]

	 ================> DF-SCS-MP2 Energies <==================
	-----------------------------------------------------------
	 SCS Same-Spin Scale       =       0.3333333333333333 [-]
	 SCS Opposite-Spin Scale   =       1.2000000000000000 [-]
	 SCS Same-Spin Energy      =      -0.1106021183933998 [Eh]
	 SCS Opposite-Spin Energy  =      -1.3433482394674066 [Eh]
	 SCS Correlation Energy    =      -1.4539503578608064 [Eh]
	 SCS Total Energy          =    -326.6521217194791120 [Eh]
	-----------------------------------------------------------

  Dipole Moment: [D]
     X:    -0.6700      Y:     2.2457      Z:    -2.5830     Total:     3.4877

*** Psi4 exiting successfully. Buy a developer a beer!
