                               Psi4 1.3.2 release

  ==> Input File <==

--------------------------------------------------------------------------
#psi4
#
memory 32 gb

molecule  {
0 1
  O        0.3109550    -0.6942360     1.0654250
  N       -0.6919670     0.7804610    -0.3498900
  C       -2.0331630     0.4428770     0.0915860
  C        1.7355170     0.5659250    -0.4538020
  C        0.4068390     0.1581200     0.1784230
  C       -2.5784385    -0.8648969    -0.4824649
  C        2.8806560    -0.3237650     0.0245060
  H       -2.0118802     0.2716616     1.1754287
  H       -2.6829100     1.2983230    -0.1207890
  H        1.6432190     0.5393270    -1.5482860
  H        1.9198310     1.6196100    -0.1921910
  H       -0.5759590     1.3845000    -1.1569370
  H       -2.6081430    -0.7287990    -1.6478990
  H       -1.9207320    -1.6762470    -0.2982990
  H       -3.5840310    -1.0569410    -0.1969260
  H        2.7105400    -1.3693420    -0.2530710
  H        3.8280690     0.0048160    -0.4188000
  H        2.9664850    -0.2871200     1.1156770
units angstrom
no_reorient  #important for SAPT in psi4, default
symmetry c1  #important for SAPT in psi4, default
}

set PROPERTIES_ORIGIN ["COM"]
properties('MP2/aug-cc-pvtz', properties = ['dipole'])
--------------------------------------------------------------------------

    Molecular point group: c1
  Charge       = 0
  Multiplicity = 1
  Basis Set: AUG-CC-PVTZ
    Blend: AUG-CC-PVTZ
  Basis Set: (AUG-CC-PVTZ AUX)
    Blend: AUG-CC-PVTZ-JKFIT

    Orbital Energies [Eh]
    ---------------------

    Doubly Occupied:

       1A    -20.515133     2A    -15.582634     3A    -11.346859
       4A    -11.262560     5A    -11.243079     6A    -11.216479
       7A    -11.215692     8A     -1.369599     9A     -1.225523
      10A     -1.054993    11A     -1.007772    12A     -0.894864
      13A     -0.835695    14A     -0.776841    15A     -0.693404
      16A     -0.649883    17A     -0.634574    18A     -0.607583
      19A     -0.585451    20A     -0.574900    21A     -0.543081
      22A     -0.518686    23A     -0.514738    24A     -0.513212
      25A     -0.490915    26A     -0.469373    27A     -0.419672
      28A     -0.386877

  @DF-RHF Final Energy:  -325.19131592429994

   => Energetics <=

    Nuclear Repulsion Energy =            313.6525597949130315
    One-Electron Energy =               -1063.3876060941172454
    Two-Electron Energy =                 424.5437303749042712
    Total Energy =                       -325.1913159242999427
  Basis Set: (AUG-CC-PVTZ AUX)
    Blend: AUG-CC-PVTZ-RI
    Molecular point group: c1

    Geometry (in Angstrom), charge = 0, multiplicity = 1:

       Center              X                  Y                   Z               Mass
    ------------   -----------------  -----------------  -----------------  -----------------
         O            0.311914800344    -0.689917967639     1.056808268297    15.994914619570
         N           -0.691007199656     0.784779032361    -0.358506731703    14.003074004430
         C           -2.032203199656     0.447195032361     0.082969268297    12.000000000000
         C            1.736476800344     0.570243032361    -0.462418731703    12.000000000000
         C            0.407798800344     0.162438032361     0.169806268297    12.000000000000
         C           -2.577478699656    -0.860578867639    -0.491081631703    12.000000000000
         C            2.881615800344    -0.319446967639     0.015889268297    12.000000000000
         H           -2.010920399656     0.275979632361     1.166811968297     1.007825032230
         H           -2.681950199656     1.302641032361    -0.129405731703     1.007825032230
         H            1.644178800344     0.543645032361    -1.556902731703     1.007825032230
         H            1.920790800344     1.623928032361    -0.200807731703     1.007825032230
         H           -0.574999199656     1.388818032361    -1.165553731703     1.007825032230
         H           -2.607183199656    -0.724480967639    -1.656515731703     1.007825032230
         H           -1.919772199656    -1.671928967639    -0.306915731703     1.007825032230
         H           -3.583071199656    -1.052622967639    -0.205542731703     1.007825032230
         H            2.711499800344    -1.365023967639    -0.261687731703     1.007825032230
         H            3.829028800344     0.009134032361    -0.427416731703     1.007825032230
         H            2.967444800344    -0.282801967639     1.107060268297     1.007825032230

  Basis Set: AUG-CC-PVTZ
    Blend: AUG-CC-PVTZ
  Basis Set: (AUG-CC-PVTZ AUX)
    Blend: AUG-CC-PVTZ-JKFIT
	 Reference Energy          =    -325.1913159242999427 [Eh]
	 Singles Energy            =      -0.0000000000000000 [Eh]
	 Same-Spin Energy          =      -0.3318979568964788 [Eh]
	 Opposite-Spin Energy      =      -1.1197087678627800 [Eh]
	 Correlation Energy        =      -1.4516067247592588 [Eh]
	 Total Energy              =    -326.6429226490591873 [Eh]

	 ================> DF-SCS-MP2 Energies <==================
	-----------------------------------------------------------
	 SCS Same-Spin Scale       =       0.3333333333333333 [-]
	 SCS Opposite-Spin Scale   =       1.2000000000000000 [-]
	 SCS Same-Spin Energy      =      -0.1106326522988263 [Eh]
	 SCS Opposite-Spin Energy  =      -1.3436505214353358 [Eh]
	 SCS Correlation Energy    =      -1.4542831737341622 [Eh]
	 SCS Total Energy          =    -326.6455990980340971 [Eh]
	-----------------------------------------------------------

  Dipole Moment: [D]
     X:    -0.6736      Y:     2.2319      Z:    -2.5241     Total:     3.4360

*** Psi4 exiting successfully. Buy a developer a beer!
