                               Psi4 1.3.2 release

  ==> Input File <==

--------------------------------------------------------------------------
#psi4
#
memory 32 gb

molecule  {
0 1
  O        0.3109550    -0.6942360     1.0654250
  N       -0.6693536     0.7768414    -0.2774158
  C       -2.0331630     0.4428770     0.0915860
  C        1.7355170     0.5659250    -0.4538020
  C        0.4068390     0.1581200     0.1784230
  C       -2.5721020    -0.8329900    -0.5555930
  C        2.8806560    -0.3237650     0.0245060
  H       -1.9349736     0.3370651     1.1795407
  H       -2.6829100     1.2983230    -0.1207890
  H        1.6432190     0.5393270    -1.5482860
  H        1.9198310     1.6196100    -0.1921910
  H       -0.5759590     1.3845000    -1.1569370
  H       -2.6081430    -0.7287990    -1.6478990
  H       -1.9207320    -1.6762470    -0.2982990
  H       -3.5840310    -1.0569410    -0.1969260
  H        2.7105400    -1.3693420    -0.2530710
  H        3.8280690     0.0048160    -0.4188000
  H        2.9664850    -0.2871200     1.1156770
units angstrom
no_reorient  #important for SAPT in psi4, default
symmetry c1  #important for SAPT in psi4, default
}

set PROPERTIES_ORIGIN ["COM"]
properties('MP2/aug-cc-pvtz', properties = ['dipole'])
--------------------------------------------------------------------------

    Molecular point group: c1
  Charge       = 0
  Multiplicity = 1
  Basis Set: AUG-CC-PVTZ
    Blend: AUG-CC-PVTZ
  Basis Set: (AUG-CC-PVTZ AUX)
    Blend: AUG-CC-PVTZ-JKFIT

    Orbital Energies [Eh]
    ---------------------

    Doubly Occupied:

       1A    -20.505330     2A    -15.586430     3A    -11.338498
       4A    -11.264235     5A    -11.241654     6A    -11.218244
       7A    -11.214993     8A     -1.369692     9A     -1.228052
      10A     -1.054766    11A     -1.009755    12A     -0.897091
      13A     -0.839450    14A     -0.767203    15A     -0.691975
      16A     -0.647185    17A     -0.634716    18A     -0.606826
      19A     -0.587985    20A     -0.570473    21A     -0.536315
      22A     -0.514445    23A     -0.512821    24A     -0.508657
      25A     -0.495282    26A     -0.482366    27A     -0.415607
      28A     -0.386456

  @DF-RHF Final Energy:  -325.19137130597653

   => Energetics <=

    Nuclear Repulsion Energy =            314.5304646992246944
    One-Electron Energy =               -1065.1906633347582556
    Two-Electron Energy =                 425.4688273295570298
    Total Energy =                       -325.1913713059765314
  Basis Set: (AUG-CC-PVTZ AUX)
    Blend: AUG-CC-PVTZ-RI
    Molecular point group: c1

    Geometry (in Angstrom), charge = 0, multiplicity = 1:

       Center              X                  Y                   Z               Mass
    ------------   -----------------  -----------------  -----------------  -----------------
         O            0.307263191655    -0.693856398111     1.055408754299    15.994914619570
         N           -0.673045408345     0.777221001889    -0.287432045701    14.003074004430
         C           -2.036854808345     0.443256601889     0.081569754299    12.000000000000
         C            1.731825191655     0.566304601889    -0.463818245701    12.000000000000
         C            0.403147191655     0.158499601889     0.168406754299    12.000000000000
         C           -2.575793808345    -0.832610398111    -0.565609245701    12.000000000000
         C            2.876964191655    -0.323385398111     0.014489754299    12.000000000000
         H           -1.938665408345     0.337444701889     1.169524454299     1.007825032230
         H           -2.686601808345     1.298702601889    -0.130805245701     1.007825032230
         H            1.639527191655     0.539706601889    -1.558302245701     1.007825032230
         H            1.916139191655     1.619989601889    -0.202207245701     1.007825032230
         H           -0.579650808345     1.384879601889    -1.166953245701     1.007825032230
         H           -2.611834808345    -0.728419398111    -1.657915245701     1.007825032230
         H           -1.924423808345    -1.675867398111    -0.308315245701     1.007825032230
         H           -3.587722808345    -1.056561398111    -0.206942245701     1.007825032230
         H            2.706848191655    -1.368962398111    -0.263087245701     1.007825032230
         H            3.824377191655     0.005195601889    -0.428816245701     1.007825032230
         H            2.962793191655    -0.286740398111     1.105660754299     1.007825032230

  Basis Set: AUG-CC-PVTZ
    Blend: AUG-CC-PVTZ
  Basis Set: (AUG-CC-PVTZ AUX)
    Blend: AUG-CC-PVTZ-JKFIT
	 Reference Energy          =    -325.1913713059765314 [Eh]
	 Singles Energy            =      -0.0000000000000000 [Eh]
	 Same-Spin Energy          =      -0.3321906060669901 [Eh]
	 Opposite-Spin Energy      =      -1.1199312474125764 [Eh]
	 Correlation Energy        =      -1.4521218534795666 [Eh]
	 Total Energy              =    -326.6434931594561135 [Eh]

	 ================> DF-SCS-MP2 Energies <==================
	-----------------------------------------------------------
	 SCS Same-Spin Scale       =       0.3333333333333333 [-]
	 SCS Opposite-Spin Scale   =       1.2000000000000000 [-]
	 SCS Same-Spin Energy      =      -0.1107302020223300 [Eh]
	 SCS Opposite-Spin Energy  =      -1.3439174968950918 [Eh]
	 SCS Correlation Energy    =      -1.4546476989174217 [Eh]
	 SCS Total Energy          =    -326.6460190048939580 [Eh]
	-----------------------------------------------------------

  Dipole Moment: [D]
     X:    -0.8903      Y:     2.2819      Z:    -2.7548     Total:     3.6863

*** Psi4 exiting successfully. Buy a developer a beer!
