                               Psi4 1.4a3.dev225

  ==> Input File <==

--------------------------------------------------------------------------
#psi4
#
memory 32 gb

molecule  {
0 1
  O        0.3358460     1.2965490    -0.1579670
  N       -0.6355700    -0.7573960    -0.3171250
  C       -1.9537600    -0.2153280    -0.6135720
  C        1.6888930    -0.6226540     0.4213110
  C        0.4585302     0.0470216    -0.0262216
  C       -2.7106350     0.2148780     0.6378230
  C        2.9315370     0.1212560    -0.0546130
  H       -1.8024690     0.6408050    -1.2743770
  H       -2.5093410    -0.9768490    -1.1692540
  H        1.6661620    -0.6499400     1.5181760
  H        1.7013640    -1.6638910     0.0787670
  H       -0.5536820    -1.7388620    -0.0859220
  H       -2.8566760    -0.6308240     1.3159630
  H       -2.1451200     0.9906390     1.1579850
  H       -3.6935760     0.6181720     0.3752940
  H        2.8830370     1.1639450     0.2613510
  H        3.8370830    -0.3350390     0.3539010
  H        2.9990550     0.1035600    -1.1453320
units angstrom
no_reorient  #important for SAPT in psi4, default
symmetry c1  #important for SAPT in psi4, default
}

set PROPERTIES_ORIGIN ["COM"]
properties('MP2/aug-cc-pvtz', properties = ['dipole'])
--------------------------------------------------------------------------

    Molecular point group: c1
  Charge       = 0
  Multiplicity = 1
  Basis Set: AUG-CC-PVTZ
    Blend: AUG-CC-PVTZ
  Basis Set: (AUG-CC-PVTZ AUX)
    Blend: AUG-CC-PVTZ-JKFIT

    Orbital Energies [Eh]
    ---------------------

    Doubly Occupied:

       1A    -20.510477     2A    -15.582190     3A    -11.349351
       4A    -11.260969     5A    -11.243098     6A    -11.219369
       7A    -11.213536     8A     -1.352222     9A     -1.216903
      10A     -1.067389    11A     -1.007824    12A     -0.901570
      13A     -0.839944    14A     -0.770877    15A     -0.695532
      16A     -0.656825    17A     -0.623057    18A     -0.605502
      19A     -0.589320    20A     -0.574891    21A     -0.533531
      22A     -0.527695    23A     -0.515837    24A     -0.505603
      25A     -0.494505    26A     -0.477993    27A     -0.420181
      28A     -0.383736

  @DF-RHF Final Energy:  -325.19304667807478

   => Energetics <=

    Nuclear Repulsion Energy =            313.6844412634576429
    One-Electron Energy =               -1063.4751155845167432
    Two-Electron Energy =                 424.5976276429843210
    Total Energy =                       -325.1930466780747793
  Basis Set: (AUG-CC-PVTZ AUX)
    Blend: AUG-CC-PVTZ-RI
    Molecular point group: c1

    Geometry (in Angstrom), charge = 0, multiplicity = 1:

       Center              X                  Y                   Z               Mass
    ------------   -----------------  -----------------  -----------------  -----------------
         O            0.326261864070     1.275015191617    -0.146162340983    15.994914619570
         N           -0.645154135930    -0.778929808383    -0.305320340983    14.003074004430
         C           -1.963344135930    -0.236861808383    -0.601767340983    12.000000000000
         C            1.679308864070    -0.644187808383     0.433115659017    12.000000000000
         C            0.448946064070     0.025487791617    -0.014416940983    12.000000000000
         C           -2.720219135930     0.193344191617     0.649627659017    12.000000000000
         C            2.921952864070     0.099722191617    -0.042808340983    12.000000000000
         H           -1.812053135930     0.619271191617    -1.262572340983     1.007825032230
         H           -2.518925135930    -0.998382808383    -1.157449340983     1.007825032230
         H            1.656577864070    -0.671473808383     1.529980659017     1.007825032230
         H            1.691779864070    -1.685424808383     0.090571659017     1.007825032230
         H           -0.563266135930    -1.760395808383    -0.074117340983     1.007825032230
         H           -2.866260135930    -0.652357808383     1.327767659017     1.007825032230
         H           -2.154704135930     0.969105191617     1.169789659017     1.007825032230
         H           -3.703160135930     0.596638191617     0.387098659017     1.007825032230
         H            2.873452864070     1.142411191617     0.273155659017     1.007825032230
         H            3.827498864070    -0.356572808383     0.365705659017     1.007825032230
         H            2.989470864070     0.082026191617    -1.133527340983     1.007825032230

  Basis Set: AUG-CC-PVTZ
    Blend: AUG-CC-PVTZ
  Basis Set: (AUG-CC-PVTZ AUX)
    Blend: AUG-CC-PVTZ-JKFIT
	 Reference Energy          =    -325.1930466780747793 [Eh]
	 Singles Energy            =      -0.0000000000000000 [Eh]
	 Same-Spin Energy          =      -0.3329619586389645 [Eh]
	 Opposite-Spin Energy      =      -1.1212113041353358 [Eh]
	 Correlation Energy        =      -1.4541732627743003 [Eh]
	 Total Energy              =    -326.6472199408490837 [Eh]

	 ================> DF-SCS-MP2 Energies <==================
	-----------------------------------------------------------
	 SCS Same-Spin Scale       =       0.3333333333333333 [-]
	 SCS Opposite-Spin Scale   =       1.2000000000000000 [-]
	 SCS Same-Spin Energy      =      -0.1109873195463215 [Eh]
	 SCS Opposite-Spin Energy  =      -1.3454535649624029 [Eh]
	 SCS Correlation Energy    =      -1.4564408845087244 [Eh]
	 SCS Total Energy          =    -326.6494875625834879 [Eh]
	-----------------------------------------------------------

  Dipole Moment: [D]
     X:    -0.5839      Y:    -3.4574      Z:     0.4604     Total:     3.5364

*** Psi4 exiting successfully. Buy a developer a beer!
