                               Psi4 1.3.2 release

  ==> Input File <==

--------------------------------------------------------------------------
#psi4
#
memory 32 gb

molecule  {
0 1
  O        0.3109550    -0.6942360     1.0654250
  N       -0.6919670     0.7804610    -0.3498900
  C       -2.0331630     0.4428770     0.0915860
  C        1.7355170     0.5659250    -0.4538020
  C        0.4068390     0.1581200     0.1784230
  C       -2.5696606    -0.8215726    -0.5795846
  C        2.8806560    -0.3237650     0.0245060
  H       -1.9841468     0.3426239     1.1833870
  H       -2.6829100     1.2983230    -0.1207890
  H        1.6432190     0.5393270    -1.5482860
  H        1.9198310     1.6196100    -0.1921910
  H       -0.5759590     1.3845000    -1.1569370
  H       -2.6081430    -0.7287990    -1.6478990
  H       -1.9207320    -1.6762470    -0.2982990
  H       -3.5840310    -1.0569410    -0.1969260
  H        2.7105400    -1.3693420    -0.2530710
  H        3.8280690     0.0048160    -0.4188000
  H        2.9664850    -0.2871200     1.1156770
units angstrom
no_reorient  #important for SAPT in psi4, default
symmetry c1  #important for SAPT in psi4, default
}

set PROPERTIES_ORIGIN ["COM"]
properties('MP2/aug-cc-pvtz', properties = ['dipole'])
--------------------------------------------------------------------------

    Molecular point group: c1
  Charge       = 0
  Multiplicity = 1
  Basis Set: AUG-CC-PVTZ
    Blend: AUG-CC-PVTZ
  Basis Set: (AUG-CC-PVTZ AUX)
    Blend: AUG-CC-PVTZ-JKFIT

    Orbital Energies [Eh]
    ---------------------

    Doubly Occupied:

       1A    -20.514061     2A    -15.580462     3A    -11.345849
       4A    -11.262309     5A    -11.242466     6A    -11.216017
       7A    -11.215314     8A     -1.368641     9A     -1.225013
      10A     -1.054388    11A     -1.006046    12A     -0.894203
      13A     -0.836539    14A     -0.776318    15A     -0.692039
      16A     -0.648203    17A     -0.633812    18A     -0.604717
      19A     -0.587800    20A     -0.574883    21A     -0.532436
      22A     -0.514883    23A     -0.513690    24A     -0.510737
      25A     -0.494919    26A     -0.483450    27A     -0.418198
      28A     -0.386232

  @DF-RHF Final Energy:  -325.19744825081500

   => Energetics <=

    Nuclear Repulsion Energy =            313.6882517675389863
    One-Electron Energy =               -1063.5041504586877181
    Two-Electron Energy =                 424.6184504403337314
    Total Energy =                       -325.1974482508150004
  Basis Set: (AUG-CC-PVTZ AUX)
    Blend: AUG-CC-PVTZ-RI
    Molecular point group: c1

    Geometry (in Angstrom), charge = 0, multiplicity = 1:

       Center              X                  Y                   Z               Mass
    ------------   -----------------  -----------------  -----------------  -----------------
         O            0.310596242211    -0.695768634490     1.068258300879    15.994914619570
         N           -0.692325757789     0.778928365510    -0.347056699121    14.003074004430
         C           -2.033521757789     0.441344365510     0.094419300879    12.000000000000
         C            1.735158242211     0.564392365510    -0.450968699121    12.000000000000
         C            0.406480242211     0.156587365510     0.181256300879    12.000000000000
         C           -2.570019357789    -0.823105234490    -0.576751299121    12.000000000000
         C            2.880297242211    -0.325297634490     0.027339300879    12.000000000000
         H           -1.984505557789     0.341091265510     1.186220300879     1.007825032230
         H           -2.683268757789     1.296790365510    -0.117955699121     1.007825032230
         H            1.642860242211     0.537794365510    -1.545452699121     1.007825032230
         H            1.919472242211     1.618077365510    -0.189357699121     1.007825032230
         H           -0.576317757789     1.382967365510    -1.154103699121     1.007825032230
         H           -2.608501757789    -0.730331634490    -1.645065699121     1.007825032230
         H           -1.921090757789    -1.677779634490    -0.295465699121     1.007825032230
         H           -3.584389757789    -1.058473634490    -0.194092699121     1.007825032230
         H            2.710181242211    -1.370874634490    -0.250237699121     1.007825032230
         H            3.827710242211     0.003283365510    -0.415966699121     1.007825032230
         H            2.966126242211    -0.288652634490     1.118510300879     1.007825032230

  Basis Set: AUG-CC-PVTZ
    Blend: AUG-CC-PVTZ
  Basis Set: (AUG-CC-PVTZ AUX)
    Blend: AUG-CC-PVTZ-JKFIT
	 Reference Energy          =    -325.1974482508150004 [Eh]
	 Singles Energy            =      -0.0000000000000000 [Eh]
	 Same-Spin Energy          =      -0.3318726469335104 [Eh]
	 Opposite-Spin Energy      =      -1.1195089867534929 [Eh]
	 Correlation Energy        =      -1.4513816336870033 [Eh]
	 Total Energy              =    -326.6488298845019926 [Eh]

	 ================> DF-SCS-MP2 Energies <==================
	-----------------------------------------------------------
	 SCS Same-Spin Scale       =       0.3333333333333333 [-]
	 SCS Opposite-Spin Scale   =       1.2000000000000000 [-]
	 SCS Same-Spin Energy      =      -0.1106242156445034 [Eh]
	 SCS Opposite-Spin Energy  =      -1.3434107841041913 [Eh]
	 SCS Correlation Energy    =      -1.4540349997486948 [Eh]
	 SCS Total Energy          =    -326.6514832505636718 [Eh]
	-----------------------------------------------------------

  Dipole Moment: [D]
     X:    -0.7079      Y:     2.2520      Z:    -2.5931     Total:     3.5067

*** Psi4 exiting successfully. Buy a developer a beer!
