                               Psi4 1.3.2 release

  ==> Input File <==

--------------------------------------------------------------------------
#psi4
#
memory 32 gb

molecule  {
0 1
  O        0.3109550    -0.6942360     1.0654250
  N       -0.6919670     0.7804610    -0.3498900
  C       -2.0232601     0.4289471     0.1102918
  C        1.7355170     0.5659250    -0.4538020
  C        0.4068390     0.1581200     0.1784230
  C       -2.5721020    -0.8329900    -0.5555930
  C        2.8806560    -0.3237650     0.0245060
  H       -1.9910630     0.3248240     1.1818950
  H       -2.6829100     1.2983230    -0.1207890
  H        1.6432190     0.5393270    -1.5482860
  H        1.9198310     1.6196100    -0.1921910
  H       -0.5583837     1.3832589    -1.1551453
  H       -2.6081430    -0.7287990    -1.6478990
  H       -1.9207320    -1.6762470    -0.2982990
  H       -3.5840310    -1.0569410    -0.1969260
  H        2.7105400    -1.3693420    -0.2530710
  H        3.8280690     0.0048160    -0.4188000
  H        2.9664850    -0.2871200     1.1156770
units angstrom
no_reorient  #important for SAPT in psi4, default
symmetry c1  #important for SAPT in psi4, default
}

set PROPERTIES_ORIGIN ["COM"]
properties('MP2/aug-cc-pvtz', properties = ['dipole'])
--------------------------------------------------------------------------

    Molecular point group: c1
  Charge       = 0
  Multiplicity = 1
  Basis Set: AUG-CC-PVTZ
    Blend: AUG-CC-PVTZ
  Basis Set: (AUG-CC-PVTZ AUX)
    Blend: AUG-CC-PVTZ-JKFIT

    Orbital Energies [Eh]
    ---------------------

    Doubly Occupied:

       1A    -20.514123     2A    -15.580990     3A    -11.345352
       4A    -11.262747     5A    -11.242600     6A    -11.216161
       7A    -11.215038     8A     -1.368966     9A     -1.225165
      10A     -1.054581    11A     -1.006448    12A     -0.893826
      13A     -0.836154    14A     -0.776413    15A     -0.691420
      16A     -0.650123    17A     -0.634092    18A     -0.603616
      19A     -0.587384    20A     -0.574877    21A     -0.535049
      22A     -0.514608    23A     -0.513000    24A     -0.511978
      25A     -0.493857    26A     -0.483887    27A     -0.418262
      28A     -0.386547

  @DF-RHF Final Energy:  -325.19778587869223

   => Energetics <=

    Nuclear Repulsion Energy =            313.8112848669364325
    One-Electron Energy =               -1063.7436096906451439
    Two-Electron Energy =                 424.7345389450165385
    Total Energy =                       -325.1977858786922297
  Basis Set: (AUG-CC-PVTZ AUX)
    Blend: AUG-CC-PVTZ-RI
    Molecular point group: c1

    Geometry (in Angstrom), charge = 0, multiplicity = 1:

       Center              X                  Y                   Z               Mass
    ------------   -----------------  -----------------  -----------------  -----------------
         O            0.309604191596    -0.692569736625     1.063186573200    15.994914619570
         N           -0.693317808404     0.782127263375    -0.352128426800    14.003074004430
         C           -2.024610908404     0.430613363375     0.108053373200    12.000000000000
         C            1.734166191596     0.567591263375    -0.456040426800    12.000000000000
         C            0.405488191596     0.159786263375     0.176184573200    12.000000000000
         C           -2.573452808404    -0.831323736625    -0.557831426800    12.000000000000
         C            2.879305191596    -0.322098736625     0.022267573200    12.000000000000
         H           -1.992413808404     0.326490263375     1.179656573200     1.007825032230
         H           -2.684260808404     1.299989263375    -0.123027426800     1.007825032230
         H            1.641868191596     0.540993263375    -1.550524426800     1.007825032230
         H            1.918480191596     1.621276263375    -0.194429426800     1.007825032230
         H           -0.559734508404     1.384925163375    -1.157383726800     1.007825032230
         H           -2.609493808404    -0.727132736625    -1.650137426800     1.007825032230
         H           -1.922082808404    -1.674580736625    -0.300537426800     1.007825032230
         H           -3.585381808404    -1.055274736625    -0.199164426800     1.007825032230
         H            2.709189191596    -1.367675736625    -0.255309426800     1.007825032230
         H            3.826718191596     0.006482263375    -0.421038426800     1.007825032230
         H            2.965134191596    -0.285453736625     1.113438573200     1.007825032230

  Basis Set: AUG-CC-PVTZ
    Blend: AUG-CC-PVTZ
  Basis Set: (AUG-CC-PVTZ AUX)
    Blend: AUG-CC-PVTZ-JKFIT
	 Reference Energy          =    -325.1977858786922297 [Eh]
	 Singles Energy            =      -0.0000000000000000 [Eh]
	 Same-Spin Energy          =      -0.3318294376648271 [Eh]
	 Opposite-Spin Energy      =      -1.1194296847218190 [Eh]
	 Correlation Energy        =      -1.4512591223866460 [Eh]
	 Total Energy              =    -326.6490450010788891 [Eh]

	 ================> DF-SCS-MP2 Energies <==================
	-----------------------------------------------------------
	 SCS Same-Spin Scale       =       0.3333333333333333 [-]
	 SCS Opposite-Spin Scale   =       1.2000000000000000 [-]
	 SCS Same-Spin Energy      =      -0.1106098125549424 [Eh]
	 SCS Opposite-Spin Energy  =      -1.3433156216661828 [Eh]
	 SCS Correlation Energy    =      -1.4539254342211252 [Eh]
	 SCS Total Energy          =    -326.6517113129133350 [Eh]
	-----------------------------------------------------------

  Dipole Moment: [D]
     X:    -0.6856      Y:     2.2326      Z:    -2.5672     Total:     3.4706

*** Psi4 exiting successfully. Buy a developer a beer!
