                               Psi4 1.3.2 release

  ==> Input File <==

--------------------------------------------------------------------------
#psi4
#
memory 32 gb

molecule  {
0 1
  O        0.3109550    -0.6942360     1.0654250
  N       -0.6919670     0.7804610    -0.3498900
  C       -2.0331630     0.4428770     0.0915860
  C        1.7355170     0.5659250    -0.4538020
  C        0.3829933     0.1973690     0.1513795
  C       -2.5721020    -0.8329900    -0.5555930
  C        2.9140349    -0.2956601    -0.0061003
  H       -1.9910630     0.3248240     1.1818950
  H       -2.6829100     1.2983230    -0.1207890
  H        1.6432190     0.5393270    -1.5482860
  H        1.9198310     1.6196100    -0.1921910
  H       -0.5759590     1.3845000    -1.1569370
  H       -2.6081430    -0.7287990    -1.6478990
  H       -1.9207320    -1.6762470    -0.2982990
  H       -3.5840310    -1.0569410    -0.1969260
  H        2.7105400    -1.3693420    -0.2530710
  H        3.8280690     0.0048160    -0.4188000
  H        2.9664850    -0.2871200     1.1156770
units angstrom
no_reorient  #important for SAPT in psi4, default
symmetry c1  #important for SAPT in psi4, default
}

set PROPERTIES_ORIGIN ["COM"]
properties('MP2/aug-cc-pvtz', properties = ['dipole'])
--------------------------------------------------------------------------

    Molecular point group: c1
  Charge       = 0
  Multiplicity = 1
  Basis Set: AUG-CC-PVTZ
    Blend: AUG-CC-PVTZ
  Basis Set: (AUG-CC-PVTZ AUX)
    Blend: AUG-CC-PVTZ-JKFIT

    Orbital Energies [Eh]
    ---------------------

    Doubly Occupied:

       1A    -20.502642     2A    -15.591481     3A    -11.345571
       4A    -11.267499     5A    -11.243231     6A    -11.218048
       7A    -11.215509     8A     -1.346360     9A     -1.233759
      10A     -1.054684    11A     -1.012674    12A     -0.898658
      13A     -0.841804    14A     -0.786947    15A     -0.689654
      16A     -0.652341    17A     -0.631781    18A     -0.603854
      19A     -0.583639    20A     -0.573549    21A     -0.542776
      22A     -0.517299    23A     -0.507754    24A     -0.504737
      25A     -0.494669    26A     -0.473311    27A     -0.411506
      28A     -0.387262

  @DF-RHF Final Energy:  -325.18854886304297

   => Energetics <=

    Nuclear Repulsion Energy =            313.3067831929242288
    One-Electron Energy =               -1062.7246639420161500
    Two-Electron Energy =                 424.2293318860488966
    Total Energy =                       -325.1885488630429677
  Basis Set: (AUG-CC-PVTZ AUX)
    Blend: AUG-CC-PVTZ-RI
    Molecular point group: c1

    Geometry (in Angstrom), charge = 0, multiplicity = 1:

       Center              X                  Y                   Z               Mass
    ------------   -----------------  -----------------  -----------------  -----------------
         O            0.309823308501    -0.702231560390     1.072268844767    15.994914619570
         N           -0.693098691499     0.772465439610    -0.343046155233    14.003074004430
         C           -2.034294691499     0.434881439610     0.098429844767    12.000000000000
         C            1.734385308501     0.557929439610    -0.446958155233    12.000000000000
         C            0.381861608501     0.189373439610     0.158223344767    12.000000000000
         C           -2.573233691499    -0.840985560390    -0.548749155233    12.000000000000
         C            2.912903208501    -0.303655660390     0.000743544767    12.000000000000
         H           -1.992194691499     0.316828439610     1.188738844767     1.007825032230
         H           -2.684041691499     1.290327439610    -0.113945155233     1.007825032230
         H            1.642087308501     0.531331439610    -1.541442155233     1.007825032230
         H            1.918699308501     1.611614439610    -0.185347155233     1.007825032230
         H           -0.577090691499     1.376504439610    -1.150093155233     1.007825032230
         H           -2.609274691499    -0.736794560390    -1.641055155233     1.007825032230
         H           -1.921863691499    -1.684242560390    -0.291455155233     1.007825032230
         H           -3.585162691499    -1.064936560390    -0.190082155233     1.007825032230
         H            2.709408308501    -1.377337560390    -0.246227155233     1.007825032230
         H            3.826937308501    -0.003179560390    -0.411956155233     1.007825032230
         H            2.965353308501    -0.295115560390     1.122520844767     1.007825032230

  Basis Set: AUG-CC-PVTZ
    Blend: AUG-CC-PVTZ
  Basis Set: (AUG-CC-PVTZ AUX)
    Blend: AUG-CC-PVTZ-JKFIT
	 Reference Energy          =    -325.1885488630429677 [Eh]
	 Singles Energy            =      -0.0000000000000000 [Eh]
	 Same-Spin Energy          =      -0.3326271195252339 [Eh]
	 Opposite-Spin Energy      =      -1.1209904272374660 [Eh]
	 Correlation Energy        =      -1.4536175467626999 [Eh]
	 Total Energy              =    -326.6421664098056681 [Eh]

	 ================> DF-SCS-MP2 Energies <==================
	-----------------------------------------------------------
	 SCS Same-Spin Scale       =       0.3333333333333333 [-]
	 SCS Opposite-Spin Scale   =       1.2000000000000000 [-]
	 SCS Same-Spin Energy      =      -0.1108757065084113 [Eh]
	 SCS Opposite-Spin Energy  =      -1.3451885126849592 [Eh]
	 SCS Correlation Energy    =      -1.4560642191933706 [Eh]
	 SCS Total Energy          =    -326.6446130822363330 [Eh]
	-----------------------------------------------------------

  Dipole Moment: [D]
     X:    -0.9890      Y:     2.4744      Z:    -2.8189     Total:     3.8790

*** Psi4 exiting successfully. Buy a developer a beer!
