                               Psi4 1.3.2 release

  ==> Input File <==

--------------------------------------------------------------------------
#psi4
#
memory 32 gb

molecule  {
0 1
  O        0.3109550    -0.6942360     1.0654250
  N       -0.6919670     0.7804610    -0.3498900
  C       -2.0331630     0.4428770     0.0915860
  C        1.7355170     0.5659250    -0.4538020
  C        0.3990681     0.0890411     0.2503098
  C       -2.5721020    -0.8329900    -0.5555930
  C        2.8806560    -0.3237650     0.0245060
  H       -1.9910630     0.3248240     1.1818950
  H       -2.6829100     1.2983230    -0.1207890
  H        1.6432190     0.5393270    -1.5482860
  H        1.9198310     1.6196100    -0.1921910
  H       -0.5759590     1.3845000    -1.1569370
  H       -2.6081430    -0.7287990    -1.6478990
  H       -1.9207320    -1.6762470    -0.2982990
  H       -3.5840310    -1.0569410    -0.1969260
  H        2.7105400    -1.3693420    -0.2530710
  H        3.8280690     0.0048160    -0.4188000
  H        2.9664850    -0.2871200     1.1156770
units angstrom
no_reorient  #important for SAPT in psi4, default
symmetry c1  #important for SAPT in psi4, default
}

set PROPERTIES_ORIGIN ["COM"]
properties('MP2/aug-cc-pvtz', properties = ['dipole'])
--------------------------------------------------------------------------

    Molecular point group: c1
  Charge       = 0
  Multiplicity = 1
  Basis Set: AUG-CC-PVTZ
    Blend: AUG-CC-PVTZ
  Basis Set: (AUG-CC-PVTZ AUX)
    Blend: AUG-CC-PVTZ-JKFIT

    Orbital Energies [Eh]
    ---------------------

    Doubly Occupied:

       1A    -20.534738     2A    -15.565427     3A    -11.343050
       4A    -11.255235     5A    -11.238159     6A    -11.214611
       7A    -11.212108     8A     -1.442560     9A     -1.211006
      10A     -1.044540    11A     -0.997501    12A     -0.882385
      13A     -0.826454    14A     -0.769935    15A     -0.701100
      16A     -0.652629    17A     -0.635889    18A     -0.620179
      19A     -0.589640    20A     -0.575386    21A     -0.541787
      22A     -0.525151    23A     -0.520343    24A     -0.509500
      25A     -0.495128    26A     -0.488558    27A     -0.411311
      28A     -0.382769

  @DF-RHF Final Energy:  -325.18631205204645

   => Energetics <=

    Nuclear Repulsion Energy =            314.2884048605140492
    One-Electron Energy =               -1064.5752776741749130
    Two-Electron Energy =                 425.1005607616144744
    Total Energy =                       -325.1863120520464463
  Basis Set: (AUG-CC-PVTZ AUX)
    Blend: AUG-CC-PVTZ-RI
    Molecular point group: c1

    Geometry (in Angstrom), charge = 0, multiplicity = 1:

       Center              X                  Y                   Z               Mass
    ------------   -----------------  -----------------  -----------------  -----------------
         O            0.311877531411    -0.686035203264     1.056891156743    15.994914619570
         N           -0.691044468589     0.788661796736    -0.358423843257    14.003074004430
         C           -2.032240468589     0.451077796736     0.083052156743    12.000000000000
         C            1.736439531411     0.574125796736    -0.462335843257    12.000000000000
         C            0.399990631411     0.097241896736     0.241775956743    12.000000000000
         C           -2.571179468589    -0.824789203264    -0.564126843257    12.000000000000
         C            2.881578531411    -0.315564203264     0.015972156743    12.000000000000
         H           -1.990140468589     0.333024796736     1.173361156743     1.007825032230
         H           -2.681987468589     1.306523796736    -0.129322843257     1.007825032230
         H            1.644141531411     0.547527796736    -1.556819843257     1.007825032230
         H            1.920753531411     1.627810796736    -0.200724843257     1.007825032230
         H           -0.575036468589     1.392700796736    -1.165470843257     1.007825032230
         H           -2.607220468589    -0.720598203264    -1.656432843257     1.007825032230
         H           -1.919809468589    -1.668046203264    -0.306832843257     1.007825032230
         H           -3.583108468589    -1.048740203264    -0.205459843257     1.007825032230
         H            2.711462531411    -1.361141203264    -0.261604843257     1.007825032230
         H            3.828991531411     0.013016796736    -0.427333843257     1.007825032230
         H            2.967407531411    -0.278919203264     1.107143156743     1.007825032230

  Basis Set: AUG-CC-PVTZ
    Blend: AUG-CC-PVTZ
  Basis Set: (AUG-CC-PVTZ AUX)
    Blend: AUG-CC-PVTZ-JKFIT
	 Reference Energy          =    -325.1863120520464463 [Eh]
	 Singles Energy            =      -0.0000000000000000 [Eh]
	 Same-Spin Energy          =      -0.3299269247911953 [Eh]
	 Opposite-Spin Energy      =      -1.1158291008473546 [Eh]
	 Correlation Energy        =      -1.4457560256385500 [Eh]
	 Total Energy              =    -326.6320680776850054 [Eh]

	 ================> DF-SCS-MP2 Energies <==================
	-----------------------------------------------------------
	 SCS Same-Spin Scale       =       0.3333333333333333 [-]
	 SCS Opposite-Spin Scale   =       1.2000000000000000 [-]
	 SCS Same-Spin Energy      =      -0.1099756415970651 [Eh]
	 SCS Opposite-Spin Energy  =      -1.3389949210168255 [Eh]
	 SCS Correlation Energy    =      -1.4489705626138907 [Eh]
	 SCS Total Energy          =    -326.6352826146603547 [Eh]
	-----------------------------------------------------------

  Dipole Moment: [D]
     X:    -0.4865      Y:     1.8056      Z:    -2.0912     Total:     2.8054

*** Psi4 exiting successfully. Buy a developer a beer!
