                               Psi4 1.3.2 release

  ==> Input File <==

--------------------------------------------------------------------------
#psi4
#
memory 32 gb

molecule  {
0 1
  O        0.3109550    -0.6942360     1.0654250
  N       -0.6919670     0.7804610    -0.3498900
  C       -2.0025601     0.3922288     0.1392851
  C        1.7355170     0.5659250    -0.4538020
  C        0.3628025     0.1197415     0.2199420
  C       -2.5721020    -0.8329900    -0.5555930
  C        2.8806560    -0.3237650     0.0245060
  H       -1.9910630     0.3248240     1.1818950
  H       -2.6829100     1.2983230    -0.1207890
  H        1.6432190     0.5393270    -1.5482860
  H        1.9198310     1.6196100    -0.1921910
  H       -0.5759590     1.3845000    -1.1569370
  H       -2.6081430    -0.7287990    -1.6478990
  H       -1.9207320    -1.6762470    -0.2982990
  H       -3.5840310    -1.0569410    -0.1969260
  H        2.7105400    -1.3693420    -0.2530710
  H        3.8280690     0.0048160    -0.4188000
  H        2.9664850    -0.2871200     1.1156770
units angstrom
no_reorient  #important for SAPT in psi4, default
symmetry c1  #important for SAPT in psi4, default
}

set PROPERTIES_ORIGIN ["COM"]
properties('MP2/aug-cc-pvtz', properties = ['dipole'])
--------------------------------------------------------------------------

    Molecular point group: c1
  Charge       = 0
  Multiplicity = 1
  Basis Set: AUG-CC-PVTZ
    Blend: AUG-CC-PVTZ
  Basis Set: (AUG-CC-PVTZ AUX)
    Blend: AUG-CC-PVTZ-JKFIT

    Orbital Energies [Eh]
    ---------------------

    Doubly Occupied:

       1A    -20.523597     2A    -15.577645     3A    -11.341467
       4A    -11.262441     5A    -11.236929     6A    -11.215841
       7A    -11.212636     8A     -1.409260     9A     -1.230697
      10A     -1.043126    11A     -1.005577    12A     -0.884709
      13A     -0.830594    14A     -0.784339    15A     -0.690532
      16A     -0.656849    17A     -0.631666    18A     -0.609843
      19A     -0.591854    20A     -0.579713    21A     -0.538033
      22A     -0.522088    23A     -0.517780    24A     -0.509814
      25A     -0.490280    26A     -0.484693    27A     -0.409823
      28A     -0.390891

  @DF-RHF Final Energy:  -325.18819330003134

   => Energetics <=

    Nuclear Repulsion Energy =            314.6681359760205510
    One-Electron Energy =               -1065.3472232685942345
    Two-Electron Energy =                 425.4908939925423965
    Total Energy =                       -325.1881933000313438
  Basis Set: (AUG-CC-PVTZ AUX)
    Blend: AUG-CC-PVTZ-RI
    Molecular point group: c1

    Geometry (in Angstrom), charge = 0, multiplicity = 1:

       Center              X                  Y                   Z               Mass
    ------------   -----------------  -----------------  -----------------  -----------------
         O            0.312549767937    -0.683667138600     1.054833704838    15.994914619570
         N           -0.690372232063     0.791029861400    -0.360481295162    14.003074004430
         C           -2.000965332063     0.402797661400     0.128693804838    12.000000000000
         C            1.737111767937     0.576493861400    -0.464393295162    12.000000000000
         C            0.364397267937     0.130310361400     0.209350704838    12.000000000000
         C           -2.570507232063    -0.822421138600    -0.566184295162    12.000000000000
         C            2.882250767937    -0.313196138600     0.013914704838    12.000000000000
         H           -1.989468232063     0.335392861400     1.171303704838     1.007825032230
         H           -2.681315232063     1.308891861400    -0.131380295162     1.007825032230
         H            1.644813767937     0.549895861400    -1.558877295162     1.007825032230
         H            1.921425767937     1.630178861400    -0.202782295162     1.007825032230
         H           -0.574364232063     1.395068861400    -1.167528295162     1.007825032230
         H           -2.606548232063    -0.718230138600    -1.658490295162     1.007825032230
         H           -1.919137232063    -1.665678138600    -0.308890295162     1.007825032230
         H           -3.582436232063    -1.046372138600    -0.207517295162     1.007825032230
         H            2.712134767937    -1.358773138600    -0.263662295162     1.007825032230
         H            3.829663767937     0.015384861400    -0.429391295162     1.007825032230
         H            2.968079767937    -0.276551138600     1.105085704838     1.007825032230

  Basis Set: AUG-CC-PVTZ
    Blend: AUG-CC-PVTZ
  Basis Set: (AUG-CC-PVTZ AUX)
    Blend: AUG-CC-PVTZ-JKFIT
	 Reference Energy          =    -325.1881933000313438 [Eh]
	 Singles Energy            =      -0.0000000000000000 [Eh]
	 Same-Spin Energy          =      -0.3307532072955498 [Eh]
	 Opposite-Spin Energy      =      -1.1174004790681744 [Eh]
	 Correlation Energy        =      -1.4481536863637241 [Eh]
	 Total Energy              =    -326.6363469863950399 [Eh]

	 ================> DF-SCS-MP2 Energies <==================
	-----------------------------------------------------------
	 SCS Same-Spin Scale       =       0.3333333333333333 [-]
	 SCS Opposite-Spin Scale   =       1.2000000000000000 [-]
	 SCS Same-Spin Energy      =      -0.1102510690985166 [Eh]
	 SCS Opposite-Spin Energy  =      -1.3408805748818093 [Eh]
	 SCS Correlation Energy    =      -1.4511316439803259 [Eh]
	 SCS Total Energy          =    -326.6393249440116620 [Eh]
	-----------------------------------------------------------

  Dipole Moment: [D]
     X:    -0.8550      Y:     1.9898      Z:    -2.3191     Total:     3.1730

*** Psi4 exiting successfully. Buy a developer a beer!
