                               Psi4 1.3.2 release

  ==> Input File <==

--------------------------------------------------------------------------
#psi4
#
memory 32 gb

molecule  {
0 1
  O        0.3109550    -0.6942360     1.0654250
  N       -0.6924106     0.8008813    -0.3348957
  C       -2.0331630     0.4428770     0.0915860
  C        1.7355170     0.5659250    -0.4538020
  C        0.4068390     0.1581200     0.1784230
  C       -2.5948045    -0.8300767    -0.5418808
  C        2.8806560    -0.3237650     0.0245060
  H       -1.9910630     0.3248240     1.1818950
  H       -2.6829100     1.2983230    -0.1207890
  H        1.6432190     0.5393270    -1.5482860
  H        1.9198310     1.6196100    -0.1921910
  H       -0.5759590     1.3845000    -1.1569370
  H       -2.6081430    -0.7287990    -1.6478990
  H       -1.9207320    -1.6762470    -0.2982990
  H       -3.5840310    -1.0569410    -0.1969260
  H        2.7105400    -1.3693420    -0.2530710
  H        3.8280690     0.0048160    -0.4188000
  H        2.9664850    -0.2871200     1.1156770
units angstrom
no_reorient  #important for SAPT in psi4, default
symmetry c1  #important for SAPT in psi4, default
}

set PROPERTIES_ORIGIN ["COM"]
properties('MP2/aug-cc-pvtz', properties = ['dipole'])
--------------------------------------------------------------------------

    Molecular point group: c1
  Charge       = 0
  Multiplicity = 1
  Basis Set: AUG-CC-PVTZ
    Blend: AUG-CC-PVTZ
  Basis Set: (AUG-CC-PVTZ AUX)
    Blend: AUG-CC-PVTZ-JKFIT

    Orbital Energies [Eh]
    ---------------------

    Doubly Occupied:

       1A    -20.515534     2A    -15.581473     3A    -11.346939
       4A    -11.261789     5A    -11.242965     6A    -11.216391
       7A    -11.215532     8A     -1.369233     9A     -1.224457
      10A     -1.054590    11A     -1.006420    12A     -0.894852
      13A     -0.835912    14A     -0.775546    15A     -0.692202
      16A     -0.647761    17A     -0.634041    18A     -0.604274
      19A     -0.587647    20A     -0.574900    21A     -0.538150
      22A     -0.515139    23A     -0.513966    24A     -0.511555
      25A     -0.492450    26A     -0.480790    27A     -0.419514
      28A     -0.387120

  @DF-RHF Final Energy:  -325.19733613708246

   => Energetics <=

    Nuclear Repulsion Energy =            313.3684909213332617
    One-Electron Energy =               -1062.8493707295654076
    Two-Electron Energy =                 424.2835436711497437
    Total Energy =                       -325.1973361370824591
  Basis Set: (AUG-CC-PVTZ AUX)
    Blend: AUG-CC-PVTZ-RI
    Molecular point group: c1

    Geometry (in Angstrom), charge = 0, multiplicity = 1:

       Center              X                  Y                   Z               Mass
    ------------   -----------------  -----------------  -----------------  -----------------
         O            0.313711559014    -0.697410422332     1.061720097016    15.994914619570
         N           -0.689654040986     0.797706877668    -0.338600602984    14.003074004430
         C           -2.030406440986     0.439702577668     0.087881097016    12.000000000000
         C            1.738273559014     0.562750577668    -0.457506902984    12.000000000000
         C            0.409595559014     0.154945577668     0.174718097016    12.000000000000
         C           -2.592047940986    -0.833251122332    -0.545585702984    12.000000000000
         C            2.883412559014    -0.326939422332     0.020801097016    12.000000000000
         H           -1.988306440986     0.321649577668     1.178190097016     1.007825032230
         H           -2.680153440986     1.295148577668    -0.124493902984     1.007825032230
         H            1.645975559014     0.536152577668    -1.551990902984     1.007825032230
         H            1.922587559014     1.616435577668    -0.195895902984     1.007825032230
         H           -0.573202440986     1.381325577668    -1.160641902984     1.007825032230
         H           -2.605386440986    -0.731973422332    -1.651603902984     1.007825032230
         H           -1.917975440986    -1.679421422332    -0.302003902984     1.007825032230
         H           -3.581274440986    -1.060115422332    -0.200630902984     1.007825032230
         H            2.713296559014    -1.372516422332    -0.256775902984     1.007825032230
         H            3.830825559014     0.001641577668    -0.422504902984     1.007825032230
         H            2.969241559014    -0.290294422332     1.111972097016     1.007825032230

  Basis Set: AUG-CC-PVTZ
    Blend: AUG-CC-PVTZ
  Basis Set: (AUG-CC-PVTZ AUX)
    Blend: AUG-CC-PVTZ-JKFIT
	 Reference Energy          =    -325.1973361370824591 [Eh]
	 Singles Energy            =      -0.0000000000000000 [Eh]
	 Same-Spin Energy          =      -0.3318142327367108 [Eh]
	 Opposite-Spin Energy      =      -1.1195033552882083 [Eh]
	 Correlation Energy        =      -1.4513175880249192 [Eh]
	 Total Energy              =    -326.6486537251073514 [Eh]

	 ================> DF-SCS-MP2 Energies <==================
	-----------------------------------------------------------
	 SCS Same-Spin Scale       =       0.3333333333333333 [-]
	 SCS Opposite-Spin Scale   =       1.2000000000000000 [-]
	 SCS Same-Spin Energy      =      -0.1106047442455703 [Eh]
	 SCS Opposite-Spin Energy  =      -1.3434040263458500 [Eh]
	 SCS Correlation Energy    =      -1.4540087705914202 [Eh]
	 SCS Total Energy          =    -326.6513449076738880 [Eh]
	-----------------------------------------------------------

  Dipole Moment: [D]
     X:    -0.6760      Y:     2.1816      Z:    -2.5854     Total:     3.4497

*** Psi4 exiting successfully. Buy a developer a beer!
