                               Psi4 1.3.2 release

  ==> Input File <==

--------------------------------------------------------------------------
#psi4
#
memory 32 gb

molecule  {
0 1
  O        0.3109550    -0.6942360     1.0654250
  N       -0.6919670     0.7804610    -0.3498900
  C       -2.0331630     0.4428770     0.0915860
  C        1.7355170     0.5659250    -0.4538020
  C        0.3639981     0.1282853     0.2275199
  C       -2.5721020    -0.8329900    -0.5555930
  C        2.8806560    -0.3237650     0.0245060
  H       -1.9910630     0.3248240     1.1818950
  H       -2.6829100     1.2983230    -0.1207890
  H        1.6432190     0.5393270    -1.5482860
  H        1.9198310     1.6196100    -0.1921910
  H       -0.6282641     1.3937238    -1.1558035
  H       -2.6081430    -0.7287990    -1.6478990
  H       -1.9207320    -1.6762470    -0.2982990
  H       -3.5840310    -1.0569410    -0.1969260
  H        2.7105400    -1.3693420    -0.2530710
  H        3.8280690     0.0048160    -0.4188000
  H        2.9664850    -0.2871200     1.1156770
units angstrom
no_reorient  #important for SAPT in psi4, default
symmetry c1  #important for SAPT in psi4, default
}

set PROPERTIES_ORIGIN ["COM"]
properties('MP2/aug-cc-pvtz', properties = ['dipole'])
--------------------------------------------------------------------------

    Molecular point group: c1
  Charge       = 0
  Multiplicity = 1
  Basis Set: AUG-CC-PVTZ
    Blend: AUG-CC-PVTZ
  Basis Set: (AUG-CC-PVTZ AUX)
    Blend: AUG-CC-PVTZ-JKFIT

    Orbital Energies [Eh]
    ---------------------

    Doubly Occupied:

       1A    -20.523752     2A    -15.577213     3A    -11.343480
       4A    -11.259759     5A    -11.237063     6A    -11.215350
       7A    -11.212532     8A     -1.408372     9A     -1.229742
      10A     -1.042403    11A     -1.003454    12A     -0.886005
      13A     -0.830031    14A     -0.784410    15A     -0.692605
      16A     -0.651175    17A     -0.630729    18A     -0.610834
      19A     -0.593317    20A     -0.575814    21A     -0.536698
      22A     -0.520063    23A     -0.516835    24A     -0.508190
      25A     -0.494735    26A     -0.486905    27A     -0.410731
      28A     -0.390318

  @DF-RHF Final Energy:  -325.19420528683656

   => Energetics <=

    Nuclear Repulsion Energy =            314.1421595569453871
    One-Electron Energy =               -1064.3277007655869966
    Two-Electron Energy =                 424.9913359218049891
    Total Energy =                       -325.1942052868365636
  Basis Set: (AUG-CC-PVTZ AUX)
    Blend: AUG-CC-PVTZ-RI
    Molecular point group: c1

    Geometry (in Angstrom), charge = 0, multiplicity = 1:

       Center              X                  Y                   Z               Mass
    ------------   -----------------  -----------------  -----------------  -----------------
         O            0.316562289526    -0.690785965724     1.059585314651    15.994914619570
         N           -0.686359710474     0.783911034276    -0.355729685349    14.003074004430
         C           -2.027555710474     0.446327034276     0.085746314651    12.000000000000
         C            1.741124289526     0.569375034276    -0.459641685349    12.000000000000
         C            0.369605389526     0.131735334276     0.221680214651    12.000000000000
         C           -2.566494710474    -0.829539965724    -0.561432685349    12.000000000000
         C            2.886263289526    -0.320314965724     0.018666314651    12.000000000000
         H           -1.985455710474     0.328274034276     1.176055314651     1.007825032230
         H           -2.677302710474     1.301773034276    -0.126628685349     1.007825032230
         H            1.648826289526     0.542777034276    -1.554125685349     1.007825032230
         H            1.925438289526     1.623060034276    -0.198030685349     1.007825032230
         H           -0.622656810474     1.397173834276    -1.161643185349     1.007825032230
         H           -2.602535710474    -0.725348965724    -1.653738685349     1.007825032230
         H           -1.915124710474    -1.672796965724    -0.304138685349     1.007825032230
         H           -3.578423710474    -1.053490965724    -0.202765685349     1.007825032230
         H            2.716147289526    -1.365891965724    -0.258910685349     1.007825032230
         H            3.833676289526     0.008266034276    -0.424639685349     1.007825032230
         H            2.972092289526    -0.283669965724     1.109837314651     1.007825032230

  Basis Set: AUG-CC-PVTZ
    Blend: AUG-CC-PVTZ
  Basis Set: (AUG-CC-PVTZ AUX)
    Blend: AUG-CC-PVTZ-JKFIT
	 Reference Energy          =    -325.1942052868365636 [Eh]
	 Singles Energy            =      -0.0000000000000000 [Eh]
	 Same-Spin Energy          =      -0.3306332260266217 [Eh]
	 Opposite-Spin Energy      =      -1.1171488401811600 [Eh]
	 Correlation Energy        =      -1.4477820662077816 [Eh]
	 Total Energy              =    -326.6419873530443283 [Eh]

	 ================> DF-SCS-MP2 Energies <==================
	-----------------------------------------------------------
	 SCS Same-Spin Scale       =       0.3333333333333333 [-]
	 SCS Opposite-Spin Scale   =       1.2000000000000000 [-]
	 SCS Same-Spin Energy      =      -0.1102110753422072 [Eh]
	 SCS Opposite-Spin Energy  =      -1.3405786082173921 [Eh]
	 SCS Correlation Energy    =      -1.4507896835595993 [Eh]
	 SCS Total Energy          =    -326.6449949703961693 [Eh]
	-----------------------------------------------------------

  Dipole Moment: [D]
     X:    -0.9020      Y:     2.0658      Z:    -2.3386     Total:     3.2482

*** Psi4 exiting successfully. Buy a developer a beer!
