                               Psi4 1.3.2 release

  ==> Input File <==

--------------------------------------------------------------------------
#psi4
#
memory 32 gb

molecule  {
0 1
  O        0.3109550    -0.6942360     1.0654250
  N       -0.6919670     0.7804610    -0.3498900
  C       -2.0331630     0.4428770     0.0915860
  C        1.7355170     0.5659250    -0.4538020
  C        0.4146099     0.2271989     0.1065362
  C       -2.5721020    -0.8329900    -0.5555930
  C        2.8806560    -0.3237650     0.0245060
  H       -1.9910630     0.3248240     1.1818950
  H       -2.6829100     1.2983230    -0.1207890
  H        1.6432190     0.5393270    -1.5482860
  H        1.9198310     1.6196100    -0.1921910
  H       -0.5759590     1.3845000    -1.1569370
  H       -2.6081430    -0.7287990    -1.6478990
  H       -1.9207320    -1.6762470    -0.2982990
  H       -3.5840310    -1.0569410    -0.1969260
  H        2.7105400    -1.3693420    -0.2530710
  H        3.8280690     0.0048160    -0.4188000
  H        2.9664850    -0.2871200     1.1156770
units angstrom
no_reorient  #important for SAPT in psi4, default
symmetry c1  #important for SAPT in psi4, default
}

set PROPERTIES_ORIGIN ["COM"]
properties('MP2/aug-cc-pvtz', properties = ['dipole'])
--------------------------------------------------------------------------

    Molecular point group: c1
  Charge       = 0
  Multiplicity = 1
  Basis Set: AUG-CC-PVTZ
    Blend: AUG-CC-PVTZ
  Basis Set: (AUG-CC-PVTZ AUX)
    Blend: AUG-CC-PVTZ-JKFIT

    Orbital Energies [Eh]
    ---------------------

    Doubly Occupied:

       1A    -20.493960     2A    -15.595962     3A    -11.347249
       4A    -11.269207     5A    -11.245855     6A    -11.218066
       7A    -11.217524     8A     -1.327042     9A     -1.221015
      10A     -1.064604    11A     -1.015319    12A     -0.904887
      13A     -0.847156    14A     -0.783164    15A     -0.692317
      16A     -0.653816    17A     -0.638882    18A     -0.602606
      19A     -0.583679    20A     -0.558100    21A     -0.539045
      22A     -0.517734    23A     -0.511297    24A     -0.502678
      25A     -0.496249    26A     -0.470450    27A     -0.407391
      28A     -0.380311

  @DF-RHF Final Energy:  -325.17782859705437

   => Energetics <=

    Nuclear Repulsion Energy =            313.2854902765261613
    One-Electron Energy =               -1062.7155093522637799
    Two-Electron Energy =                 424.2521904786832465
    Total Energy =                       -325.1778285970543720
  Basis Set: (AUG-CC-PVTZ AUX)
    Blend: AUG-CC-PVTZ-RI
    Molecular point group: c1

    Geometry (in Angstrom), charge = 0, multiplicity = 1:

       Center              X                  Y                   Z               Mass
    ------------   -----------------  -----------------  -----------------  -----------------
         O            0.310032516552    -0.702436340443     1.073958962806    15.994914619570
         N           -0.692889483448     0.772260659557    -0.341356037194    14.003074004430
         C           -2.034085483448     0.434676659557     0.100119962806    12.000000000000
         C            1.734594516552     0.557724659557    -0.445268037194    12.000000000000
         C            0.413687416552     0.218998559557     0.115070162806    12.000000000000
         C           -2.573024483448    -0.841190340443    -0.547059037194    12.000000000000
         C            2.879733516552    -0.331965340443     0.033039962806    12.000000000000
         H           -1.991985483448     0.316623659557     1.190428962806     1.007825032230
         H           -2.683832483448     1.290122659557    -0.112255037194     1.007825032230
         H            1.642296516552     0.531126659557    -1.539752037194     1.007825032230
         H            1.918908516552     1.611409659557    -0.183657037194     1.007825032230
         H           -0.576881483448     1.376299659557    -1.148403037194     1.007825032230
         H           -2.609065483448    -0.736999340443    -1.639365037194     1.007825032230
         H           -1.921654483448    -1.684447340443    -0.289765037194     1.007825032230
         H           -3.584953483448    -1.065141340443    -0.188392037194     1.007825032230
         H            2.709617516552    -1.377542340443    -0.244537037194     1.007825032230
         H            3.827146516552    -0.003384340443    -0.410266037194     1.007825032230
         H            2.965562516552    -0.295320340443     1.124210962806     1.007825032230

  Basis Set: AUG-CC-PVTZ
    Blend: AUG-CC-PVTZ
  Basis Set: (AUG-CC-PVTZ AUX)
    Blend: AUG-CC-PVTZ-JKFIT
	 Reference Energy          =    -325.1778285970543720 [Eh]
	 Singles Energy            =      -0.0000000000000000 [Eh]
	 Same-Spin Energy          =      -0.3339460954193595 [Eh]
	 Opposite-Spin Energy      =      -1.1234940098089767 [Eh]
	 Correlation Energy        =      -1.4574401052283363 [Eh]
	 Total Energy              =    -326.6352687022827013 [Eh]

	 ================> DF-SCS-MP2 Energies <==================
	-----------------------------------------------------------
	 SCS Same-Spin Scale       =       0.3333333333333333 [-]
	 SCS Opposite-Spin Scale   =       1.2000000000000000 [-]
	 SCS Same-Spin Energy      =      -0.1113153651397865 [Eh]
	 SCS Opposite-Spin Energy  =      -1.3481928117707720 [Eh]
	 SCS Correlation Energy    =      -1.4595081769105585 [Eh]
	 SCS Total Energy          =    -326.6373367739649325 [Eh]
	-----------------------------------------------------------

  Dipole Moment: [D]
     X:    -0.9075      Y:     2.6177      Z:    -3.0000     Total:     4.0836

*** Psi4 exiting successfully. Buy a developer a beer!
