                               Psi4 1.3.2 release

  ==> Input File <==

--------------------------------------------------------------------------
#psi4
#
memory 32 gb

molecule  {
0 1
  O        0.3753045    -0.6998504     1.0646337
  N       -0.6480404     0.8176200    -0.3926171
  C       -2.0331630     0.4428770     0.0915860
  C        1.7355170     0.5659250    -0.4538020
  C        0.4068390     0.1581200     0.1784230
  C       -2.5721020    -0.8329900    -0.5555930
  C        2.8806560    -0.3237650     0.0245060
  H       -1.9910630     0.3248240     1.1818950
  H       -2.6829100     1.2983230    -0.1207890
  H        1.6432190     0.5393270    -1.5482860
  H        1.9198310     1.6196100    -0.1921910
  H       -0.5759590     1.3845000    -1.1569370
  H       -2.6081430    -0.7287990    -1.6478990
  H       -1.9207320    -1.6762470    -0.2982990
  H       -3.5840310    -1.0569410    -0.1969260
  H        2.7105400    -1.3693420    -0.2530710
  H        3.8280690     0.0048160    -0.4188000
  H        2.9664850    -0.2871200     1.1156770
units angstrom
no_reorient  #important for SAPT in psi4, default
symmetry c1  #important for SAPT in psi4, default
}

set PROPERTIES_ORIGIN ["COM"]
properties('MP2/aug-cc-pvtz', properties = ['dipole'])
--------------------------------------------------------------------------

    Molecular point group: c1
  Charge       = 0
  Multiplicity = 1
  Basis Set: AUG-CC-PVTZ
    Blend: AUG-CC-PVTZ
  Basis Set: (AUG-CC-PVTZ AUX)
    Blend: AUG-CC-PVTZ-JKFIT

    Orbital Energies [Eh]
    ---------------------

    Doubly Occupied:

       1A    -20.518033     2A    -15.580886     3A    -11.347443
       4A    -11.269655     5A    -11.235325     6A    -11.219354
       7A    -11.211518     8A     -1.367890     9A     -1.227225
      10A     -1.049347    11A     -1.009051    12A     -0.890362
      13A     -0.834989    14A     -0.795587    15A     -0.688727
      16A     -0.642542    17A     -0.630829    18A     -0.603703
      19A     -0.596330    20A     -0.570824    21A     -0.535108
      22A     -0.514876    23A     -0.510288    24A     -0.506398
      25A     -0.496185    26A     -0.482291    27A     -0.415683
      28A     -0.394670

  @DF-RHF Final Energy:  -325.19096716428203

   => Energetics <=

    Nuclear Repulsion Energy =            312.8773365953775851
    One-Electron Energy =               -1061.8463739651356263
    Two-Electron Energy =                 423.7780702054760695
    Total Energy =                       -325.1909671642820285
  Basis Set: (AUG-CC-PVTZ AUX)
    Blend: AUG-CC-PVTZ-RI
    Molecular point group: c1

    Geometry (in Angstrom), charge = 0, multiplicity = 1:

       Center              X                  Y                   Z               Mass
    ------------   -----------------  -----------------  -----------------  -----------------
         O            0.359037150825    -0.704109383062     1.070677912485    15.994914619570
         N           -0.664307749175     0.813361016938    -0.386572887515    14.003074004430
         C           -2.049430349175     0.438618016938     0.097630212485    12.000000000000
         C            1.719249650825     0.561666016938    -0.447757787515    12.000000000000
         C            0.390571650825     0.153861016938     0.184467212485    12.000000000000
         C           -2.588369349175    -0.837248983062    -0.549548787515    12.000000000000
         C            2.864388650825    -0.328023983062     0.030550212485    12.000000000000
         H           -2.007330349175     0.320565016938     1.187939212485     1.007825032230
         H           -2.699177349175     1.294064016938    -0.114744787515     1.007825032230
         H            1.626951650825     0.535068016938    -1.542241787515     1.007825032230
         H            1.903563650825     1.615351016938    -0.186146787515     1.007825032230
         H           -0.592226349175     1.380241016938    -1.150892787515     1.007825032230
         H           -2.624410349175    -0.733057983062    -1.641854787515     1.007825032230
         H           -1.936999349175    -1.680505983062    -0.292254787515     1.007825032230
         H           -3.600298349175    -1.061199983062    -0.190881787515     1.007825032230
         H            2.694272650825    -1.373600983062    -0.247026787515     1.007825032230
         H            3.811801650825     0.000557016938    -0.412755787515     1.007825032230
         H            2.950217650825    -0.291378983062     1.121721212485     1.007825032230

  Basis Set: AUG-CC-PVTZ
    Blend: AUG-CC-PVTZ
  Basis Set: (AUG-CC-PVTZ AUX)
    Blend: AUG-CC-PVTZ-JKFIT
	 Reference Energy          =    -325.1909671642820285 [Eh]
	 Singles Energy            =      -0.0000000000000000 [Eh]
	 Same-Spin Energy          =      -0.3313944686997345 [Eh]
	 Opposite-Spin Energy      =      -1.1193726870985758 [Eh]
	 Correlation Energy        =      -1.4507671557983104 [Eh]
	 Total Energy              =    -326.6417343200803316 [Eh]

	 ================> DF-SCS-MP2 Energies <==================
	-----------------------------------------------------------
	 SCS Same-Spin Scale       =       0.3333333333333333 [-]
	 SCS Opposite-Spin Scale   =       1.2000000000000000 [-]
	 SCS Same-Spin Energy      =      -0.1104648228999115 [Eh]
	 SCS Opposite-Spin Energy  =      -1.3432472245182909 [Eh]
	 SCS Correlation Energy    =      -1.4537120474182024 [Eh]
	 SCS Total Energy          =    -326.6446792117002360 [Eh]
	-----------------------------------------------------------

  Dipole Moment: [D]
     X:    -1.0898      Y:     2.1629      Z:    -2.5097     Total:     3.4878

*** Psi4 exiting successfully. Buy a developer a beer!
