                               Psi4 1.3.2 release

  ==> Input File <==

--------------------------------------------------------------------------
#psi4
#
memory 32 gb

molecule  {
0 1
  O        0.3109550    -0.6942360     1.0654250
  N       -0.6919670     0.7804610    -0.3498900
  C       -2.0331630     0.4428770     0.0915860
  C        1.7355170     0.5659250    -0.4538020
  C        0.4068390     0.1581200     0.1784230
  C       -2.5670557    -0.8097701    -0.6033717
  C        2.8806560    -0.3237650     0.0245060
  H       -1.9772455     0.3604544     1.1845464
  H       -2.6829100     1.2983230    -0.1207890
  H        1.6432190     0.5393270    -1.5482860
  H        1.9198310     1.6196100    -0.1921910
  H       -0.5759590     1.3845000    -1.1569370
  H       -2.6081430    -0.7287990    -1.6478990
  H       -1.9207320    -1.6762470    -0.2982990
  H       -3.5840310    -1.0569410    -0.1969260
  H        2.7105400    -1.3693420    -0.2530710
  H        3.8280690     0.0048160    -0.4188000
  H        2.9664850    -0.2871200     1.1156770
units angstrom
no_reorient  #important for SAPT in psi4, default
symmetry c1  #important for SAPT in psi4, default
}

set PROPERTIES_ORIGIN ["COM"]
properties('MP2/aug-cc-pvtz', properties = ['dipole'])
--------------------------------------------------------------------------

    Molecular point group: c1
  Charge       = 0
  Multiplicity = 1
  Basis Set: AUG-CC-PVTZ
    Blend: AUG-CC-PVTZ
  Basis Set: (AUG-CC-PVTZ AUX)
    Blend: AUG-CC-PVTZ-JKFIT

    Orbital Energies [Eh]
    ---------------------

    Doubly Occupied:

       1A    -20.513851     2A    -15.579995     3A    -11.345653
       4A    -11.262566     5A    -11.242345     6A    -11.215925
       7A    -11.215911     8A     -1.368465     9A     -1.225003
      10A     -1.054327    11A     -1.005975    12A     -0.894325
      13A     -0.837193    14A     -0.776312    15A     -0.691804
      16A     -0.648055    17A     -0.633847    18A     -0.604831
      19A     -0.588340    20A     -0.576795    21A     -0.530275
      22A     -0.516794    23A     -0.513918    24A     -0.509552
      25A     -0.492658    26A     -0.483661    27A     -0.417848
      28A     -0.385982

  @DF-RHF Final Energy:  -325.19461973773997

   => Energetics <=

    Nuclear Repulsion Energy =            313.7042227913748889
    One-Electron Energy =               -1063.5332764526699521
    Two-Electron Energy =                 424.6344339235551502
    Total Energy =                       -325.1946197377399699
  Basis Set: (AUG-CC-PVTZ AUX)
    Blend: AUG-CC-PVTZ-RI
    Molecular point group: c1

    Geometry (in Angstrom), charge = 0, multiplicity = 1:

       Center              X                  Y                   Z               Mass
    ------------   -----------------  -----------------  -----------------  -----------------
         O            0.310218199407    -0.697347518618     1.071070581237    15.994914619570
         N           -0.692703800593     0.777349481382    -0.344244418763    14.003074004430
         C           -2.033899800593     0.439765481382     0.097231581237    12.000000000000
         C            1.734780199407     0.562813481382    -0.448156418763    12.000000000000
         C            0.406102199407     0.155008481382     0.184068581237    12.000000000000
         C           -2.567792500593    -0.812881618618    -0.597726118763    12.000000000000
         C            2.879919199407    -0.326876518618     0.030151581237    12.000000000000
         H           -1.977982300593     0.357342881382     1.190191981237     1.007825032230
         H           -2.683646800593     1.295211481382    -0.115143418763     1.007825032230
         H            1.642482199407     0.536215481382    -1.542640418763     1.007825032230
         H            1.919094199407     1.616498481382    -0.186545418763     1.007825032230
         H           -0.576695800593     1.381388481382    -1.151291418763     1.007825032230
         H           -2.608879800593    -0.731910518618    -1.642253418763     1.007825032230
         H           -1.921468800593    -1.679358518618    -0.292653418763     1.007825032230
         H           -3.584767800593    -1.060052518618    -0.191280418763     1.007825032230
         H            2.709803199407    -1.372453518618    -0.247425418763     1.007825032230
         H            3.827332199407     0.001704481382    -0.413154418763     1.007825032230
         H            2.965748199407    -0.290231518618     1.121322581237     1.007825032230

  Basis Set: AUG-CC-PVTZ
    Blend: AUG-CC-PVTZ
  Basis Set: (AUG-CC-PVTZ AUX)
    Blend: AUG-CC-PVTZ-JKFIT
	 Reference Energy          =    -325.1946197377399699 [Eh]
	 Singles Energy            =      -0.0000000000000000 [Eh]
	 Same-Spin Energy          =      -0.3319425192784806 [Eh]
	 Opposite-Spin Energy      =      -1.1196666138885547 [Eh]
	 Correlation Energy        =      -1.4516091331670353 [Eh]
	 Total Energy              =    -326.6462288709070094 [Eh]

	 ================> DF-SCS-MP2 Energies <==================
	-----------------------------------------------------------
	 SCS Same-Spin Scale       =       0.3333333333333333 [-]
	 SCS Opposite-Spin Scale   =       1.2000000000000000 [-]
	 SCS Same-Spin Energy      =      -0.1106475064261602 [Eh]
	 SCS Opposite-Spin Energy  =      -1.3435999366662656 [Eh]
	 SCS Correlation Energy    =      -1.4542474430924259 [Eh]
	 SCS Total Energy          =    -326.6488671808323829 [Eh]
	-----------------------------------------------------------

  Dipole Moment: [D]
     X:    -0.7133      Y:     2.2602      Z:    -2.6033     Total:     3.5206

*** Psi4 exiting successfully. Buy a developer a beer!
