                               Psi4 1.3.2 release

  ==> Input File <==

--------------------------------------------------------------------------
#psi4
#
memory 32 gb

molecule  {
0 1
  O        0.2895549    -0.6918444     1.0651484
  N       -0.7059456     0.7676904    -0.3353199
  C       -2.0331630     0.4428770     0.0915860
  C        1.7355170     0.5659250    -0.4538020
  C        0.4068390     0.1581200     0.1784230
  C       -2.5721020    -0.8329900    -0.5555930
  C        2.8806560    -0.3237650     0.0245060
  H       -1.9910630     0.3248240     1.1818950
  H       -2.6829100     1.2983230    -0.1207890
  H        1.6432190     0.5393270    -1.5482860
  H        1.9198310     1.6196100    -0.1921910
  H       -0.5759590     1.3845000    -1.1569370
  H       -2.6081430    -0.7287990    -1.6478990
  H       -1.9207320    -1.6762470    -0.2982990
  H       -3.5840310    -1.0569410    -0.1969260
  H        2.7105400    -1.3693420    -0.2530710
  H        3.8280690     0.0048160    -0.4188000
  H        2.9664850    -0.2871200     1.1156770
units angstrom
no_reorient  #important for SAPT in psi4, default
symmetry c1  #important for SAPT in psi4, default
}

set PROPERTIES_ORIGIN ["COM"]
properties('MP2/aug-cc-pvtz', properties = ['dipole'])
--------------------------------------------------------------------------

    Molecular point group: c1
  Charge       = 0
  Multiplicity = 1
  Basis Set: AUG-CC-PVTZ
    Blend: AUG-CC-PVTZ
  Basis Set: (AUG-CC-PVTZ AUX)
    Blend: AUG-CC-PVTZ-JKFIT

    Orbital Energies [Eh]
    ---------------------

    Doubly Occupied:

       1A    -20.513097     2A    -15.580937     3A    -11.345923
       4A    -11.259704     5A    -11.245015     6A    -11.217655
       7A    -11.213535     8A     -1.369541     9A     -1.224897
      10A     -1.056278    11A     -1.005298    12A     -0.895746
      13A     -0.837075    14A     -0.769875    15A     -0.693610
      16A     -0.650519    17A     -0.635000    18A     -0.605557
      19A     -0.585460    20A     -0.573081    21A     -0.534978
      22A     -0.515717    23A     -0.513743    24A     -0.512923
      25A     -0.494686    26A     -0.481811    27A     -0.419046
      28A     -0.383512

  @DF-RHF Final Energy:  -325.19677961998343

   => Energetics <=

    Nuclear Repulsion Energy =            313.9792696857885517
    One-Electron Energy =               -1064.0836573989979570
    Two-Electron Energy =                 424.9076080932260311
    Total Energy =                       -325.1967796199834311
  Basis Set: (AUG-CC-PVTZ AUX)
    Blend: AUG-CC-PVTZ-RI
    Molecular point group: c1

    Geometry (in Angstrom), charge = 0, multiplicity = 1:

       Center              X                  Y                   Z               Mass
    ------------   -----------------  -----------------  -----------------  -----------------
         O            0.294877584364    -0.690453505377     1.063173845901    15.994914619570
         N           -0.700622915636     0.769081294623    -0.337294454099    14.003074004430
         C           -2.027840315636     0.444267894623     0.089611445901    12.000000000000
         C            1.740839684364     0.567315894623    -0.455776554099    12.000000000000
         C            0.412161684364     0.159510894623     0.176448445901    12.000000000000
         C           -2.566779315636    -0.831599105377    -0.557567554099    12.000000000000
         C            2.885978684364    -0.322374105377     0.022531445901    12.000000000000
         H           -1.985740315636     0.326214894623     1.179920445901     1.007825032230
         H           -2.677587315636     1.299713894623    -0.122763554099     1.007825032230
         H            1.648541684364     0.540717894623    -1.550260554099     1.007825032230
         H            1.925153684364     1.621000894623    -0.194165554099     1.007825032230
         H           -0.570636315636     1.385890894623    -1.158911554099     1.007825032230
         H           -2.602820315636    -0.727408105377    -1.649873554099     1.007825032230
         H           -1.915409315636    -1.674856105377    -0.300273554099     1.007825032230
         H           -3.578708315636    -1.055550105377    -0.198900554099     1.007825032230
         H            2.715862684364    -1.367951105377    -0.255045554099     1.007825032230
         H            3.833391684364     0.006206894623    -0.420774554099     1.007825032230
         H            2.971807684364    -0.285729105377     1.113702445901     1.007825032230

  Basis Set: AUG-CC-PVTZ
    Blend: AUG-CC-PVTZ
  Basis Set: (AUG-CC-PVTZ AUX)
    Blend: AUG-CC-PVTZ-JKFIT
	 Reference Energy          =    -325.1967796199834311 [Eh]
	 Singles Energy            =      -0.0000000000000000 [Eh]
	 Same-Spin Energy          =      -0.3321053587644874 [Eh]
	 Opposite-Spin Energy      =      -1.1197430318293695 [Eh]
	 Correlation Energy        =      -1.4518483905938568 [Eh]
	 Total Energy              =    -326.6486280105772835 [Eh]

	 ================> DF-SCS-MP2 Energies <==================
	-----------------------------------------------------------
	 SCS Same-Spin Scale       =       0.3333333333333333 [-]
	 SCS Opposite-Spin Scale   =       1.2000000000000000 [-]
	 SCS Same-Spin Energy      =      -0.1107017862548291 [Eh]
	 SCS Opposite-Spin Energy  =      -1.3436916381952433 [Eh]
	 SCS Correlation Energy    =      -1.4543934244500725 [Eh]
	 SCS Total Energy          =    -326.6511730444335058 [Eh]
	-----------------------------------------------------------

  Dipole Moment: [D]
     X:    -0.5707      Y:     2.2678      Z:    -2.5980     Total:     3.4955

*** Psi4 exiting successfully. Buy a developer a beer!
