                               Psi4 1.3.2 release

  ==> Input File <==

--------------------------------------------------------------------------
#psi4
#
memory 32 gb

molecule  {
0 1
  O        0.3109550    -0.6942360     1.0654250
  N       -0.6919670     0.7804610    -0.3498900
  C       -2.2179285     0.3963708     0.1524045
  C        1.7355170     0.5659250    -0.4538020
  C        0.4068390     0.1581200     0.1784230
  C       -2.5721020    -0.8329900    -0.5555930
  C        2.8806560    -0.3237650     0.0245060
  H       -1.9910630     0.3248240     1.1818950
  H       -2.6829100     1.2983230    -0.1207890
  H        1.6432190     0.5393270    -1.5482860
  H        1.9198310     1.6196100    -0.1921910
  H       -0.5759590     1.3845000    -1.1569370
  H       -2.6081430    -0.7287990    -1.6478990
  H       -1.9207320    -1.6762470    -0.2982990
  H       -3.5840310    -1.0569410    -0.1969260
  H        2.7105400    -1.3693420    -0.2530710
  H        3.8280690     0.0048160    -0.4188000
  H        2.9664850    -0.2871200     1.1156770
units angstrom
no_reorient  #important for SAPT in psi4, default
symmetry c1  #important for SAPT in psi4, default
}

set PROPERTIES_ORIGIN ["COM"]
properties('MP2/aug-cc-pvtz', properties = ['dipole'])
--------------------------------------------------------------------------

    Molecular point group: c1
  Charge       = 0
  Multiplicity = 1
  Basis Set: AUG-CC-PVTZ
    Blend: AUG-CC-PVTZ
  Basis Set: (AUG-CC-PVTZ AUX)
    Blend: AUG-CC-PVTZ-JKFIT

    Orbital Energies [Eh]
    ---------------------

    Doubly Occupied:

       1A    -20.504834     2A    -15.567058     3A    -11.336758
       4A    -11.274776     5A    -11.235984     6A    -11.221863
       7A    -11.211386     8A     -1.357353     9A     -1.187761
      10A     -1.054190    11A     -1.022567    12A     -0.883467
      13A     -0.841879    14A     -0.759140    15A     -0.684532
      16A     -0.629653    17A     -0.626513    18A     -0.617973
      19A     -0.585602    20A     -0.575979    21A     -0.536364
      22A     -0.526595    23A     -0.512135    24A     -0.508313
      25A     -0.483031    26A     -0.479453    27A     -0.406676
      28A     -0.381667

  @DF-RHF Final Energy:  -325.17085718643108

   => Energetics <=

    Nuclear Repulsion Energy =            311.2382299887668751
    One-Electron Energy =               -1058.7911694397498650
    Two-Electron Energy =                 422.3820822645519115
    Total Energy =                       -325.1708571864310784
  Basis Set: (AUG-CC-PVTZ AUX)
    Blend: AUG-CC-PVTZ-RI
    Molecular point group: c1

    Geometry (in Angstrom), charge = 0, multiplicity = 1:

       Center              X                  Y                   Z               Mass
    ------------   -----------------  -----------------  -----------------  -----------------
         O            0.332889104515    -0.688714877876     1.058205108664    15.994914619570
         N           -0.670032895485     0.785982122124    -0.357109891336    14.003074004430
         C           -2.195994395485     0.401891922124     0.145184608664    12.000000000000
         C            1.757451104515     0.571446122124    -0.461021891336    12.000000000000
         C            0.428773104515     0.163641122124     0.171203108664    12.000000000000
         C           -2.550167895485    -0.827468877876    -0.562812891336    12.000000000000
         C            2.902590104515    -0.318243877876     0.017286108664    12.000000000000
         H           -1.969128895485     0.330345122124     1.174675108664     1.007825032230
         H           -2.660975895485     1.303844122124    -0.128008891336     1.007825032230
         H            1.665153104515     0.544848122124    -1.555505891336     1.007825032230
         H            1.941765104515     1.625131122124    -0.199410891336     1.007825032230
         H           -0.554024895485     1.390021122124    -1.164156891336     1.007825032230
         H           -2.586208895485    -0.723277877876    -1.655118891336     1.007825032230
         H           -1.898797895485    -1.670725877876    -0.305518891336     1.007825032230
         H           -3.562096895485    -1.051419877876    -0.204145891336     1.007825032230
         H            2.732474104515    -1.363820877876    -0.260290891336     1.007825032230
         H            3.850003104515     0.010337122124    -0.426019891336     1.007825032230
         H            2.988419104515    -0.281598877876     1.108457108664     1.007825032230

  Basis Set: AUG-CC-PVTZ
    Blend: AUG-CC-PVTZ
  Basis Set: (AUG-CC-PVTZ AUX)
    Blend: AUG-CC-PVTZ-JKFIT
	 Reference Energy          =    -325.1708571864310784 [Eh]
	 Singles Energy            =      -0.0000000000000000 [Eh]
	 Same-Spin Energy          =      -0.3323196506327125 [Eh]
	 Opposite-Spin Energy      =      -1.1214554564147554 [Eh]
	 Correlation Energy        =      -1.4537751070474680 [Eh]
	 Total Energy              =    -326.6246322934785553 [Eh]

	 ================> DF-SCS-MP2 Energies <==================
	-----------------------------------------------------------
	 SCS Same-Spin Scale       =       0.3333333333333333 [-]
	 SCS Opposite-Spin Scale   =       1.2000000000000000 [-]
	 SCS Same-Spin Energy      =      -0.1107732168775708 [Eh]
	 SCS Opposite-Spin Energy  =      -1.3457465476977064 [Eh]
	 SCS Correlation Energy    =      -1.4565197645752772 [Eh]
	 SCS Total Energy          =    -326.6273769510063403 [Eh]
	-----------------------------------------------------------

  Dipole Moment: [D]
     X:    -1.3613      Y:     2.0903      Z:    -2.5700     Total:     3.5815

*** Psi4 exiting successfully. Buy a developer a beer!
