                               Psi4 1.3.2 release

  ==> Input File <==

--------------------------------------------------------------------------
#psi4
#
memory 32 gb

molecule  {
0 1
  O        0.3109550    -0.6942360     1.0654250
  N       -0.6919670     0.7804610    -0.3498900
  C       -2.0331630     0.4428770     0.0915860
  C        1.7355170     0.5659250    -0.4538020
  C        0.4938575     0.1848282     0.1370170
  C       -2.5721020    -0.8329900    -0.5555930
  C        2.8806560    -0.3237650     0.0245060
  H       -1.9910630     0.3248240     1.1818950
  H       -2.6829100     1.2983230    -0.1207890
  H        1.6432190     0.5393270    -1.5482860
  H        1.9198310     1.6196100    -0.1921910
  H       -0.5759590     1.3845000    -1.1569370
  H       -2.6081430    -0.7287990    -1.6478990
  H       -1.9207320    -1.6762470    -0.2982990
  H       -3.5840310    -1.0569410    -0.1969260
  H        2.7105400    -1.3693420    -0.2530710
  H        3.8280690     0.0048160    -0.4188000
  H        2.9664850    -0.2871200     1.1156770
units angstrom
no_reorient  #important for SAPT in psi4, default
symmetry c1  #important for SAPT in psi4, default
}

set PROPERTIES_ORIGIN ["COM"]
properties('MP2/aug-cc-pvtz', properties = ['dipole'])
--------------------------------------------------------------------------

    Molecular point group: c1
  Charge       = 0
  Multiplicity = 1
  Basis Set: AUG-CC-PVTZ
    Blend: AUG-CC-PVTZ
  Basis Set: (AUG-CC-PVTZ AUX)
    Blend: AUG-CC-PVTZ-JKFIT

    Orbital Energies [Eh]
    ---------------------

    Doubly Occupied:

       1A    -20.511604     2A    -15.578984     3A    -11.354842
       4A    -11.260482     5A    -11.247128     6A    -11.222272
       7A    -11.211868     8A     -1.337514     9A     -1.206399
      10A     -1.077508    11A     -1.003227    12A     -0.907140
      13A     -0.837797    14A     -0.761301    15A     -0.698711
      16A     -0.646689    17A     -0.643133    18A     -0.602931
      19A     -0.578809    20A     -0.565678    21A     -0.535641
      22A     -0.518413    23A     -0.514461    24A     -0.512409
      25A     -0.491178    26A     -0.471558    27A     -0.422362
      28A     -0.377070

  @DF-RHF Final Energy:  -325.17842103576447

   => Energetics <=

    Nuclear Repulsion Energy =            313.0585980597564344
    One-Electron Energy =               -1062.2798224479656710
    Two-Electron Energy =                 424.0428033524448210
    Total Energy =                       -325.1784210357644724
  Basis Set: (AUG-CC-PVTZ AUX)
    Blend: AUG-CC-PVTZ-RI
    Molecular point group: c1

    Geometry (in Angstrom), charge = 0, multiplicity = 1:

       Center              X                  Y                   Z               Mass
    ------------   -----------------  -----------------  -----------------  -----------------
         O            0.300624790323    -0.697406384385     1.070340493330    15.994914619570
         N           -0.702297209677     0.777290615615    -0.344974506670    14.003074004430
         C           -2.043493209677     0.439706615615     0.096501493330    12.000000000000
         C            1.725186790323     0.562754615615    -0.448886506670    12.000000000000
         C            0.483527290323     0.181657815615     0.141932493330    12.000000000000
         C           -2.582432209677    -0.836160384385    -0.550677506670    12.000000000000
         C            2.870325790323    -0.326935384385     0.029421493330    12.000000000000
         H           -2.001393209677     0.321653615615     1.186810493330     1.007825032230
         H           -2.693240209677     1.295152615615    -0.115873506670     1.007825032230
         H            1.632888790323     0.536156615615    -1.543370506670     1.007825032230
         H            1.909500790323     1.616439615615    -0.187275506670     1.007825032230
         H           -0.586289209677     1.381329615615    -1.152021506670     1.007825032230
         H           -2.618473209677    -0.731969384385    -1.642983506670     1.007825032230
         H           -1.931062209677    -1.679417384385    -0.293383506670     1.007825032230
         H           -3.594361209677    -1.060111384385    -0.192010506670     1.007825032230
         H            2.700209790323    -1.372512384385    -0.248155506670     1.007825032230
         H            3.817738790323     0.001645615615    -0.413884506670     1.007825032230
         H            2.956154790323    -0.290290384385     1.120592493330     1.007825032230

  Basis Set: AUG-CC-PVTZ
    Blend: AUG-CC-PVTZ
  Basis Set: (AUG-CC-PVTZ AUX)
    Blend: AUG-CC-PVTZ-JKFIT
	 Reference Energy          =    -325.1784210357644724 [Eh]
	 Singles Energy            =      -0.0000000000000000 [Eh]
	 Same-Spin Energy          =      -0.3340881433446286 [Eh]
	 Opposite-Spin Energy      =      -1.1237556737787975 [Eh]
	 Correlation Energy        =      -1.4578438171234260 [Eh]
	 Total Energy              =    -326.6362648528879049 [Eh]

	 ================> DF-SCS-MP2 Energies <==================
	-----------------------------------------------------------
	 SCS Same-Spin Scale       =       0.3333333333333333 [-]
	 SCS Opposite-Spin Scale   =       1.2000000000000000 [-]
	 SCS Same-Spin Energy      =      -0.1113627144482095 [Eh]
	 SCS Opposite-Spin Energy  =      -1.3485068085345568 [Eh]
	 SCS Correlation Energy    =      -1.4598695229827663 [Eh]
	 SCS Total Energy          =    -326.6382905587472578 [Eh]
	-----------------------------------------------------------

  Dipole Moment: [D]
     X:    -0.2150      Y:     2.3250      Z:    -2.7103     Total:     3.5773

*** Psi4 exiting successfully. Buy a developer a beer!
