                               Psi4 1.3.2 release

  ==> Input File <==

--------------------------------------------------------------------------
#psi4
#
memory 32 gb

molecule  {
0 1
  O        0.3109550    -0.6942360     1.0654250
  N       -0.6919670     0.7804610    -0.3498900
  C       -2.0331630     0.4428770     0.0915860
  C        1.7355170     0.5659250    -0.4538020
  C        0.3912972     0.0199621     0.3221966
  C       -2.5721020    -0.8329900    -0.5555930
  C        2.8806560    -0.3237650     0.0245060
  H       -1.9910630     0.3248240     1.1818950
  H       -2.6829100     1.2983230    -0.1207890
  H        1.6432190     0.5393270    -1.5482860
  H        1.9198310     1.6196100    -0.1921910
  H       -0.5759590     1.3845000    -1.1569370
  H       -2.6081430    -0.7287990    -1.6478990
  H       -1.9207320    -1.6762470    -0.2982990
  H       -3.5840310    -1.0569410    -0.1969260
  H        2.7105400    -1.3693420    -0.2530710
  H        3.8280690     0.0048160    -0.4188000
  H        2.9664850    -0.2871200     1.1156770
units angstrom
no_reorient  #important for SAPT in psi4, default
symmetry c1  #important for SAPT in psi4, default
}

set PROPERTIES_ORIGIN ["COM"]
properties('MP2/aug-cc-pvtz', properties = ['dipole'])
--------------------------------------------------------------------------

    Molecular point group: c1
  Charge       = 0
  Multiplicity = 1
  Basis Set: AUG-CC-PVTZ
    Blend: AUG-CC-PVTZ
  Basis Set: (AUG-CC-PVTZ AUX)
    Blend: AUG-CC-PVTZ-JKFIT

    Orbital Energies [Eh]
    ---------------------

    Doubly Occupied:

       1A    -20.556011     2A    -15.549017     3A    -11.339354
       4A    -11.248490     5A    -11.232302     6A    -11.213059
       7A    -11.209497     8A     -1.533535     9A     -1.192221
      10A     -1.035307    11A     -0.989070    12A     -0.869851
      13A     -0.818212    14A     -0.767442    15A     -0.725442
      16A     -0.672729    17A     -0.659936    18A     -0.621189
      19A     -0.589305    20A     -0.587750    21A     -0.550169
      22A     -0.537823    23A     -0.518409    24A     -0.507980
      25A     -0.493100    26A     -0.487841    27A     -0.388832
      28A     -0.372447

  @DF-RHF Final Energy:  -325.12097522524897

   => Energetics <=

    Nuclear Repulsion Energy =            315.2250047857817776
    One-Electron Energy =               -1066.1593194923079864
    Two-Electron Energy =                 425.8133394812772963
    Total Energy =                       -325.1209752252489693
  Basis Set: (AUG-CC-PVTZ AUX)
    Blend: AUG-CC-PVTZ-RI
    Molecular point group: c1

    Geometry (in Angstrom), charge = 0, multiplicity = 1:

       Center              X                  Y                   Z               Mass
    ------------   -----------------  -----------------  -----------------  -----------------
         O            0.312800038840    -0.677834622802     1.048357253712    15.994914619570
         N           -0.690121961160     0.796862377198    -0.366957746288    14.003074004430
         C           -2.031317961160     0.459278377198     0.074518253712    12.000000000000
         C            1.737362038840     0.582326377198    -0.470869746288    12.000000000000
         C            0.393142238840     0.036363477198     0.305128853712    12.000000000000
         C           -2.570256961160    -0.816588622802    -0.572660746288    12.000000000000
         C            2.882501038840    -0.307363622802     0.007438253712    12.000000000000
         H           -1.989217961160     0.341225377198     1.164827253712     1.007825032230
         H           -2.681064961160     1.314724377198    -0.137856746288     1.007825032230
         H            1.645064038840     0.555728377198    -1.565353746288     1.007825032230
         H            1.921676038840     1.636011377198    -0.209258746288     1.007825032230
         H           -0.574113961160     1.400901377198    -1.174004746288     1.007825032230
         H           -2.606297961160    -0.712397622802    -1.664966746288     1.007825032230
         H           -1.918886961160    -1.659845622802    -0.315366746288     1.007825032230
         H           -3.582185961160    -1.040539622802    -0.213993746288     1.007825032230
         H            2.712385038840    -1.352940622802    -0.270138746288     1.007825032230
         H            3.829914038840     0.021217377198    -0.435867746288     1.007825032230
         H            2.968330038840    -0.270718622802     1.098609253712     1.007825032230

  Basis Set: AUG-CC-PVTZ
    Blend: AUG-CC-PVTZ
  Basis Set: (AUG-CC-PVTZ AUX)
    Blend: AUG-CC-PVTZ-JKFIT
	 Reference Energy          =    -325.1209752252489693 [Eh]
	 Singles Energy            =      -0.0000000000000000 [Eh]
	 Same-Spin Energy          =      -0.3283859940161785 [Eh]
	 Opposite-Spin Energy      =      -1.1129085428322232 [Eh]
	 Correlation Energy        =      -1.4412945368484016 [Eh]
	 Total Energy              =    -326.5622697620973440 [Eh]

	 ================> DF-SCS-MP2 Energies <==================
	-----------------------------------------------------------
	 SCS Same-Spin Scale       =       0.3333333333333333 [-]
	 SCS Opposite-Spin Scale   =       1.2000000000000000 [-]
	 SCS Same-Spin Energy      =      -0.1094619980053928 [Eh]
	 SCS Opposite-Spin Energy  =      -1.3354902513986677 [Eh]
	 SCS Correlation Energy    =      -1.4449522494040605 [Eh]
	 SCS Total Energy          =    -326.5659274746530514 [Eh]
	-----------------------------------------------------------

  Dipole Moment: [D]
     X:    -0.2733      Y:     1.2933      Z:    -1.5280     Total:     2.0204

*** Psi4 exiting successfully. Buy a developer a beer!
