                               Psi4 1.4a3.dev225

  ==> Input File <==

--------------------------------------------------------------------------
#psi4
#
memory 32 gb

molecule  {
0 1
  O        0.3358460     1.2965490    -0.1579670
  N       -0.6355700    -0.7573960    -0.3171250
  C       -1.9537600    -0.2153280    -0.6135720
  C        1.6888930    -0.6226540     0.4213110
  C        0.3781966     0.0395259    -0.0515248
  C       -2.7106350     0.2148780     0.6378230
  C        2.9315370     0.1212560    -0.0546130
  H       -1.8024690     0.6408050    -1.2743770
  H       -2.5093410    -0.9768490    -1.1692540
  H        1.6661620    -0.6499400     1.5181760
  H        1.7013640    -1.6638910     0.0787670
  H       -0.5536820    -1.7388620    -0.0859220
  H       -2.8566760    -0.6308240     1.3159630
  H       -2.1451200     0.9906390     1.1579850
  H       -3.6935760     0.6181720     0.3752940
  H        2.8830370     1.1639450     0.2613510
  H        3.8370830    -0.3350390     0.3539010
  H        2.9990550     0.1035600    -1.1453320
units angstrom
no_reorient  #important for SAPT in psi4, default
symmetry c1  #important for SAPT in psi4, default
}

set PROPERTIES_ORIGIN ["COM"]
properties('MP2/aug-cc-pvtz', properties = ['dipole'])
--------------------------------------------------------------------------

    Molecular point group: c1
  Charge       = 0
  Multiplicity = 1
  Basis Set: AUG-CC-PVTZ
    Blend: AUG-CC-PVTZ
  Basis Set: (AUG-CC-PVTZ AUX)
    Blend: AUG-CC-PVTZ-JKFIT

    Orbital Energies [Eh]
    ---------------------

    Doubly Occupied:

       1A    -20.502661     2A    -15.592010     3A    -11.342279
       4A    -11.266549     5A    -11.239778     6A    -11.218359
       7A    -11.213785     8A     -1.353943     9A     -1.238814
      10A     -1.053209    11A     -1.014580    12A     -0.896385
      13A     -0.841475    14A     -0.791280    15A     -0.689933
      16A     -0.656514    17A     -0.620770    18A     -0.604386
      19A     -0.594798    20A     -0.577184    21A     -0.533754
      22A     -0.526187    23A     -0.508913    24A     -0.503712
      25A     -0.498544    26A     -0.480117    27A     -0.409190
      28A     -0.391042

  @DF-RHF Final Energy:  -325.19519269402525

   => Energetics <=

    Nuclear Repulsion Energy =            314.1079645855556919
    One-Electron Energy =               -1064.2860119686420148
    Two-Electron Energy =                 424.9828546890610710
    Total Energy =                       -325.1951926940252520
  Basis Set: (AUG-CC-PVTZ AUX)
    Blend: AUG-CC-PVTZ-RI
    Molecular point group: c1

    Geometry (in Angstrom), charge = 0, multiplicity = 1:

       Center              X                  Y                   Z               Mass
    ------------   -----------------  -----------------  -----------------  -----------------
         O            0.335798512697     1.275905029209    -0.143158520321    15.994914619570
         N           -0.635617487303    -0.778039970791    -0.302316520321    14.003074004430
         C           -1.953807487303    -0.235971970791    -0.598763520321    12.000000000000
         C            1.688845512697    -0.643297970791     0.436119479679    12.000000000000
         C            0.378149112697     0.018881929209    -0.036716320321    12.000000000000
         C           -2.710682487303     0.194234029209     0.652631479679    12.000000000000
         C            2.931489512697     0.100612029209    -0.039804520321    12.000000000000
         H           -1.802516487303     0.620161029209    -1.259568520321     1.007825032230
         H           -2.509388487303    -0.997492970791    -1.154445520321     1.007825032230
         H            1.666114512697    -0.670583970791     1.532984479679     1.007825032230
         H            1.701316512697    -1.684534970791     0.093575479679     1.007825032230
         H           -0.553729487303    -1.759505970791    -0.071113520321     1.007825032230
         H           -2.856723487303    -0.651467970791     1.330771479679     1.007825032230
         H           -2.145167487303     0.969995029209     1.172793479679     1.007825032230
         H           -3.693623487303     0.597528029209     0.390102479679     1.007825032230
         H            2.882989512697     1.143301029209     0.276159479679     1.007825032230
         H            3.837035512697    -0.355682970791     0.368709479679     1.007825032230
         H            2.999007512697     0.082916029209    -1.130523520321     1.007825032230

  Basis Set: AUG-CC-PVTZ
    Blend: AUG-CC-PVTZ
  Basis Set: (AUG-CC-PVTZ AUX)
    Blend: AUG-CC-PVTZ-JKFIT
	 Reference Energy          =    -325.1951926940252520 [Eh]
	 Singles Energy            =      -0.0000000000000000 [Eh]
	 Same-Spin Energy          =      -0.3322593266827318 [Eh]
	 Opposite-Spin Energy      =      -1.1198812030761522 [Eh]
	 Correlation Energy        =      -1.4521405297588841 [Eh]
	 Total Energy              =    -326.6473332237841305 [Eh]

	 ================> DF-SCS-MP2 Energies <==================
	-----------------------------------------------------------
	 SCS Same-Spin Scale       =       0.3333333333333333 [-]
	 SCS Opposite-Spin Scale   =       1.2000000000000000 [-]
	 SCS Same-Spin Energy      =      -0.1107531088942439 [Eh]
	 SCS Opposite-Spin Energy  =      -1.3438574436913826 [Eh]
	 SCS Correlation Energy    =      -1.4546105525856265 [Eh]
	 SCS Total Energy          =    -326.6498032466108725 [Eh]
	-----------------------------------------------------------

  Dipole Moment: [D]
     X:    -1.1666      Y:    -3.6316      Z:     0.3315     Total:     3.8287

*** Psi4 exiting successfully. Buy a developer a beer!
