                               Psi4 1.3.2 release

  ==> Input File <==

--------------------------------------------------------------------------
#psi4
#
memory 32 gb

molecule  {
0 1
  O        0.3109550    -0.6942360     1.0654250
  N       -0.6932626     0.8211926    -0.3197714
  C       -2.0331630     0.4428770     0.0915860
  C        1.7355170     0.5659250    -0.4538020
  C        0.4068390     0.1581200     0.1784230
  C       -2.6173359    -0.8267757    -0.5279757
  C        2.8806560    -0.3237650     0.0245060
  H       -1.9910630     0.3248240     1.1818950
  H       -2.6829100     1.2983230    -0.1207890
  H        1.6432190     0.5393270    -1.5482860
  H        1.9198310     1.6196100    -0.1921910
  H       -0.5759590     1.3845000    -1.1569370
  H       -2.6081430    -0.7287990    -1.6478990
  H       -1.9207320    -1.6762470    -0.2982990
  H       -3.5840310    -1.0569410    -0.1969260
  H        2.7105400    -1.3693420    -0.2530710
  H        3.8280690     0.0048160    -0.4188000
  H        2.9664850    -0.2871200     1.1156770
units angstrom
no_reorient  #important for SAPT in psi4, default
symmetry c1  #important for SAPT in psi4, default
}

set PROPERTIES_ORIGIN ["COM"]
properties('MP2/aug-cc-pvtz', properties = ['dipole'])
--------------------------------------------------------------------------

    Molecular point group: c1
  Charge       = 0
  Multiplicity = 1
  Basis Set: AUG-CC-PVTZ
    Blend: AUG-CC-PVTZ
  Basis Set: (AUG-CC-PVTZ AUX)
    Blend: AUG-CC-PVTZ-JKFIT

    Orbital Energies [Eh]
    ---------------------

    Doubly Occupied:

       1A    -20.516993     2A    -15.582132     3A    -11.347937
       4A    -11.261454     5A    -11.243420     6A    -11.216729
       7A    -11.216320     8A     -1.369754     9A     -1.223775
      10A     -1.054775    11A     -1.006643    12A     -0.895571
      13A     -0.835897    14A     -0.774414    15A     -0.692163
      16A     -0.647125    17A     -0.634226    18A     -0.604323
      19A     -0.589479    20A     -0.575435    21A     -0.540859
      22A     -0.516650    23A     -0.514824    24A     -0.509607
      25A     -0.490469    26A     -0.478033    27A     -0.420641
      28A     -0.387783

  @DF-RHF Final Energy:  -325.19417017903618

   => Energetics <=

    Nuclear Repulsion Energy =            313.0535802847198852
    One-Electron Energy =               -1062.2006451594797909
    Two-Electron Energy =                 423.9528946957237849
    Total Energy =                       -325.1941701790361776
  Basis Set: (AUG-CC-PVTZ AUX)
    Blend: AUG-CC-PVTZ-RI
    Molecular point group: c1

    Geometry (in Angstrom), charge = 0, multiplicity = 1:

       Center              X                  Y                   Z               Mass
    ------------   -----------------  -----------------  -----------------  -----------------
         O            0.316504357483    -0.700615998209     1.057974225735    15.994914619570
         N           -0.687713242517     0.814812601791    -0.327222174265    14.003074004430
         C           -2.027613642517     0.436497001791     0.084135225735    12.000000000000
         C            1.741066357483     0.559545001791    -0.461252774265    12.000000000000
         C            0.412388357483     0.151740001791     0.170972225735    12.000000000000
         C           -2.611786542517    -0.833155698209    -0.535426474265    12.000000000000
         C            2.886205357483    -0.330144998209     0.017055225735    12.000000000000
         H           -1.985513642517     0.318444001791     1.174444225735     1.007825032230
         H           -2.677360642517     1.291943001791    -0.128239774265     1.007825032230
         H            1.648768357483     0.532947001791    -1.555736774265     1.007825032230
         H            1.925380357483     1.613230001791    -0.199641774265     1.007825032230
         H           -0.570409642517     1.378120001791    -1.164387774265     1.007825032230
         H           -2.602593642517    -0.735178998209    -1.655349774265     1.007825032230
         H           -1.915182642517    -1.682626998209    -0.305749774265     1.007825032230
         H           -3.578481642517    -1.063320998209    -0.204376774265     1.007825032230
         H            2.716089357483    -1.375721998209    -0.260521774265     1.007825032230
         H            3.833618357483    -0.001563998209    -0.426250774265     1.007825032230
         H            2.972034357483    -0.293499998209     1.108226225735     1.007825032230

  Basis Set: AUG-CC-PVTZ
    Blend: AUG-CC-PVTZ
  Basis Set: (AUG-CC-PVTZ AUX)
    Blend: AUG-CC-PVTZ-JKFIT
	 Reference Energy          =    -325.1941701790361776 [Eh]
	 Singles Energy            =      -0.0000000000000000 [Eh]
	 Same-Spin Energy          =      -0.3318361444108889 [Eh]
	 Opposite-Spin Energy      =      -1.1197058677288187 [Eh]
	 Correlation Energy        =      -1.4515420121397078 [Eh]
	 Total Energy              =    -326.6457121911759032 [Eh]

	 ================> DF-SCS-MP2 Energies <==================
	-----------------------------------------------------------
	 SCS Same-Spin Scale       =       0.3333333333333333 [-]
	 SCS Opposite-Spin Scale   =       1.2000000000000000 [-]
	 SCS Same-Spin Energy      =      -0.1106120481369630 [Eh]
	 SCS Opposite-Spin Energy  =      -1.3436470412745825 [Eh]
	 SCS Correlation Energy    =      -1.4542590894115455 [Eh]
	 SCS Total Energy          =    -326.6484292684477282 [Eh]
	-----------------------------------------------------------

  Dipole Moment: [D]
     X:    -0.6407      Y:     2.1176      Z:    -2.5876     Total:     3.4045

*** Psi4 exiting successfully. Buy a developer a beer!
