                               Psi4 1.3.2 release

  ==> Input File <==

--------------------------------------------------------------------------
#psi4
#
memory 32 gb

molecule  {
0 1
  O        0.3109550    -0.6942360     1.0654250
  N       -0.6919670     0.7804610    -0.3498900
  C       -2.0331630     0.4428770     0.0915860
  C        1.7355170     0.5659250    -0.4538020
  C        0.4456332     0.1001929     0.2175339
  C       -2.5721020    -0.8329900    -0.5555930
  C        2.8279849    -0.3638796     0.0693113
  H       -1.9910630     0.3248240     1.1818950
  H       -2.6829100     1.2983230    -0.1207890
  H        1.6432190     0.5393270    -1.5482860
  H        1.9198310     1.6196100    -0.1921910
  H       -0.5759590     1.3845000    -1.1569370
  H       -2.6081430    -0.7287990    -1.6478990
  H       -1.9207320    -1.6762470    -0.2982990
  H       -3.5840310    -1.0569410    -0.1969260
  H        2.7105400    -1.3693420    -0.2530710
  H        3.8280690     0.0048160    -0.4188000
  H        2.9664850    -0.2871200     1.1156770
units angstrom
no_reorient  #important for SAPT in psi4, default
symmetry c1  #important for SAPT in psi4, default
}

set PROPERTIES_ORIGIN ["COM"]
properties('MP2/aug-cc-pvtz', properties = ['dipole'])
--------------------------------------------------------------------------

    Molecular point group: c1
  Charge       = 0
  Multiplicity = 1
  Basis Set: AUG-CC-PVTZ
    Blend: AUG-CC-PVTZ
  Basis Set: (AUG-CC-PVTZ AUX)
    Blend: AUG-CC-PVTZ-JKFIT

    Orbital Energies [Eh]
    ---------------------

    Doubly Occupied:

       1A    -20.531618     2A    -15.564277     3A    -11.346391
       4A    -11.254289     5A    -11.243756     6A    -11.219299
       7A    -11.210510     8A     -1.416186     9A     -1.203829
      10A     -1.057113    11A     -0.996363    12A     -0.889684
      13A     -0.828424    14A     -0.762747    15A     -0.700041
      16A     -0.646971    17A     -0.641865    18A     -0.617574
      19A     -0.586412    20A     -0.574029    21A     -0.538690
      22A     -0.524860    23A     -0.514587    24A     -0.506773
      25A     -0.497928    26A     -0.486541    27A     -0.418985
      28A     -0.378719

  @DF-RHF Final Energy:  -325.18496998220928

   => Energetics <=

    Nuclear Repulsion Energy =            314.3659563967431723
    One-Electron Energy =               -1064.7849352853265827
    Two-Electron Energy =                 425.2340089063741289
    Total Energy =                       -325.1849699822092816
  Basis Set: (AUG-CC-PVTZ AUX)
    Blend: AUG-CC-PVTZ-RI
    Molecular point group: c1

    Geometry (in Angstrom), charge = 0, multiplicity = 1:

       Center              X                  Y                   Z               Mass
    ------------   -----------------  -----------------  -----------------  -----------------
         O            0.312602393443    -0.682596940235     1.055463109687    15.994914619570
         N           -0.690319606557     0.792100059765    -0.359851890313    14.003074004430
         C           -2.031515606557     0.454516059765     0.081624109687    12.000000000000
         C            1.737164393443     0.577564059765    -0.463763890313    12.000000000000
         C            0.447280593443     0.111831959765     0.207572009687    12.000000000000
         C           -2.570454606557    -0.821350940235    -0.565554890313    12.000000000000
         C            2.829632293443    -0.352240540235     0.059349409687    12.000000000000
         H           -1.989415606557     0.336463059765     1.171933109687     1.007825032230
         H           -2.681262606557     1.309962059765    -0.130750890313     1.007825032230
         H            1.644866393443     0.550966059765    -1.558247890313     1.007825032230
         H            1.921478393443     1.631249059765    -0.202152890313     1.007825032230
         H           -0.574311606557     1.396139059765    -1.166898890313     1.007825032230
         H           -2.606495606557    -0.717159940235    -1.657860890313     1.007825032230
         H           -1.919084606557    -1.664607940235    -0.308260890313     1.007825032230
         H           -3.582383606557    -1.045301940235    -0.206887890313     1.007825032230
         H            2.712187393443    -1.357702940235    -0.263032890313     1.007825032230
         H            3.829716393443     0.016455059765    -0.428761890313     1.007825032230
         H            2.968132393443    -0.275480940235     1.105715109687     1.007825032230

  Basis Set: AUG-CC-PVTZ
    Blend: AUG-CC-PVTZ
  Basis Set: (AUG-CC-PVTZ AUX)
    Blend: AUG-CC-PVTZ-JKFIT
	 Reference Energy          =    -325.1849699822092816 [Eh]
	 Singles Energy            =      -0.0000000000000000 [Eh]
	 Same-Spin Energy          =      -0.3310306524975431 [Eh]
	 Opposite-Spin Energy      =      -1.1180743824981685 [Eh]
	 Correlation Energy        =      -1.4491050349957115 [Eh]
	 Total Energy              =    -326.6340750172050207 [Eh]

	 ================> DF-SCS-MP2 Energies <==================
	-----------------------------------------------------------
	 SCS Same-Spin Scale       =       0.3333333333333333 [-]
	 SCS Opposite-Spin Scale   =       1.2000000000000000 [-]
	 SCS Same-Spin Energy      =      -0.1103435508325144 [Eh]
	 SCS Opposite-Spin Energy  =      -1.3416892589978022 [Eh]
	 SCS Correlation Energy    =      -1.4520328098303166 [Eh]
	 SCS Total Energy          =    -326.6370027920395955 [Eh]
	-----------------------------------------------------------

  Dipole Moment: [D]
     X:    -0.2443      Y:     1.8839      Z:    -2.2088     Total:     2.9134

*** Psi4 exiting successfully. Buy a developer a beer!
