                               Psi4 1.3.2 release

  ==> Input File <==

--------------------------------------------------------------------------
#psi4
#
memory 32 gb

molecule  {
0 1
  O        0.3109550    -0.6942360     1.0654250
  N       -0.6919670     0.7804610    -0.3498900
  C       -2.0129517     0.4151242     0.1288574
  C        1.7355170     0.5659250    -0.4538020
  C        0.4068390     0.1581200     0.1784230
  C       -2.5721020    -0.8329900    -0.5555930
  C        2.8806560    -0.3237650     0.0245060
  H       -1.9910630     0.3248240     1.1818950
  H       -2.6829100     1.2983230    -0.1207890
  H        1.6432190     0.5393270    -1.5482860
  H        1.9198310     1.6196100    -0.1921910
  H       -0.5408492     1.3818341    -1.1531083
  H       -2.6081430    -0.7287990    -1.6478990
  H       -1.9207320    -1.6762470    -0.2982990
  H       -3.5840310    -1.0569410    -0.1969260
  H        2.7105400    -1.3693420    -0.2530710
  H        3.8280690     0.0048160    -0.4188000
  H        2.9664850    -0.2871200     1.1156770
units angstrom
no_reorient  #important for SAPT in psi4, default
symmetry c1  #important for SAPT in psi4, default
}

set PROPERTIES_ORIGIN ["COM"]
properties('MP2/aug-cc-pvtz', properties = ['dipole'])
--------------------------------------------------------------------------

    Molecular point group: c1
  Charge       = 0
  Multiplicity = 1
  Basis Set: AUG-CC-PVTZ
    Blend: AUG-CC-PVTZ
  Basis Set: (AUG-CC-PVTZ AUX)
    Blend: AUG-CC-PVTZ-JKFIT

    Orbital Energies [Eh]
    ---------------------

    Doubly Occupied:

       1A    -20.514001     2A    -15.581102     3A    -11.344686
       4A    -11.263521     5A    -11.242633     6A    -11.216228
       7A    -11.215220     8A     -1.369155     9A     -1.225348
      10A     -1.054721    11A     -1.006648    12A     -0.893539
      13A     -0.836614    14A     -0.776327    15A     -0.690665
      16A     -0.652644    17A     -0.634373    18A     -0.602114
      19A     -0.587208    20A     -0.575972    21A     -0.535348
      22A     -0.515155    23A     -0.514450    24A     -0.511683
      25A     -0.490731    26A     -0.484979    27A     -0.418015
      28A     -0.386501

  @DF-RHF Final Energy:  -325.19543153997245

   => Energetics <=

    Nuclear Repulsion Energy =            313.9486167683171516
    One-Electron Energy =               -1064.0089337368976885
    Two-Electron Energy =                 424.8648854286080905
    Total Energy =                       -325.1954315399724464
  Basis Set: (AUG-CC-PVTZ AUX)
    Blend: AUG-CC-PVTZ-RI
    Molecular point group: c1

    Geometry (in Angstrom), charge = 0, multiplicity = 1:

       Center              X                  Y                   Z               Mass
    ------------   -----------------  -----------------  -----------------  -----------------
         O            0.308205627841    -0.690914572175     1.060962284517    15.994914619570
         N           -0.694716372159     0.783782427825    -0.354352715483    14.003074004430
         C           -2.015701072159     0.418445627825     0.124394684517    12.000000000000
         C            1.732767627841     0.569246427825    -0.458264715483    12.000000000000
         C            0.404089627841     0.161441427825     0.173960284517    12.000000000000
         C           -2.574851372159    -0.829668572175    -0.560055715483    12.000000000000
         C            2.877906627841    -0.320443572175     0.020043284517    12.000000000000
         H           -1.993812372159     0.328145427825     1.177432284517     1.007825032230
         H           -2.685659372159     1.301644427825    -0.125251715483     1.007825032230
         H            1.640469627841     0.542648427825    -1.552748715483     1.007825032230
         H            1.917081627841     1.622931427825    -0.196653715483     1.007825032230
         H           -0.543598572159     1.385155527825    -1.157571015483     1.007825032230
         H           -2.610892372159    -0.725477572175    -1.652361715483     1.007825032230
         H           -1.923481372159    -1.672925572175    -0.302761715483     1.007825032230
         H           -3.586780372159    -1.053619572175    -0.201388715483     1.007825032230
         H            2.707790627841    -1.366020572175    -0.257533715483     1.007825032230
         H            3.825319627841     0.008137427825    -0.423262715483     1.007825032230
         H            2.963735627841    -0.283798572175     1.111214284517     1.007825032230

  Basis Set: AUG-CC-PVTZ
    Blend: AUG-CC-PVTZ
  Basis Set: (AUG-CC-PVTZ AUX)
    Blend: AUG-CC-PVTZ-JKFIT
	 Reference Energy          =    -325.1954315399724464 [Eh]
	 Singles Energy            =      -0.0000000000000000 [Eh]
	 Same-Spin Energy          =      -0.3318618917473410 [Eh]
	 Opposite-Spin Energy      =      -1.1195243731832800 [Eh]
	 Correlation Energy        =      -1.4513862649306211 [Eh]
	 Total Energy              =    -326.6468178049030939 [Eh]

	 ================> DF-SCS-MP2 Energies <==================
	-----------------------------------------------------------
	 SCS Same-Spin Scale       =       0.3333333333333333 [-]
	 SCS Opposite-Spin Scale   =       1.2000000000000000 [-]
	 SCS Same-Spin Energy      =      -0.1106206305824470 [Eh]
	 SCS Opposite-Spin Energy  =      -1.3434292478199359 [Eh]
	 SCS Correlation Energy    =      -1.4540498784023830 [Eh]
	 SCS Total Energy          =    -326.6494814183748190 [Eh]
	-----------------------------------------------------------

  Dipole Moment: [D]
     X:    -0.6668      Y:     2.2182      Z:    -2.5551     Total:     3.4487

*** Psi4 exiting successfully. Buy a developer a beer!
