                               Psi4 1.3.2 release

  ==> Input File <==

--------------------------------------------------------------------------
#psi4
#
memory 32 gb

molecule  {
0 1
  O        0.3109550    -0.6942360     1.0654250
  N       -0.6919670     0.7804610    -0.3498900
  C       -2.0379082     0.4514121     0.0835149
  C        1.7355170     0.5659250    -0.4538020
  C        0.4138887     0.1646852     0.1713592
  C       -2.5721020    -0.8329900    -0.5555930
  C        2.8806560    -0.3237650     0.0245060
  H       -1.9910630     0.3248240     1.1818950
  H       -2.6829100     1.2983230    -0.1207890
  H        1.6432190     0.5393270    -1.5482860
  H        1.9198310     1.6196100    -0.1921910
  H       -0.5759590     1.3845000    -1.1569370
  H       -2.6081430    -0.7287990    -1.6478990
  H       -1.9207320    -1.6762470    -0.2982990
  H       -3.5840310    -1.0569410    -0.1969260
  H        2.7105400    -1.3693420    -0.2530710
  H        3.8280690     0.0048160    -0.4188000
  H        2.9664850    -0.2871200     1.1156770
units angstrom
no_reorient  #important for SAPT in psi4, default
symmetry c1  #important for SAPT in psi4, default
}

set PROPERTIES_ORIGIN ["COM"]
properties('MP2/aug-cc-pvtz', properties = ['dipole'])
--------------------------------------------------------------------------

    Molecular point group: c1
  Charge       = 0
  Multiplicity = 1
  Basis Set: AUG-CC-PVTZ
    Blend: AUG-CC-PVTZ
  Basis Set: (AUG-CC-PVTZ AUX)
    Blend: AUG-CC-PVTZ-JKFIT

    Orbital Energies [Eh]
    ---------------------

    Doubly Occupied:

       1A    -20.512821     2A    -15.581725     3A    -11.346982
       4A    -11.262382     5A    -11.243328     6A    -11.216677
       7A    -11.215006     8A     -1.362719     9A     -1.224049
      10A     -1.056560    11A     -1.006394    12A     -0.895865
      13A     -0.837328    14A     -0.775076    15A     -0.693116
      16A     -0.648050    17A     -0.634703    18A     -0.604749
      19A     -0.585732    20A     -0.572269    21A     -0.534878
      22A     -0.514729    23A     -0.513569    24A     -0.511526
      25A     -0.495528    26A     -0.480081    27A     -0.419026
      28A     -0.385431

  @DF-RHF Final Energy:  -325.19707854601506

   => Energetics <=

    Nuclear Repulsion Energy =            313.5199715243038554
    One-Electron Energy =               -1063.1734973318798438
    Two-Electron Energy =                 424.4564472615609247
    Total Energy =                       -325.1970785460150637
  Basis Set: (AUG-CC-PVTZ AUX)
    Blend: AUG-CC-PVTZ-RI
    Molecular point group: c1

    Geometry (in Angstrom), charge = 0, multiplicity = 1:

       Center              X                  Y                   Z               Mass
    ------------   -----------------  -----------------  -----------------  -----------------
         O            0.310681449702    -0.696028374890     1.067221770283    15.994914619570
         N           -0.692240550298     0.778668625110    -0.348093229717    14.003074004430
         C           -2.038181750298     0.449619725110     0.085311670283    12.000000000000
         C            1.735243449702     0.564132625110    -0.452005229717    12.000000000000
         C            0.413615149702     0.162892825110     0.173155970283    12.000000000000
         C           -2.572375550298    -0.834782374890    -0.553796229717    12.000000000000
         C            2.880382449702    -0.325557374890     0.026302770283    12.000000000000
         H           -1.991336550298     0.323031625110     1.183691770283     1.007825032230
         H           -2.683183550298     1.296530625110    -0.118992229717     1.007825032230
         H            1.642945449702     0.537534625110    -1.546489229717     1.007825032230
         H            1.919557449702     1.617817625110    -0.190394229717     1.007825032230
         H           -0.576232550298     1.382707625110    -1.155140229717     1.007825032230
         H           -2.608416550298    -0.730591374890    -1.646102229717     1.007825032230
         H           -1.921005550298    -1.678039374890    -0.296502229717     1.007825032230
         H           -3.584304550298    -1.058733374890    -0.195129229717     1.007825032230
         H            2.710266449702    -1.371134374890    -0.251274229717     1.007825032230
         H            3.827795449702     0.003023625110    -0.417003229717     1.007825032230
         H            2.966211449702    -0.288912374890     1.117473770283     1.007825032230

  Basis Set: AUG-CC-PVTZ
    Blend: AUG-CC-PVTZ
  Basis Set: (AUG-CC-PVTZ AUX)
    Blend: AUG-CC-PVTZ-JKFIT
	 Reference Energy          =    -325.1970785460150637 [Eh]
	 Singles Energy            =      -0.0000000000000000 [Eh]
	 Same-Spin Energy          =      -0.3320936435914130 [Eh]
	 Opposite-Spin Energy      =      -1.1199553257163934 [Eh]
	 Correlation Energy        =      -1.4520489693078065 [Eh]
	 Total Energy              =    -326.6491275153228457 [Eh]

	 ================> DF-SCS-MP2 Energies <==================
	-----------------------------------------------------------
	 SCS Same-Spin Scale       =       0.3333333333333333 [-]
	 SCS Opposite-Spin Scale   =       1.2000000000000000 [-]
	 SCS Same-Spin Energy      =      -0.1106978811971377 [Eh]
	 SCS Opposite-Spin Energy  =      -1.3439463908596720 [Eh]
	 SCS Correlation Energy    =      -1.4546442720568098 [Eh]
	 SCS Total Energy          =    -326.6517228180718462 [Eh]
	-----------------------------------------------------------

  Dipole Moment: [D]
     X:    -0.6795      Y:     2.2842      Z:    -2.6219     Total:     3.5431

*** Psi4 exiting successfully. Buy a developer a beer!
