                               Psi4 1.3.2 release

  ==> Input File <==

--------------------------------------------------------------------------
#psi4
#
memory 32 gb

molecule  {
0 1
  O        0.3109550    -0.6942360     1.0654250
  N       -0.7326546     0.7435983    -0.3038291
  C       -2.0331630     0.4428770     0.0915860
  C        1.7723517     0.5155887    -0.4038053
  C        0.4068390     0.1581200     0.1784230
  C       -2.5721020    -0.8329900    -0.5555930
  C        2.8806560    -0.3237650     0.0245060
  H       -1.9910630     0.3248240     1.1818950
  H       -2.6829100     1.2983230    -0.1207890
  H        1.6432190     0.5393270    -1.5482860
  H        1.9198310     1.6196100    -0.1921910
  H       -0.5759590     1.3845000    -1.1569370
  H       -2.6081430    -0.7287990    -1.6478990
  H       -1.9207320    -1.6762470    -0.2982990
  H       -3.5840310    -1.0569410    -0.1969260
  H        2.7105400    -1.3693420    -0.2530710
  H        3.8280690     0.0048160    -0.4188000
  H        2.9664850    -0.2871200     1.1156770
units angstrom
no_reorient  #important for SAPT in psi4, default
symmetry c1  #important for SAPT in psi4, default
}

set PROPERTIES_ORIGIN ["COM"]
properties('MP2/aug-cc-pvtz', properties = ['dipole'])
--------------------------------------------------------------------------

    Molecular point group: c1
  Charge       = 0
  Multiplicity = 1
  Basis Set: AUG-CC-PVTZ
    Blend: AUG-CC-PVTZ
  Basis Set: (AUG-CC-PVTZ AUX)
    Blend: AUG-CC-PVTZ-JKFIT

    Orbital Energies [Eh]
    ---------------------

    Doubly Occupied:

       1A    -20.509914     2A    -15.585252     3A    -11.345933
       4A    -11.257972     5A    -11.251597     6A    -11.215399
       7A    -11.212593     8A     -1.370329     9A     -1.229923
      10A     -1.065870    11A     -1.008238    12A     -0.899384
      13A     -0.837764    14A     -0.759070    15A     -0.693330
      16A     -0.657792    17A     -0.631996    18A     -0.607534
      19A     -0.587616    20A     -0.570348    21A     -0.553348
      22A     -0.522232    23A     -0.512747    24A     -0.511306
      25A     -0.489440    26A     -0.469991    27A     -0.416375
      28A     -0.380382

  @DF-RHF Final Energy:  -325.18166295568790

   => Energetics <=

    Nuclear Repulsion Energy =            314.8430081110141145
    One-Electron Energy =               -1065.7419883642194236
    Two-Electron Energy =                 425.7173172975174111
    Total Energy =                       -325.1816629556878979
  Basis Set: (AUG-CC-PVTZ AUX)
    Blend: AUG-CC-PVTZ-RI
    Molecular point group: c1

    Geometry (in Angstrom), charge = 0, multiplicity = 1:

       Center              X                  Y                   Z               Mass
    ------------   -----------------  -----------------  -----------------  -----------------
         O            0.312218675925    -0.683153642069     1.053109027530    15.994914619570
         N           -0.731390924075     0.754680657931    -0.316145072470    14.003074004430
         C           -2.031899324075     0.453959357931     0.079270027530    12.000000000000
         C            1.773615375925     0.526671057931    -0.416121272470    12.000000000000
         C            0.408102675925     0.169202357931     0.166107027530    12.000000000000
         C           -2.570838324075    -0.821907642069    -0.567908972470    12.000000000000
         C            2.881919675925    -0.312682642069     0.012190027530    12.000000000000
         H           -1.989799324075     0.335906357931     1.169579027530     1.007825032230
         H           -2.681646324075     1.309405357931    -0.133104972470     1.007825032230
         H            1.644482675925     0.550409357931    -1.560601972470     1.007825032230
         H            1.921094675925     1.630692357931    -0.204506972470     1.007825032230
         H           -0.574695324075     1.395582357931    -1.169252972470     1.007825032230
         H           -2.606879324075    -0.717716642069    -1.660214972470     1.007825032230
         H           -1.919468324075    -1.665164642069    -0.310614972470     1.007825032230
         H           -3.582767324075    -1.045858642069    -0.209241972470     1.007825032230
         H            2.711803675925    -1.358259642069    -0.265386972470     1.007825032230
         H            3.829332675925     0.015898357931    -0.431115972470     1.007825032230
         H            2.967748675925    -0.276037642069     1.103361027530     1.007825032230

  Basis Set: AUG-CC-PVTZ
    Blend: AUG-CC-PVTZ
  Basis Set: (AUG-CC-PVTZ AUX)
    Blend: AUG-CC-PVTZ-JKFIT
	 Reference Energy          =    -325.1816629556878979 [Eh]
	 Singles Energy            =      -0.0000000000000000 [Eh]
	 Same-Spin Energy          =      -0.3332202283887484 [Eh]
	 Opposite-Spin Energy      =      -1.1211239762479974 [Eh]
	 Correlation Energy        =      -1.4543442046367459 [Eh]
	 Total Energy              =    -326.6360071603246524 [Eh]

	 ================> DF-SCS-MP2 Energies <==================
	-----------------------------------------------------------
	 SCS Same-Spin Scale       =       0.3333333333333333 [-]
	 SCS Opposite-Spin Scale   =       1.2000000000000000 [-]
	 SCS Same-Spin Energy      =      -0.1110734094629161 [Eh]
	 SCS Opposite-Spin Energy  =      -1.3453487714975969 [Eh]
	 SCS Correlation Energy    =      -1.4564221809605131 [Eh]
	 SCS Total Energy          =    -326.6380851366483853 [Eh]
	-----------------------------------------------------------

  Dipole Moment: [D]
     X:    -0.4911      Y:     2.2932      Z:    -2.6076     Total:     3.5071

*** Psi4 exiting successfully. Buy a developer a beer!
