                               Psi4 1.3.2 release

  ==> Input File <==

--------------------------------------------------------------------------
#psi4
#
memory 32 gb

molecule  {
0 1
  O        0.3109550    -0.6942360     1.0654250
  N       -0.6919670     0.7804610    -0.3498900
  C       -2.0331630     0.4428770     0.0915860
  C        1.7355170     0.5659250    -0.4538020
  C        0.3716866     0.2171649     0.1375792
  C       -2.5721020    -0.8329900    -0.5555930
  C        2.9301884    -0.2812118    -0.0216104
  H       -1.9910630     0.3248240     1.1818950
  H       -2.6829100     1.2983230    -0.1207890
  H        1.6432190     0.5393270    -1.5482860
  H        1.9198310     1.6196100    -0.1921910
  H       -0.5759590     1.3845000    -1.1569370
  H       -2.6081430    -0.7287990    -1.6478990
  H       -1.9207320    -1.6762470    -0.2982990
  H       -3.5840310    -1.0569410    -0.1969260
  H        2.7105400    -1.3693420    -0.2530710
  H        3.8280690     0.0048160    -0.4188000
  H        2.9664850    -0.2871200     1.1156770
units angstrom
no_reorient  #important for SAPT in psi4, default
symmetry c1  #important for SAPT in psi4, default
}

set PROPERTIES_ORIGIN ["COM"]
properties('MP2/aug-cc-pvtz', properties = ['dipole'])
--------------------------------------------------------------------------

    Molecular point group: c1
  Charge       = 0
  Multiplicity = 1
  Basis Set: AUG-CC-PVTZ
    Blend: AUG-CC-PVTZ
  Basis Set: (AUG-CC-PVTZ AUX)
    Blend: AUG-CC-PVTZ-JKFIT

    Orbital Energies [Eh]
    ---------------------

    Doubly Occupied:

       1A    -20.496807     2A    -15.596594     3A    -11.345110
       4A    -11.270178     5A    -11.243924     6A    -11.219606
       7A    -11.215609     8A     -1.340173     9A     -1.234266
      10A     -1.055370    11A     -1.015759    12A     -0.901225
      13A     -0.845008    14A     -0.792386    15A     -0.689397
      16A     -0.654117    17A     -0.631770    18A     -0.605233
      19A     -0.583806    20A     -0.572523    21A     -0.546546
      22A     -0.518853    23A     -0.505120    24A     -0.500284
      25A     -0.493814    26A     -0.468551    27A     -0.406741
      28A     -0.386102

  @DF-RHF Final Energy:  -325.17771553335581

   => Energetics <=

    Nuclear Repulsion Energy =            313.1509700874087230
    One-Electron Energy =               -1062.3876204014791256
    Two-Electron Energy =                 424.0589347807145941
    Total Energy =                       -325.1777155333558085
  Basis Set: (AUG-CC-PVTZ AUX)
    Blend: AUG-CC-PVTZ-RI
    Molecular point group: c1

    Geometry (in Angstrom), charge = 0, multiplicity = 1:

       Center              X                  Y                   Z               Mass
    ------------   -----------------  -----------------  -----------------  -----------------
         O            0.309247929973    -0.706296794650     1.075748372460    15.994914619570
         N           -0.693674070027     0.768400205350    -0.339566627540    14.003074004430
         C           -2.034870070027     0.430816205350     0.101909372460    12.000000000000
         C            1.733809929973     0.553864205350    -0.443478627540    12.000000000000
         C            0.369979529973     0.205104105350     0.147902572460    12.000000000000
         C           -2.573809070027    -0.845050794650    -0.545269627540    12.000000000000
         C            2.928481329973    -0.293272594650    -0.011287027540    12.000000000000
         H           -1.992770070027     0.312763205350     1.192218372460     1.007825032230
         H           -2.684617070027     1.286262205350    -0.110465627540     1.007825032230
         H            1.641511929973     0.527266205350    -1.537962627540     1.007825032230
         H            1.918123929973     1.607549205350    -0.181867627540     1.007825032230
         H           -0.577666070027     1.372439205350    -1.146613627540     1.007825032230
         H           -2.609850070027    -0.740859794650    -1.637575627540     1.007825032230
         H           -1.922439070027    -1.688307794650    -0.287975627540     1.007825032230
         H           -3.585738070027    -1.069001794650    -0.186602627540     1.007825032230
         H            2.708832929973    -1.381402794650    -0.242747627540     1.007825032230
         H            3.826361929973    -0.007244794650    -0.408476627540     1.007825032230
         H            2.964777929973    -0.299180794650     1.126000372460     1.007825032230

  Basis Set: AUG-CC-PVTZ
    Blend: AUG-CC-PVTZ
  Basis Set: (AUG-CC-PVTZ AUX)
    Blend: AUG-CC-PVTZ-JKFIT
	 Reference Energy          =    -325.1777155333558085 [Eh]
	 Singles Energy            =      -0.0000000000000000 [Eh]
	 Same-Spin Energy          =      -0.3330730614687052 [Eh]
	 Opposite-Spin Energy      =      -1.1219152897034661 [Eh]
	 Correlation Energy        =      -1.4549883511721713 [Eh]
	 Total Energy              =    -326.6327038845279844 [Eh]

	 ================> DF-SCS-MP2 Energies <==================
	-----------------------------------------------------------
	 SCS Same-Spin Scale       =       0.3333333333333333 [-]
	 SCS Opposite-Spin Scale   =       1.2000000000000000 [-]
	 SCS Same-Spin Energy      =      -0.1110243538229017 [Eh]
	 SCS Opposite-Spin Energy  =      -1.3462983476441592 [Eh]
	 SCS Correlation Energy    =      -1.4573227014670609 [Eh]
	 SCS Total Energy          =    -326.6350382348228436 [Eh]
	-----------------------------------------------------------

  Dipole Moment: [D]
     X:    -1.1295      Y:     2.5865      Z:    -2.9364     Total:     4.0729

*** Psi4 exiting successfully. Buy a developer a beer!
