                               Psi4 1.3.2 release

  ==> Input File <==

--------------------------------------------------------------------------
#psi4
#
memory 32 gb

molecule  {
0 1
  O        0.3323015    -0.6970115     1.0648041
  N       -0.6919670     0.7804610    -0.3498900
  C       -2.0331630     0.4428770     0.0915860
  C        1.7480975     0.5485098    -0.4380347
  C        0.4068390     0.1581200     0.1784230
  C       -2.5721020    -0.8329900    -0.5555930
  C        2.8806560    -0.3237650     0.0245060
  H       -1.9910630     0.3248240     1.1818950
  H       -2.6829100     1.2983230    -0.1207890
  H        1.6432190     0.5393270    -1.5482860
  H        1.9198310     1.6196100    -0.1921910
  H       -0.5759590     1.3845000    -1.1569370
  H       -2.6081430    -0.7287990    -1.6478990
  H       -1.9207320    -1.6762470    -0.2982990
  H       -3.5840310    -1.0569410    -0.1969260
  H        2.7105400    -1.3693420    -0.2530710
  H        3.8280690     0.0048160    -0.4188000
  H        2.9664850    -0.2871200     1.1156770
units angstrom
no_reorient  #important for SAPT in psi4, default
symmetry c1  #important for SAPT in psi4, default
}

set PROPERTIES_ORIGIN ["COM"]
properties('MP2/aug-cc-pvtz', properties = ['dipole'])
--------------------------------------------------------------------------

    Molecular point group: c1
  Charge       = 0
  Multiplicity = 1
  Basis Set: AUG-CC-PVTZ
    Blend: AUG-CC-PVTZ
  Basis Set: (AUG-CC-PVTZ AUX)
    Blend: AUG-CC-PVTZ-JKFIT

    Orbital Energies [Eh]
    ---------------------

    Doubly Occupied:

       1A    -20.513943     2A    -15.582376     3A    -11.345976
       4A    -11.263232     5A    -11.242968     6A    -11.215610
       7A    -11.214347     8A     -1.368561     9A     -1.226348
      10A     -1.056055    11A     -1.007975    12A     -0.894274
      13A     -0.835590    14A     -0.776736    15A     -0.691304
      16A     -0.649347    17A     -0.631794    18A     -0.605384
      19A     -0.587980    20A     -0.574415    21A     -0.538420
      22A     -0.515944    23A     -0.513824    24A     -0.511960
      25A     -0.494348    26A     -0.478760    27A     -0.417366
      28A     -0.387350

  @DF-RHF Final Energy:  -325.19754620630414

   => Energetics <=

    Nuclear Repulsion Energy =            313.7591643946247473
    One-Electron Energy =               -1063.6290417614011403
    Two-Electron Energy =                 424.6723311604721971
    Total Energy =                       -325.1975462063041391
  Basis Set: (AUG-CC-PVTZ AUX)
    Blend: AUG-CC-PVTZ-RI
    Molecular point group: c1

    Geometry (in Angstrom), charge = 0, multiplicity = 1:

       Center              X                  Y                   Z               Mass
    ------------   -----------------  -----------------  -----------------  -----------------
         O            0.327430316537    -0.694504682036     1.063030622478    15.994914619570
         N           -0.696838183463     0.782967817964    -0.351663477522    14.003074004430
         C           -2.038034183463     0.445383817964     0.089812522478    12.000000000000
         C            1.743226316537     0.551016617964    -0.439808177522    12.000000000000
         C            0.401967816537     0.160626817964     0.176649522478    12.000000000000
         C           -2.576973183463    -0.830483182036    -0.557366477522    12.000000000000
         C            2.875784816537    -0.321258182036     0.022732522478    12.000000000000
         H           -1.995934183463     0.327330817964     1.180121522478     1.007825032230
         H           -2.687781183463     1.300829817964    -0.122562477522     1.007825032230
         H            1.638347816537     0.541833817964    -1.550059477522     1.007825032230
         H            1.914959816537     1.622116817964    -0.193964477522     1.007825032230
         H           -0.580830183463     1.387006817964    -1.158710477522     1.007825032230
         H           -2.613014183463    -0.726292182036    -1.649672477522     1.007825032230
         H           -1.925603183463    -1.673740182036    -0.300072477522     1.007825032230
         H           -3.588902183463    -1.054434182036    -0.198699477522     1.007825032230
         H            2.705668816537    -1.366835182036    -0.254844477522     1.007825032230
         H            3.823197816537     0.007322817964    -0.420573477522     1.007825032230
         H            2.961613816537    -0.284613182036     1.113903522478     1.007825032230

  Basis Set: AUG-CC-PVTZ
    Blend: AUG-CC-PVTZ
  Basis Set: (AUG-CC-PVTZ AUX)
    Blend: AUG-CC-PVTZ-JKFIT
	 Reference Energy          =    -325.1975462063041391 [Eh]
	 Singles Energy            =      -0.0000000000000000 [Eh]
	 Same-Spin Energy          =      -0.3319372089755063 [Eh]
	 Opposite-Spin Energy      =      -1.1194955592533387 [Eh]
	 Correlation Energy        =      -1.4514327682288450 [Eh]
	 Total Energy              =    -326.6489789745330086 [Eh]

	 ================> DF-SCS-MP2 Energies <==================
	-----------------------------------------------------------
	 SCS Same-Spin Scale       =       0.3333333333333333 [-]
	 SCS Opposite-Spin Scale   =       1.2000000000000000 [-]
	 SCS Same-Spin Energy      =      -0.1106457363251687 [Eh]
	 SCS Opposite-Spin Energy  =      -1.3433946711040063 [Eh]
	 SCS Correlation Energy    =      -1.4540404074291751 [Eh]
	 SCS Total Energy          =    -326.6515866137332864 [Eh]
	-----------------------------------------------------------

  Dipole Moment: [D]
     X:    -0.7628      Y:     2.2421      Z:    -2.5721     Total:     3.4964

*** Psi4 exiting successfully. Buy a developer a beer!
