                               Psi4 1.4a3.dev225

  ==> Input File <==

--------------------------------------------------------------------------
#psi4
#
memory 32 gb

molecule  {
0 1
  O        0.3358460     1.2965490    -0.1579670
  N       -0.6355700    -0.7573960    -0.3171250
  C       -1.9537600    -0.2153280    -0.6135720
  C        1.6888930    -0.6226540     0.4213110
  C        0.4199705     0.0201219    -0.0367200
  C       -2.7106350     0.2148780     0.6378230
  C        2.9315370     0.1212560    -0.0546130
  H       -1.8024690     0.6408050    -1.2743770
  H       -2.5093410    -0.9768490    -1.1692540
  H        1.6661620    -0.6499400     1.5181760
  H        1.7013640    -1.6638910     0.0787670
  H       -0.5536820    -1.7388620    -0.0859220
  H       -2.8566760    -0.6308240     1.3159630
  H       -2.1451200     0.9906390     1.1579850
  H       -3.6935760     0.6181720     0.3752940
  H        2.8830370     1.1639450     0.2613510
  H        3.8370830    -0.3350390     0.3539010
  H        2.9990550     0.1035600    -1.1453320
units angstrom
no_reorient  #important for SAPT in psi4, default
symmetry c1  #important for SAPT in psi4, default
}

set PROPERTIES_ORIGIN ["COM"]
properties('MP2/aug-cc-pvtz', properties = ['dipole'])
--------------------------------------------------------------------------

    Molecular point group: c1
  Charge       = 0
  Multiplicity = 1
  Basis Set: AUG-CC-PVTZ
    Blend: AUG-CC-PVTZ
  Basis Set: (AUG-CC-PVTZ AUX)
    Blend: AUG-CC-PVTZ-JKFIT

    Orbital Energies [Eh]
    ---------------------

    Doubly Occupied:

       1A    -20.501763     2A    -15.590744     3A    -11.346035
       4A    -11.265429     5A    -11.242281     6A    -11.216894
       7A    -11.216698     8A     -1.342188     9A     -1.227670
      10A     -1.061709    11A     -1.013748    12A     -0.900802
      13A     -0.843811    14A     -0.782341    15A     -0.692515
      16A     -0.657629    17A     -0.622989    18A     -0.604260
      19A     -0.592707    20A     -0.570644    21A     -0.534369
      22A     -0.527492    23A     -0.510866    24A     -0.503839
      25A     -0.497589    26A     -0.476394    27A     -0.413027
      28A     -0.386192

  @DF-RHF Final Energy:  -325.19213585303521

   => Energetics <=

    Nuclear Repulsion Energy =            313.7963778963487584
    One-Electron Energy =               -1063.6917841924282584
    Two-Electron Energy =                 424.7032704430442891
    Total Energy =                       -325.1921358530352109
  Basis Set: (AUG-CC-PVTZ AUX)
    Blend: AUG-CC-PVTZ-RI
    Molecular point group: c1

    Geometry (in Angstrom), charge = 0, multiplicity = 1:

       Center              X                  Y                   Z               Mass
    ------------   -----------------  -----------------  -----------------  -----------------
         O            0.330839404602     1.278208537703    -0.144916043644    15.994914619570
         N           -0.640576595398    -0.775736462297    -0.304074043644    14.003074004430
         C           -1.958766595398    -0.233668462297    -0.600521043644    12.000000000000
         C            1.683886404602    -0.640994462297     0.434361956356    12.000000000000
         C            0.414963904602     0.001781437703    -0.023669043644    12.000000000000
         C           -2.715641595398     0.196537537703     0.650873956356    12.000000000000
         C            2.926530404602     0.102915537703    -0.041562043644    12.000000000000
         H           -1.807475595398     0.622464537703    -1.261326043644     1.007825032230
         H           -2.514347595398    -0.995189462297    -1.156203043644     1.007825032230
         H            1.661155404602    -0.668280462297     1.531226956356     1.007825032230
         H            1.696357404602    -1.682231462297     0.091817956356     1.007825032230
         H           -0.558688595398    -1.757202462297    -0.072871043644     1.007825032230
         H           -2.861682595398    -0.649164462297     1.329013956356     1.007825032230
         H           -2.150126595398     0.972298537703     1.171035956356     1.007825032230
         H           -3.698582595398     0.599831537703     0.388344956356     1.007825032230
         H            2.878030404602     1.145604537703     0.274401956356     1.007825032230
         H            3.832076404602    -0.353379462297     0.366951956356     1.007825032230
         H            2.994048404602     0.085219537703    -1.132281043644     1.007825032230

  Basis Set: AUG-CC-PVTZ
    Blend: AUG-CC-PVTZ
  Basis Set: (AUG-CC-PVTZ AUX)
    Blend: AUG-CC-PVTZ-JKFIT
	 Reference Energy          =    -325.1921358530352109 [Eh]
	 Singles Energy            =      -0.0000000000000000 [Eh]
	 Same-Spin Energy          =      -0.3330098877046503 [Eh]
	 Opposite-Spin Energy      =      -1.1213254924246900 [Eh]
	 Correlation Energy        =      -1.4543353801293404 [Eh]
	 Total Energy              =    -326.6464712331645615 [Eh]

	 ================> DF-SCS-MP2 Energies <==================
	-----------------------------------------------------------
	 SCS Same-Spin Scale       =       0.3333333333333333 [-]
	 SCS Opposite-Spin Scale   =       1.2000000000000000 [-]
	 SCS Same-Spin Energy      =      -0.1110032959015501 [Eh]
	 SCS Opposite-Spin Energy  =      -1.3455905909096280 [Eh]
	 SCS Correlation Energy    =      -1.4565938868111781 [Eh]
	 SCS Total Energy          =    -326.6487297398463738 [Eh]
	-----------------------------------------------------------

  Dipole Moment: [D]
     X:    -0.9274      Y:    -3.6777      Z:     0.3969     Total:     3.8135

*** Psi4 exiting successfully. Buy a developer a beer!
