                               Psi4 1.3.2 release

  ==> Input File <==

--------------------------------------------------------------------------
#psi4
#
memory 32 gb

molecule  {
0 1
  O        0.3216664    -0.6953345     1.0654620
  N       -0.6848519     0.7867754    -0.3571150
  C       -2.0331630     0.4428770     0.0915860
  C        1.7355170     0.5659250    -0.4538020
  C        0.4068390     0.1581200     0.1784230
  C       -2.5721020    -0.8329900    -0.5555930
  C        2.8806560    -0.3237650     0.0245060
  H       -1.9910630     0.3248240     1.1818950
  H       -2.6829100     1.2983230    -0.1207890
  H        1.6432190     0.5393270    -1.5482860
  H        1.9198310     1.6196100    -0.1921910
  H       -0.5759590     1.3845000    -1.1569370
  H       -2.6081430    -0.7287990    -1.6478990
  H       -1.9207320    -1.6762470    -0.2982990
  H       -3.5840310    -1.0569410    -0.1969260
  H        2.7105400    -1.3693420    -0.2530710
  H        3.8280690     0.0048160    -0.4188000
  H        2.9664850    -0.2871200     1.1156770
units angstrom
no_reorient  #important for SAPT in psi4, default
symmetry c1  #important for SAPT in psi4, default
}

set PROPERTIES_ORIGIN ["COM"]
properties('MP2/aug-cc-pvtz', properties = ['dipole'])
--------------------------------------------------------------------------

    Molecular point group: c1
  Charge       = 0
  Multiplicity = 1
  Basis Set: AUG-CC-PVTZ
    Blend: AUG-CC-PVTZ
  Basis Set: (AUG-CC-PVTZ AUX)
    Blend: AUG-CC-PVTZ-JKFIT

    Orbital Energies [Eh]
    ---------------------

    Doubly Occupied:

       1A    -20.514905     2A    -15.580965     3A    -11.346202
       4A    -11.263429     5A    -11.241391     6A    -11.215713
       7A    -11.215351     8A     -1.368570     9A     -1.225264
      10A     -1.053599    11A     -1.006740    12A     -0.893482
      13A     -0.835676    14A     -0.779649    15A     -0.691684
      16A     -0.647422    17A     -0.633347    18A     -0.604670
      19A     -0.588630    20A     -0.573561    21A     -0.534808
      22A     -0.514474    23A     -0.513168    24A     -0.510536
      25A     -0.495487    26A     -0.482492    27A     -0.418217
      28A     -0.387890

  @DF-RHF Final Energy:  -325.19846723047976

   => Energetics <=

    Nuclear Repulsion Energy =            313.5306095767364241
    One-Electron Energy =               -1063.1835142681786692
    Two-Electron Energy =                 424.4544374609624811
    Total Energy =                       -325.1984672304797641
  Basis Set: (AUG-CC-PVTZ AUX)
    Blend: AUG-CC-PVTZ-RI
    Molecular point group: c1

    Geometry (in Angstrom), charge = 0, multiplicity = 1:

       Center              X                  Y                   Z               Mass
    ------------   -----------------  -----------------  -----------------  -----------------
         O            0.318985870889    -0.696035179534     1.066457077128    15.994914619570
         N           -0.687532429111     0.786074720466    -0.356119922872    14.003074004430
         C           -2.035843529111     0.442176320466     0.092581077128    12.000000000000
         C            1.732836470889     0.565224320466    -0.452806922872    12.000000000000
         C            0.404158470889     0.157419320466     0.179418077128    12.000000000000
         C           -2.574782529111    -0.833690679534    -0.554597922872    12.000000000000
         C            2.877975470889    -0.324465679534     0.025501077128    12.000000000000
         H           -1.993743529111     0.324123320466     1.182890077128     1.007825032230
         H           -2.685590529111     1.297622320466    -0.119793922872     1.007825032230
         H            1.640538470889     0.538626320466    -1.547290922872     1.007825032230
         H            1.917150470889     1.618909320466    -0.191195922872     1.007825032230
         H           -0.578639529111     1.383799320466    -1.155941922872     1.007825032230
         H           -2.610823529111    -0.729499679534    -1.646903922872     1.007825032230
         H           -1.923412529111    -1.676947679534    -0.297303922872     1.007825032230
         H           -3.586711529111    -1.057641679534    -0.195930922872     1.007825032230
         H            2.707859470889    -1.370042679534    -0.252075922872     1.007825032230
         H            3.825388470889     0.004115320466    -0.417804922872     1.007825032230
         H            2.963804470889    -0.287820679534     1.116672077128     1.007825032230

  Basis Set: AUG-CC-PVTZ
    Blend: AUG-CC-PVTZ
  Basis Set: (AUG-CC-PVTZ AUX)
    Blend: AUG-CC-PVTZ-JKFIT
	 Reference Energy          =    -325.1984672304797641 [Eh]
	 Singles Energy            =      -0.0000000000000000 [Eh]
	 Same-Spin Energy          =      -0.3317210571576371 [Eh]
	 Opposite-Spin Energy      =      -1.1193370725369363 [Eh]
	 Correlation Energy        =      -1.4510581296945735 [Eh]
	 Total Energy              =    -326.6495253601743229 [Eh]

	 ================> DF-SCS-MP2 Energies <==================
	-----------------------------------------------------------
	 SCS Same-Spin Scale       =       0.3333333333333333 [-]
	 SCS Opposite-Spin Scale   =       1.2000000000000000 [-]
	 SCS Same-Spin Energy      =      -0.1105736857192124 [Eh]
	 SCS Opposite-Spin Energy  =      -1.3432044870443234 [Eh]
	 SCS Correlation Energy    =      -1.4537781727635357 [Eh]
	 SCS Total Energy          =    -326.6522454032432847 [Eh]
	-----------------------------------------------------------

  Dipole Moment: [D]
     X:    -0.7663      Y:     2.2329      Z:    -2.5700     Total:     3.4897

*** Psi4 exiting successfully. Buy a developer a beer!
