                               Psi4 1.3.2 release

  ==> Input File <==

--------------------------------------------------------------------------
#psi4
#
memory 32 gb

molecule  {
0 1
  O        0.2683561    -0.6879071     1.0658562
  N       -0.6919670     0.7804610    -0.3498900
  C       -2.0331630     0.4428770     0.0915860
  C        1.7091458     0.6003775    -0.4847542
  C        0.4068390     0.1581200     0.1784230
  C       -2.5721020    -0.8329900    -0.5555930
  C        2.8806560    -0.3237650     0.0245060
  H       -1.9910630     0.3248240     1.1818950
  H       -2.6829100     1.2983230    -0.1207890
  H        1.6432190     0.5393270    -1.5482860
  H        1.9198310     1.6196100    -0.1921910
  H       -0.5759590     1.3845000    -1.1569370
  H       -2.6081430    -0.7287990    -1.6478990
  H       -1.9207320    -1.6762470    -0.2982990
  H       -3.5840310    -1.0569410    -0.1969260
  H        2.7105400    -1.3693420    -0.2530710
  H        3.8280690     0.0048160    -0.4188000
  H        2.9664850    -0.2871200     1.1156770
units angstrom
no_reorient  #important for SAPT in psi4, default
symmetry c1  #important for SAPT in psi4, default
}

set PROPERTIES_ORIGIN ["COM"]
properties('MP2/aug-cc-pvtz', properties = ['dipole'])
--------------------------------------------------------------------------

    Molecular point group: c1
  Charge       = 0
  Multiplicity = 1
  Basis Set: AUG-CC-PVTZ
    Blend: AUG-CC-PVTZ
  Basis Set: (AUG-CC-PVTZ AUX)
    Blend: AUG-CC-PVTZ-JKFIT

    Orbital Energies [Eh]
    ---------------------

    Doubly Occupied:

       1A    -20.514991     2A    -15.578138     3A    -11.346527
       4A    -11.260077     5A    -11.242452     6A    -11.219643
       7A    -11.213750     8A     -1.369708     9A     -1.222577
      10A     -1.052239    11A     -1.002914    12A     -0.894163
      13A     -0.837050    14A     -0.775699    15A     -0.694282
      16A     -0.646980    17A     -0.639014    18A     -0.604479
      19A     -0.585947    20A     -0.572502    21A     -0.530780
      22A     -0.517666    23A     -0.514923    24A     -0.500606
      25A     -0.499389    26A     -0.484283    27A     -0.420148
      28A     -0.384672

  @DF-RHF Final Energy:  -325.19482659928974

   => Energetics <=

    Nuclear Repulsion Energy =            313.5585000751707980
    One-Electron Energy =               -1063.2554591650680322
    Two-Electron Energy =                 424.5021324906075506
    Total Energy =                       -325.1948265992897404
  Basis Set: (AUG-CC-PVTZ AUX)
    Blend: AUG-CC-PVTZ-RI
    Molecular point group: c1

    Geometry (in Angstrom), charge = 0, multiplicity = 1:

       Center              X                  Y                   Z               Mass
    ------------   -----------------  -----------------  -----------------  -----------------
         O            0.278227315632    -0.692998279884     1.069462460183    15.994914619570
         N           -0.682095784368     0.775369820116    -0.346283739817    14.003074004430
         C           -2.023291784368     0.437785820116     0.095192260183    12.000000000000
         C            1.719017015632     0.595286320116    -0.481147939817    12.000000000000
         C            0.416710215632     0.153028820116     0.182029260183    12.000000000000
         C           -2.562230784368    -0.838081179884    -0.551986739817    12.000000000000
         C            2.890527215632    -0.328856179884     0.028112260183    12.000000000000
         H           -1.981191784368     0.319732820116     1.185501260183     1.007825032230
         H           -2.673038784368     1.293231820116    -0.117182739817     1.007825032230
         H            1.653090215632     0.534235820116    -1.544679739817     1.007825032230
         H            1.929702215632     1.614518820116    -0.188584739817     1.007825032230
         H           -0.566087784368     1.379408820116    -1.153330739817     1.007825032230
         H           -2.598271784368    -0.733890179884    -1.644292739817     1.007825032230
         H           -1.910860784368    -1.681338179884    -0.294692739817     1.007825032230
         H           -3.574159784368    -1.062032179884    -0.193319739817     1.007825032230
         H            2.720411215632    -1.374433179884    -0.249464739817     1.007825032230
         H            3.837940215632    -0.000275179884    -0.415193739817     1.007825032230
         H            2.976356215632    -0.292211179884     1.119283260183     1.007825032230

  Basis Set: AUG-CC-PVTZ
    Blend: AUG-CC-PVTZ
  Basis Set: (AUG-CC-PVTZ AUX)
    Blend: AUG-CC-PVTZ-JKFIT
	 Reference Energy          =    -325.1948265992897404 [Eh]
	 Singles Energy            =      -0.0000000000000000 [Eh]
	 Same-Spin Energy          =      -0.3318217440199301 [Eh]
	 Opposite-Spin Energy      =      -1.1197129159629591 [Eh]
	 Correlation Energy        =      -1.4515346599828893 [Eh]
	 Total Energy              =    -326.6463612592726236 [Eh]

	 ================> DF-SCS-MP2 Energies <==================
	-----------------------------------------------------------
	 SCS Same-Spin Scale       =       0.3333333333333333 [-]
	 SCS Opposite-Spin Scale   =       1.2000000000000000 [-]
	 SCS Same-Spin Energy      =      -0.1106072480066434 [Eh]
	 SCS Opposite-Spin Energy  =      -1.3436554991555509 [Eh]
	 SCS Correlation Energy    =      -1.4542627471621943 [Eh]
	 SCS Total Energy          =    -326.6490893464519445 [Eh]
	-----------------------------------------------------------

  Dipole Moment: [D]
     X:    -0.5758      Y:     2.2432      Z:    -2.5876     Total:     3.4727

*** Psi4 exiting successfully. Buy a developer a beer!
