                               Psi4 1.3.2 release

  ==> Input File <==

--------------------------------------------------------------------------
#psi4
#
memory 32 gb

molecule  {
0 1
  O        0.3109550    -0.6942360     1.0654250
  N       -0.6918984     0.7702119    -0.3573370
  C       -2.0331630     0.4428770     0.0915860
  C        1.7355170     0.5659250    -0.4538020
  C        0.4068390     0.1581200     0.1784230
  C       -2.5606888    -0.8343010    -0.5623754
  C        2.8806560    -0.3237650     0.0245060
  H       -1.9910630     0.3248240     1.1818950
  H       -2.6829100     1.2983230    -0.1207890
  H        1.6432190     0.5393270    -1.5482860
  H        1.9198310     1.6196100    -0.1921910
  H       -0.5759590     1.3845000    -1.1569370
  H       -2.6081430    -0.7287990    -1.6478990
  H       -1.9207320    -1.6762470    -0.2982990
  H       -3.5840310    -1.0569410    -0.1969260
  H        2.7105400    -1.3693420    -0.2530710
  H        3.8280690     0.0048160    -0.4188000
  H        2.9664850    -0.2871200     1.1156770
units angstrom
no_reorient  #important for SAPT in psi4, default
symmetry c1  #important for SAPT in psi4, default
}

set PROPERTIES_ORIGIN ["COM"]
properties('MP2/aug-cc-pvtz', properties = ['dipole'])
--------------------------------------------------------------------------

    Molecular point group: c1
  Charge       = 0
  Multiplicity = 1
  Basis Set: AUG-CC-PVTZ
    Blend: AUG-CC-PVTZ
  Basis Set: (AUG-CC-PVTZ AUX)
    Blend: AUG-CC-PVTZ-JKFIT

    Orbital Energies [Eh]
    ---------------------

    Doubly Occupied:

       1A    -20.513764     2A    -15.580760     3A    -11.345686
       4A    -11.262399     5A    -11.242455     6A    -11.216009
       7A    -11.214805     8A     -1.368698     9A     -1.225355
      10A     -1.054462    11A     -1.006204    12A     -0.893924
      13A     -0.836215    14A     -0.776662    15A     -0.692401
      16A     -0.648804    17A     -0.633826    18A     -0.605545
      19A     -0.587439    20A     -0.573101    21A     -0.533114
      22A     -0.515137    23A     -0.513789    24A     -0.509788
      25A     -0.496768    26A     -0.482768    27A     -0.418138
      28A     -0.386117

  @DF-RHF Final Energy:  -325.19821270372415

   => Energetics <=

    Nuclear Repulsion Energy =            313.8258147103435931
    One-Electron Energy =               -1063.7797940521891178
    Two-Electron Energy =                 424.7557666381213721
    Total Energy =                       -325.1982127037241526
  Basis Set: (AUG-CC-PVTZ AUX)
    Blend: AUG-CC-PVTZ-RI
    Molecular point group: c1

    Geometry (in Angstrom), charge = 0, multiplicity = 1:

       Center              X                  Y                   Z               Mass
    ------------   -----------------  -----------------  -----------------  -----------------
         O            0.309590624832    -0.692660341469     1.067261844771    15.994914619570
         N           -0.693262775168     0.771787558531    -0.355500155229    14.003074004430
         C           -2.034527375168     0.444452658531     0.093422844771    12.000000000000
         C            1.734152624832     0.567500658531    -0.451965155229    12.000000000000
         C            0.405474624832     0.159695658531     0.180259844771    12.000000000000
         C           -2.562053175168    -0.832725341469    -0.560538555229    12.000000000000
         C            2.879291624832    -0.322189341469     0.026342844771    12.000000000000
         H           -1.992427375168     0.326399658531     1.183731844771     1.007825032230
         H           -2.684274375168     1.299898658531    -0.118952155229     1.007825032230
         H            1.641854624832     0.540902658531    -1.546449155229     1.007825032230
         H            1.918466624832     1.621185658531    -0.190354155229     1.007825032230
         H           -0.577323375168     1.386075658531    -1.155100155229     1.007825032230
         H           -2.609507375168    -0.727223341469    -1.646062155229     1.007825032230
         H           -1.922096375168    -1.674671341469    -0.296462155229     1.007825032230
         H           -3.585395375168    -1.055365341469    -0.195089155229     1.007825032230
         H            2.709175624832    -1.367766341469    -0.251234155229     1.007825032230
         H            3.826704624832     0.006391658531    -0.416963155229     1.007825032230
         H            2.965120624832    -0.285544341469     1.117513844771     1.007825032230

  Basis Set: AUG-CC-PVTZ
    Blend: AUG-CC-PVTZ
  Basis Set: (AUG-CC-PVTZ AUX)
    Blend: AUG-CC-PVTZ-JKFIT
	 Reference Energy          =    -325.1982127037241526 [Eh]
	 Singles Energy            =      -0.0000000000000000 [Eh]
	 Same-Spin Energy          =      -0.3318588935144308 [Eh]
	 Opposite-Spin Energy      =      -1.1194540637875354 [Eh]
	 Correlation Energy        =      -1.4513129573019663 [Eh]
	 Total Energy              =    -326.6495256610261322 [Eh]

	 ================> DF-SCS-MP2 Energies <==================
	-----------------------------------------------------------
	 SCS Same-Spin Scale       =       0.3333333333333333 [-]
	 SCS Opposite-Spin Scale   =       1.2000000000000000 [-]
	 SCS Same-Spin Energy      =      -0.1106196311714769 [Eh]
	 SCS Opposite-Spin Energy  =      -1.3433448765450424 [Eh]
	 SCS Correlation Energy    =      -1.4539645077165193 [Eh]
	 SCS Total Energy          =    -326.6521772114406872 [Eh]
	-----------------------------------------------------------

  Dipole Moment: [D]
     X:    -0.7097      Y:     2.2767      Z:    -2.5763     Total:     3.5106

*** Psi4 exiting successfully. Buy a developer a beer!
