                               Psi4 1.3.2 release

  ==> Input File <==

--------------------------------------------------------------------------
#psi4
#
memory 32 gb

molecule  {
0 1
  O        0.3109550    -0.6942360     1.0654250
  N       -0.6919319     0.7599378    -0.3647499
  C       -2.0331630     0.4428770     0.0915860
  C        1.7355170     0.5659250    -0.4538020
  C        0.4068390     0.1581200     0.1784230
  C       -2.5492354    -0.8355147    -0.5691080
  C        2.8806560    -0.3237650     0.0245060
  H       -1.9910630     0.3248240     1.1818950
  H       -2.6829100     1.2983230    -0.1207890
  H        1.6432190     0.5393270    -1.5482860
  H        1.9198310     1.6196100    -0.1921910
  H       -0.5759590     1.3845000    -1.1569370
  H       -2.6081430    -0.7287990    -1.6478990
  H       -1.9207320    -1.6762470    -0.2982990
  H       -3.5840310    -1.0569410    -0.1969260
  H        2.7105400    -1.3693420    -0.2530710
  H        3.8280690     0.0048160    -0.4188000
  H        2.9664850    -0.2871200     1.1156770
units angstrom
no_reorient  #important for SAPT in psi4, default
symmetry c1  #important for SAPT in psi4, default
}

set PROPERTIES_ORIGIN ["COM"]
properties('MP2/aug-cc-pvtz', properties = ['dipole'])
--------------------------------------------------------------------------

    Molecular point group: c1
  Charge       = 0
  Multiplicity = 1
  Basis Set: AUG-CC-PVTZ
    Blend: AUG-CC-PVTZ
  Basis Set: (AUG-CC-PVTZ AUX)
    Blend: AUG-CC-PVTZ-JKFIT

    Orbital Energies [Eh]
    ---------------------

    Doubly Occupied:

       1A    -20.513293     2A    -15.580594     3A    -11.345340
       4A    -11.262628     5A    -11.242334     6A    -11.215918
       7A    -11.214688     8A     -1.368588     9A     -1.225624
      10A     -1.054461    11A     -1.006158    12A     -0.893652
      13A     -0.836382    14A     -0.776872    15A     -0.692505
      16A     -0.649173    17A     -0.633777    18A     -0.606289
      19A     -0.587684    20A     -0.572566    21A     -0.531496
      22A     -0.515895    23A     -0.513797    24A     -0.507880
      25A     -0.498313    26A     -0.483022    27A     -0.417768
      28A     -0.385775

  @DF-RHF Final Energy:  -325.19752789606105

   => Energetics <=

    Nuclear Repulsion Energy =            313.9740364437907374
    One-Electron Energy =               -1064.0781831728916131
    Two-Electron Energy =                 424.9066188330398290
    Total Energy =                       -325.1975278960610467
  Basis Set: (AUG-CC-PVTZ AUX)
    Blend: AUG-CC-PVTZ-RI
    Molecular point group: c1

    Geometry (in Angstrom), charge = 0, multiplicity = 1:

       Center              X                  Y                   Z               Mass
    ------------   -----------------  -----------------  -----------------  -----------------
         O            0.308235597228    -0.691092998642     1.069087994018    15.994914619570
         N           -0.694651302772     0.763080801358    -0.361086905982    14.003074004430
         C           -2.035882402772     0.446020001358     0.095248994018    12.000000000000
         C            1.732797597228     0.569068001358    -0.450139005982    12.000000000000
         C            0.404119597228     0.161263001358     0.182085994018    12.000000000000
         C           -2.551954802772    -0.832371698642    -0.565445005982    12.000000000000
         C            2.877936597228    -0.320621998642     0.028168994018    12.000000000000
         H           -1.993782402772     0.327967001358     1.185557994018     1.007825032230
         H           -2.685629402772     1.301466001358    -0.117126005982     1.007825032230
         H            1.640499597228     0.542470001358    -1.544623005982     1.007825032230
         H            1.917111597228     1.622753001358    -0.188528005982     1.007825032230
         H           -0.578678402772     1.387643001358    -1.153274005982     1.007825032230
         H           -2.610862402772    -0.725655998642    -1.644236005982     1.007825032230
         H           -1.923451402772    -1.673103998642    -0.294636005982     1.007825032230
         H           -3.586750402772    -1.053797998642    -0.193263005982     1.007825032230
         H            2.707820597228    -1.366198998642    -0.249408005982     1.007825032230
         H            3.825349597228     0.007959001358    -0.415137005982     1.007825032230
         H            2.963765597228    -0.283976998642     1.119339994018     1.007825032230

  Basis Set: AUG-CC-PVTZ
    Blend: AUG-CC-PVTZ
  Basis Set: (AUG-CC-PVTZ AUX)
    Blend: AUG-CC-PVTZ-JKFIT
	 Reference Energy          =    -325.1975278960610467 [Eh]
	 Singles Energy            =      -0.0000000000000000 [Eh]
	 Same-Spin Energy          =      -0.3318946885799360 [Eh]
	 Opposite-Spin Energy      =      -1.1195047476107205 [Eh]
	 Correlation Energy        =      -1.4513994361906566 [Eh]
	 Total Energy              =    -326.6489273322517306 [Eh]

	 ================> DF-SCS-MP2 Energies <==================
	-----------------------------------------------------------
	 SCS Same-Spin Scale       =       0.3333333333333333 [-]
	 SCS Opposite-Spin Scale   =       1.2000000000000000 [-]
	 SCS Same-Spin Energy      =      -0.1106315628599787 [Eh]
	 SCS Opposite-Spin Energy  =      -1.3434056971328645 [Eh]
	 SCS Correlation Energy    =      -1.4540372599928433 [Eh]
	 SCS Total Energy          =    -326.6515651560538913 [Eh]
	-----------------------------------------------------------

  Dipole Moment: [D]
     X:    -0.7156      Y:     2.3080      Z:    -2.5717     Total:     3.5288

*** Psi4 exiting successfully. Buy a developer a beer!
