                               Psi4 1.3.2 release

  ==> Input File <==

--------------------------------------------------------------------------
#psi4
#
memory 32 gb

molecule  {
0 1
  O        0.3109550    -0.6942360     1.0654250
  N       -0.7182566     0.7831553    -0.4211542
  C       -2.0331630     0.4428770     0.0915860
  C        1.7355170     0.5659250    -0.4538020
  C        0.4068390     0.1581200     0.1784230
  C       -2.5721020    -0.8329900    -0.5555930
  C        2.8806560    -0.3237650     0.0245060
  H       -2.0472678     0.3129065     1.1812609
  H       -2.6829100     1.2983230    -0.1207890
  H        1.6432190     0.5393270    -1.5482860
  H        1.9198310     1.6196100    -0.1921910
  H       -0.5759590     1.3845000    -1.1569370
  H       -2.6081430    -0.7287990    -1.6478990
  H       -1.9207320    -1.6762470    -0.2982990
  H       -3.5840310    -1.0569410    -0.1969260
  H        2.7105400    -1.3693420    -0.2530710
  H        3.8280690     0.0048160    -0.4188000
  H        2.9664850    -0.2871200     1.1156770
units angstrom
no_reorient  #important for SAPT in psi4, default
symmetry c1  #important for SAPT in psi4, default
}

set PROPERTIES_ORIGIN ["COM"]
properties('MP2/aug-cc-pvtz', properties = ['dipole'])
--------------------------------------------------------------------------

    Molecular point group: c1
  Charge       = 0
  Multiplicity = 1
  Basis Set: AUG-CC-PVTZ
    Blend: AUG-CC-PVTZ
  Basis Set: (AUG-CC-PVTZ AUX)
    Blend: AUG-CC-PVTZ-JKFIT

    Orbital Energies [Eh]
    ---------------------

    Doubly Occupied:

       1A    -20.523926     2A    -15.575401     3A    -11.353880
       4A    -11.260635     5A    -11.244016     6A    -11.217489
       7A    -11.211763     8A     -1.370229     9A     -1.222114
      10A     -1.054748    11A     -1.003724    12A     -0.892421
      13A     -0.834922    14A     -0.780511    15A     -0.693613
      16A     -0.651696    17A     -0.633502    18A     -0.606156
      19A     -0.588611    20A     -0.571001    21A     -0.533588
      22A     -0.517247    23A     -0.513977    24A     -0.512816
      25A     -0.493492    26A     -0.481099    27A     -0.420768
      28A     -0.386207

  @DF-RHF Final Energy:  -325.19153810773167

   => Energetics <=

    Nuclear Repulsion Energy =            312.8116332338969983
    One-Electron Energy =               -1061.7072387913210605
    Two-Electron Energy =                 423.7040674496923316
    Total Energy =                       -325.1915381077316738
  Basis Set: (AUG-CC-PVTZ AUX)
    Blend: AUG-CC-PVTZ-RI
    Molecular point group: c1

    Geometry (in Angstrom), charge = 0, multiplicity = 1:

       Center              X                  Y                   Z               Mass
    ------------   -----------------  -----------------  -----------------  -----------------
         O            0.315157267164    -0.694490191061     1.075303540012    15.994914619570
         N           -0.714054332836     0.782901108939    -0.411275659988    14.003074004430
         C           -2.028960732836     0.442622808939     0.101464540012    12.000000000000
         C            1.739719267164     0.565670808939    -0.443923459988    12.000000000000
         C            0.411041267164     0.157865808939     0.188301540012    12.000000000000
         C           -2.567899732836    -0.833244191061    -0.545714459988    12.000000000000
         C            2.884858267164    -0.324019191061     0.034384540012    12.000000000000
         H           -2.043065532836     0.312652308939     1.191139440012     1.007825032230
         H           -2.678707732836     1.298068808939    -0.110910459988     1.007825032230
         H            1.647421267164     0.539072808939    -1.538407459988     1.007825032230
         H            1.924033267164     1.619355808939    -0.182312459988     1.007825032230
         H           -0.571756732836     1.384245808939    -1.147058459988     1.007825032230
         H           -2.603940732836    -0.729053191061    -1.638020459988     1.007825032230
         H           -1.916529732836    -1.676501191061    -0.288420459988     1.007825032230
         H           -3.579828732836    -1.057195191061    -0.187047459988     1.007825032230
         H            2.714742267164    -1.369596191061    -0.243192459988     1.007825032230
         H            3.832271267164     0.004561808939    -0.408921459988     1.007825032230
         H            2.970687267164    -0.287374191061     1.125555540012     1.007825032230

  Basis Set: AUG-CC-PVTZ
    Blend: AUG-CC-PVTZ
  Basis Set: (AUG-CC-PVTZ AUX)
    Blend: AUG-CC-PVTZ-JKFIT
	 Reference Energy          =    -325.1915381077316738 [Eh]
	 Singles Energy            =      -0.0000000000000000 [Eh]
	 Same-Spin Energy          =      -0.3317974654728103 [Eh]
	 Opposite-Spin Energy      =      -1.1198379943117334 [Eh]
	 Correlation Energy        =      -1.4516354597845438 [Eh]
	 Total Energy              =    -326.6431735675162145 [Eh]

	 ================> DF-SCS-MP2 Energies <==================
	-----------------------------------------------------------
	 SCS Same-Spin Scale       =       0.3333333333333333 [-]
	 SCS Opposite-Spin Scale   =       1.2000000000000000 [-]
	 SCS Same-Spin Energy      =      -0.1105991551576034 [Eh]
	 SCS Opposite-Spin Energy  =      -1.3438055931740800 [Eh]
	 SCS Correlation Energy    =      -1.4544047483316835 [Eh]
	 SCS Total Energy          =    -326.6459428560633569 [Eh]
	-----------------------------------------------------------

  Dipole Moment: [D]
     X:    -0.4784      Y:     2.1933      Z:    -2.3730     Total:     3.2666

*** Psi4 exiting successfully. Buy a developer a beer!
