                               Psi4 1.3.2 release

  ==> Input File <==

--------------------------------------------------------------------------
#psi4
#
memory 32 gb

molecule  {
0 1
  O        0.3109550    -0.6942360     1.0654250
  N       -0.6482676     0.8156179    -0.3945028
  C       -2.0331630     0.4428770     0.0915860
  C        1.6950405     0.6151435    -0.5020658
  C        0.4068390     0.1581200     0.1784230
  C       -2.5721020    -0.8329900    -0.5555930
  C        2.8806560    -0.3237650     0.0245060
  H       -1.9910630     0.3248240     1.1818950
  H       -2.6829100     1.2983230    -0.1207890
  H        1.6432190     0.5393270    -1.5482860
  H        1.9198310     1.6196100    -0.1921910
  H       -0.5759590     1.3845000    -1.1569370
  H       -2.6081430    -0.7287990    -1.6478990
  H       -1.9207320    -1.6762470    -0.2982990
  H       -3.5840310    -1.0569410    -0.1969260
  H        2.7105400    -1.3693420    -0.2530710
  H        3.8280690     0.0048160    -0.4188000
  H        2.9664850    -0.2871200     1.1156770
units angstrom
no_reorient  #important for SAPT in psi4, default
symmetry c1  #important for SAPT in psi4, default
}

set PROPERTIES_ORIGIN ["COM"]
properties('MP2/aug-cc-pvtz', properties = ['dipole'])
--------------------------------------------------------------------------

    Molecular point group: c1
  Charge       = 0
  Multiplicity = 1
  Basis Set: AUG-CC-PVTZ
    Blend: AUG-CC-PVTZ
  Basis Set: (AUG-CC-PVTZ AUX)
    Blend: AUG-CC-PVTZ-JKFIT

    Orbital Energies [Eh]
    ---------------------

    Doubly Occupied:

       1A    -20.519232     2A    -15.576813     3A    -11.348114
       4A    -11.266488     5A    -11.235670     6A    -11.217368
       7A    -11.216682     8A     -1.368696     9A     -1.224321
      10A     -1.046598    11A     -1.003879    12A     -0.890313
      13A     -0.835376    14A     -0.795804    15A     -0.691762
      16A     -0.642416    17A     -0.637496    18A     -0.601780
      19A     -0.594865    20A     -0.568746    21A     -0.530457
      22A     -0.516011    23A     -0.514557    24A     -0.501677
      25A     -0.494261    26A     -0.481432    27A     -0.418436
      28A     -0.392268

  @DF-RHF Final Energy:  -325.18522332933759

   => Energetics <=

    Nuclear Repulsion Energy =            312.6675018971414488
    One-Electron Energy =               -1061.4424163840237725
    Two-Electron Energy =                 423.5896911575447916
    Total Energy =                       -325.1852233293375889
  Basis Set: (AUG-CC-PVTZ AUX)
    Blend: AUG-CC-PVTZ-RI
    Molecular point group: c1

    Geometry (in Angstrom), charge = 0, multiplicity = 1:

       Center              X                  Y                   Z               Mass
    ------------   -----------------  -----------------  -----------------  -----------------
         O            0.309706479679    -0.704948901400     1.077334770292    15.994914619570
         N           -0.649516120321     0.804904998600    -0.382593029708    14.003074004430
         C           -2.034411520321     0.432164098600     0.103495770292    12.000000000000
         C            1.693791979679     0.604430598600    -0.490156029708    12.000000000000
         C            0.405590479679     0.147407098600     0.190332770292    12.000000000000
         C           -2.573350520321    -0.843702901400    -0.543683229708    12.000000000000
         C            2.879407479679    -0.334477901400     0.036415770292    12.000000000000
         H           -1.992311520321     0.314111098600     1.193804770292     1.007825032230
         H           -2.684158520321     1.287610098600    -0.108879229708     1.007825032230
         H            1.641970479679     0.528614098600    -1.536376229708     1.007825032230
         H            1.918582479679     1.608897098600    -0.180281229708     1.007825032230
         H           -0.577207520321     1.373787098600    -1.145027229708     1.007825032230
         H           -2.609391520321    -0.739511901400    -1.635989229708     1.007825032230
         H           -1.921980520321    -1.686959901400    -0.286389229708     1.007825032230
         H           -3.585279520321    -1.067653901400    -0.185016229708     1.007825032230
         H            2.709291479679    -1.380054901400    -0.241161229708     1.007825032230
         H            3.826820479679    -0.005896901400    -0.406890229708     1.007825032230
         H            2.965236479679    -0.297832901400     1.127586770292     1.007825032230

  Basis Set: AUG-CC-PVTZ
    Blend: AUG-CC-PVTZ
  Basis Set: (AUG-CC-PVTZ AUX)
    Blend: AUG-CC-PVTZ-JKFIT
	 Reference Energy          =    -325.1852233293375889 [Eh]
	 Singles Energy            =      -0.0000000000000000 [Eh]
	 Same-Spin Energy          =      -0.3313788680727561 [Eh]
	 Opposite-Spin Energy      =      -1.1197974369120633 [Eh]
	 Correlation Energy        =      -1.4511763049848194 [Eh]
	 Total Energy              =    -326.6363996343224017 [Eh]

	 ================> DF-SCS-MP2 Energies <==================
	-----------------------------------------------------------
	 SCS Same-Spin Scale       =       0.3333333333333333 [-]
	 SCS Opposite-Spin Scale   =       1.2000000000000000 [-]
	 SCS Same-Spin Energy      =      -0.1104596226909187 [Eh]
	 SCS Opposite-Spin Energy  =      -1.3437569242944760 [Eh]
	 SCS Correlation Energy    =      -1.4542165469853947 [Eh]
	 SCS Total Energy          =    -326.6394398763229674 [Eh]
	-----------------------------------------------------------

  Dipole Moment: [D]
     X:    -0.8971      Y:     2.1763      Z:    -2.5247     Total:     3.4518

*** Psi4 exiting successfully. Buy a developer a beer!
