                               Psi4 1.4a3.dev225

  ==> Input File <==

--------------------------------------------------------------------------
#psi4
#
memory 32 gb

molecule  {
0 1
  O        0.3358460     1.2965490    -0.1579670
  N       -0.6355700    -0.7573960    -0.3171250
  C       -1.9990338    -0.1967104    -0.6237536
  C        1.6888930    -0.6226540     0.4213110
  C        0.4166970     0.0697910    -0.0414380
  C       -2.7106350     0.2148780     0.6378230
  C        2.9315370     0.1212560    -0.0546130
  H       -1.8024690     0.6408050    -1.2743770
  H       -2.5093410    -0.9768490    -1.1692540
  H        1.6661620    -0.6499400     1.5181760
  H        1.7013640    -1.6638910     0.0787670
  H       -0.5536820    -1.7388620    -0.0859220
  H       -2.8566760    -0.6308240     1.3159630
  H       -2.1451200     0.9906390     1.1579850
  H       -3.6935760     0.6181720     0.3752940
  H        2.8830370     1.1639450     0.2613510
  H        3.8370830    -0.3350390     0.3539010
  H        2.9990550     0.1035600    -1.1453320
units angstrom
no_reorient  #important for SAPT in psi4, default
symmetry c1  #important for SAPT in psi4, default
}

set PROPERTIES_ORIGIN ["COM"]
properties('MP2/aug-cc-pvtz', properties = ['dipole'])
--------------------------------------------------------------------------

    Molecular point group: c1
  Charge       = 0
  Multiplicity = 1
  Basis Set: AUG-CC-PVTZ
    Blend: AUG-CC-PVTZ
  Basis Set: (AUG-CC-PVTZ AUX)
    Blend: AUG-CC-PVTZ-JKFIT

    Orbital Energies [Eh]
    ---------------------

    Doubly Occupied:

       1A    -20.509790     2A    -15.580428     3A    -11.343073
       4A    -11.263702     5A    -11.239048     6A    -11.216422
       7A    -11.214989     8A     -1.364682     9A     -1.215839
      10A     -1.055783    11A     -1.014114    12A     -0.892197
      13A     -0.839482    14A     -0.774286    15A     -0.690224
      16A     -0.650166    17A     -0.618124    18A     -0.609244
      19A     -0.590502    20A     -0.581083    21A     -0.535873
      22A     -0.525391    23A     -0.511814    24A     -0.504575
      25A     -0.500816    26A     -0.483200    27A     -0.414355
      28A     -0.388755

  @DF-RHF Final Energy:  -325.19738684834056

   => Energetics <=

    Nuclear Repulsion Energy =            313.3657713977186745
    One-Electron Energy =               -1062.8704035273817681
    Two-Electron Energy =                 424.3072452813225937
    Total Energy =                       -325.1973868483405568
  Basis Set: (AUG-CC-PVTZ AUX)
    Blend: AUG-CC-PVTZ-RI
    Molecular point group: c1

    Geometry (in Angstrom), charge = 0, multiplicity = 1:

       Center              X                  Y                   Z               Mass
    ------------   -----------------  -----------------  -----------------  -----------------
         O            0.336602603835     1.270102013610    -0.143147266322    15.994914619570
         N           -0.634813396165    -0.783842986390    -0.302305266322    14.003074004430
         C           -1.998277196165    -0.223157386390    -0.608933866322    12.000000000000
         C            1.689649603835    -0.649100986390     0.436130733678    12.000000000000
         C            0.417453603835     0.043344013610    -0.026618266322    12.000000000000
         C           -2.709878396165     0.188431013610     0.652642733678    12.000000000000
         C            2.932293603835     0.094809013610    -0.039793266322    12.000000000000
         H           -1.801712396165     0.614358013610    -1.259557266322     1.007825032230
         H           -2.508584396165    -1.003295986390    -1.154434266322     1.007825032230
         H            1.666918603835    -0.676386986390     1.532995733678     1.007825032230
         H            1.702120603835    -1.690337986390     0.093586733678     1.007825032230
         H           -0.552925396165    -1.765308986390    -0.071102266322     1.007825032230
         H           -2.855919396165    -0.657270986390     1.330782733678     1.007825032230
         H           -2.144363396165     0.964192013610     1.172804733678     1.007825032230
         H           -3.692819396165     0.591725013610     0.390113733678     1.007825032230
         H            2.883793603835     1.137498013610     0.276170733678     1.007825032230
         H            3.837839603835    -0.361485986390     0.368720733678     1.007825032230
         H            2.999811603835     0.077113013610    -1.130512266322     1.007825032230

  Basis Set: AUG-CC-PVTZ
    Blend: AUG-CC-PVTZ
  Basis Set: (AUG-CC-PVTZ AUX)
    Blend: AUG-CC-PVTZ-JKFIT
	 Reference Energy          =    -325.1973868483405568 [Eh]
	 Singles Energy            =      -0.0000000000000000 [Eh]
	 Same-Spin Energy          =      -0.3318670981891498 [Eh]
	 Opposite-Spin Energy      =      -1.1195022218650390 [Eh]
	 Correlation Energy        =      -1.4513693200541888 [Eh]
	 Total Energy              =    -326.6487561683947547 [Eh]

	 ================> DF-SCS-MP2 Energies <==================
	-----------------------------------------------------------
	 SCS Same-Spin Scale       =       0.3333333333333333 [-]
	 SCS Opposite-Spin Scale   =       1.2000000000000000 [-]
	 SCS Same-Spin Energy      =      -0.1106223660630499 [Eh]
	 SCS Opposite-Spin Energy  =      -1.3434026662380467 [Eh]
	 SCS Correlation Energy    =      -1.4540250323010966 [Eh]
	 SCS Total Energy          =    -326.6514118806416604 [Eh]
	-----------------------------------------------------------

  Dipole Moment: [D]
     X:    -0.9835      Y:    -3.3614      Z:     0.3905     Total:     3.5240

*** Psi4 exiting successfully. Buy a developer a beer!
