                               Psi4 1.3.2 release

  ==> Input File <==

--------------------------------------------------------------------------
#psi4
#
memory 32 gb

molecule  {
0 1
  O        0.3109550    -0.6942360     1.0654250
  N       -0.6919670     0.7804610    -0.3498900
  C       -2.0331630     0.4428770     0.0915860
  C        1.7355170     0.5659250    -0.4538020
  C        0.4068390     0.1581200     0.1784230
  C       -2.5732612    -0.8385532    -0.5435228
  C        2.8806560    -0.3237650     0.0245060
  H       -1.9945261     0.3159372     1.1810244
  H       -2.6829100     1.2983230    -0.1207890
  H        1.6432190     0.5393270    -1.5482860
  H        1.9198310     1.6196100    -0.1921910
  H       -0.5759590     1.3845000    -1.1569370
  H       -2.6081430    -0.7287990    -1.6478990
  H       -1.9207320    -1.6762470    -0.2982990
  H       -3.5840310    -1.0569410    -0.1969260
  H        2.7105400    -1.3693420    -0.2530710
  H        3.8280690     0.0048160    -0.4188000
  H        2.9664850    -0.2871200     1.1156770
units angstrom
no_reorient  #important for SAPT in psi4, default
symmetry c1  #important for SAPT in psi4, default
}

set PROPERTIES_ORIGIN ["COM"]
properties('MP2/aug-cc-pvtz', properties = ['dipole'])
--------------------------------------------------------------------------

    Molecular point group: c1
  Charge       = 0
  Multiplicity = 1
  Basis Set: AUG-CC-PVTZ
    Blend: AUG-CC-PVTZ
  Basis Set: (AUG-CC-PVTZ AUX)
    Blend: AUG-CC-PVTZ-JKFIT

    Orbital Energies [Eh]
    ---------------------

    Doubly Occupied:

       1A    -20.514421     2A    -15.581222     3A    -11.346187
       4A    -11.262167     5A    -11.242673     6A    -11.216174
       7A    -11.214924     8A     -1.368953     9A     -1.225118
      10A     -1.054546    11A     -1.006424    12A     -0.894263
      13A     -0.835917    14A     -0.776414    15A     -0.692469
      16A     -0.648607    17A     -0.633959    18A     -0.605196
      19A     -0.587033    20A     -0.573435    21A     -0.536094
      22A     -0.514951    23A     -0.513789    24A     -0.511628
      25A     -0.494620    26A     -0.481322    27A     -0.418734
      28A     -0.386553

  @DF-RHF Final Energy:  -325.19824129669740

   => Energetics <=

    Nuclear Repulsion Energy =            313.6701340478132352
    One-Electron Energy =               -1063.4611624302974633
    Two-Electron Energy =                 424.5927870857868243
    Total Energy =                       -325.1982412966974039
  Basis Set: (AUG-CC-PVTZ AUX)
    Blend: AUG-CC-PVTZ-RI
    Molecular point group: c1

    Geometry (in Angstrom), charge = 0, multiplicity = 1:

       Center              X                  Y                   Z               Mass
    ------------   -----------------  -----------------  -----------------  -----------------
         O            0.311127163864    -0.693486744395     1.064000849253    15.994914619570
         N           -0.691794836136     0.781210255605    -0.351314150747    14.003074004430
         C           -2.032990836136     0.443626255605     0.090161849253    12.000000000000
         C            1.735689163864     0.566674255605    -0.455226150747    12.000000000000
         C            0.407011163864     0.158869255605     0.176998849253    12.000000000000
         C           -2.573089036136    -0.837803944395    -0.544946950747    12.000000000000
         C            2.880828163864    -0.323015744395     0.023081849253    12.000000000000
         H           -1.994353936136     0.316686455605     1.179600249253     1.007825032230
         H           -2.682737836136     1.299072255605    -0.122213150747     1.007825032230
         H            1.643391163864     0.540076255605    -1.549710150747     1.007825032230
         H            1.920003163864     1.620359255605    -0.193615150747     1.007825032230
         H           -0.575786836136     1.385249255605    -1.158361150747     1.007825032230
         H           -2.607970836136    -0.728049744395    -1.649323150747     1.007825032230
         H           -1.920559836136    -1.675497744395    -0.299723150747     1.007825032230
         H           -3.583858836136    -1.056191744395    -0.198350150747     1.007825032230
         H            2.710712163864    -1.368592744395    -0.254495150747     1.007825032230
         H            3.828241163864     0.005565255605    -0.420224150747     1.007825032230
         H            2.966657163864    -0.286370744395     1.114252849253     1.007825032230

  Basis Set: AUG-CC-PVTZ
    Blend: AUG-CC-PVTZ
  Basis Set: (AUG-CC-PVTZ AUX)
    Blend: AUG-CC-PVTZ-JKFIT
	 Reference Energy          =    -325.1982412966974039 [Eh]
	 Singles Energy            =      -0.0000000000000000 [Eh]
	 Same-Spin Energy          =      -0.3318255162558552 [Eh]
	 Opposite-Spin Energy      =      -1.1194319417437431 [Eh]
	 Correlation Energy        =      -1.4512574579995983 [Eh]
	 Total Energy              =    -326.6494987546969924 [Eh]

	 ================> DF-SCS-MP2 Energies <==================
	-----------------------------------------------------------
	 SCS Same-Spin Scale       =       0.3333333333333333 [-]
	 SCS Opposite-Spin Scale   =       1.2000000000000000 [-]
	 SCS Same-Spin Energy      =      -0.1106085054186184 [Eh]
	 SCS Opposite-Spin Energy  =      -1.3433183300924916 [Eh]
	 SCS Correlation Energy    =      -1.4539268355111099 [Eh]
	 SCS Total Energy          =    -326.6521681322084873 [Eh]
	-----------------------------------------------------------

  Dipole Moment: [D]
     X:    -0.6973      Y:     2.2422      Z:    -2.5725     Total:     3.4830

*** Psi4 exiting successfully. Buy a developer a beer!
