                               Psi4 1.4a3.dev225

  ==> Input File <==

--------------------------------------------------------------------------
#psi4
#
memory 32 gb

molecule  {
0 1
  O        0.3358460     1.2965490    -0.1579670
  N       -0.6355700    -0.7573960    -0.3171250
  C       -1.9356505    -0.2227750    -0.6094994
  C        1.6888930    -0.6226540     0.4213110
  C        0.4166970     0.0697910    -0.0414380
  C       -2.7106350     0.2148780     0.6378230
  C        2.9315370     0.1212560    -0.0546130
  H       -1.8024690     0.6408050    -1.2743770
  H       -2.5093410    -0.9768490    -1.1692540
  H        1.6661620    -0.6499400     1.5181760
  H        1.7013640    -1.6638910     0.0787670
  H       -0.5536820    -1.7388620    -0.0859220
  H       -2.8566760    -0.6308240     1.3159630
  H       -2.1451200     0.9906390     1.1579850
  H       -3.6935760     0.6181720     0.3752940
  H        2.8830370     1.1639450     0.2613510
  H        3.8370830    -0.3350390     0.3539010
  H        2.9990550     0.1035600    -1.1453320
units angstrom
no_reorient  #important for SAPT in psi4, default
symmetry c1  #important for SAPT in psi4, default
}

set PROPERTIES_ORIGIN ["COM"]
properties('MP2/aug-cc-pvtz', properties = ['dipole'])
--------------------------------------------------------------------------

    Molecular point group: c1
  Charge       = 0
  Multiplicity = 1
  Basis Set: AUG-CC-PVTZ
    Blend: AUG-CC-PVTZ
  Basis Set: (AUG-CC-PVTZ AUX)
    Blend: AUG-CC-PVTZ-JKFIT

    Orbital Energies [Eh]
    ---------------------

    Doubly Occupied:

       1A    -20.513046     2A    -15.583941     3A    -11.346065
       4A    -11.261320     5A    -11.241140     6A    -11.216509
       7A    -11.214585     8A     -1.369076     9A     -1.231132
      10A     -1.057325    11A     -1.007124    12A     -0.896733
      13A     -0.838176    14A     -0.780594    15A     -0.693571
      16A     -0.658477    17A     -0.622375    18A     -0.604560
      19A     -0.592594    20A     -0.581754    21A     -0.530480
      22A     -0.528939    23A     -0.515503    24A     -0.504933
      25A     -0.493924    26A     -0.482120    27A     -0.418088
      28A     -0.388072

  @DF-RHF Final Energy:  -325.19908942268847

   => Energetics <=

    Nuclear Repulsion Energy =            314.2628348675362986
    One-Electron Energy =               -1064.5795366934664798
    Two-Electron Energy =                 425.1176124032417079
    Total Energy =                       -325.1990894226884734
  Basis Set: (AUG-CC-PVTZ AUX)
    Blend: AUG-CC-PVTZ-RI
    Molecular point group: c1

    Geometry (in Angstrom), charge = 0, multiplicity = 1:

       Center              X                  Y                   Z               Mass
    ------------   -----------------  -----------------  -----------------  -----------------
         O            0.329078177431     1.273196222407    -0.144839426226    15.994914619570
         N           -0.642337822569    -0.780748777593    -0.303997426226    14.003074004430
         C           -1.942418322569    -0.246127777593    -0.596371826226    12.000000000000
         C            1.682125177431    -0.646006777593     0.434438573774    12.000000000000
         C            0.409929177431     0.046438222407    -0.028310426226    12.000000000000
         C           -2.717402822569     0.191525222407     0.650950573774    12.000000000000
         C            2.924769177431     0.097903222407    -0.041485426226    12.000000000000
         H           -1.809236822569     0.617452222407    -1.261249426226     1.007825032230
         H           -2.516108822569    -1.000201777593    -1.156126426226     1.007825032230
         H            1.659394177431    -0.673292777593     1.531303573774     1.007825032230
         H            1.694596177431    -1.687243777593     0.091894573774     1.007825032230
         H           -0.560449822569    -1.762214777593    -0.072794426226     1.007825032230
         H           -2.863443822569    -0.654176777593     1.329090573774     1.007825032230
         H           -2.151887822569     0.967286222407     1.171112573774     1.007825032230
         H           -3.700343822569     0.594819222407     0.388421573774     1.007825032230
         H            2.876269177431     1.140592222407     0.274478573774     1.007825032230
         H            3.830315177431    -0.358391777593     0.367028573774     1.007825032230
         H            2.992287177431     0.080207222407    -1.132204426226     1.007825032230

  Basis Set: AUG-CC-PVTZ
    Blend: AUG-CC-PVTZ
  Basis Set: (AUG-CC-PVTZ AUX)
    Blend: AUG-CC-PVTZ-JKFIT
	 Reference Energy          =    -325.1990894226884734 [Eh]
	 Singles Energy            =      -0.0000000000000000 [Eh]
	 Same-Spin Energy          =      -0.3320679814522978 [Eh]
	 Opposite-Spin Energy      =      -1.1193523630087086 [Eh]
	 Correlation Energy        =      -1.4514203444610063 [Eh]
	 Total Energy              =    -326.6505097671494582 [Eh]

	 ================> DF-SCS-MP2 Energies <==================
	-----------------------------------------------------------
	 SCS Same-Spin Scale       =       0.3333333333333333 [-]
	 SCS Opposite-Spin Scale   =       1.2000000000000000 [-]
	 SCS Same-Spin Energy      =      -0.1106893271507659 [Eh]
	 SCS Opposite-Spin Energy  =      -1.3432228356104503 [Eh]
	 SCS Correlation Energy    =      -1.4539121627612162 [Eh]
	 SCS Total Energy          =    -326.6530015854497151 [Eh]
	-----------------------------------------------------------

  Dipole Moment: [D]
     X:    -0.7542      Y:    -3.3927      Z:     0.3940     Total:     3.4978

*** Psi4 exiting successfully. Buy a developer a beer!
