                               Psi4 1.3.2 release

  ==> Input File <==

--------------------------------------------------------------------------
#psi4
#
memory 32 gb

molecule  {
0 1
  O        0.3109550    -0.6942360     1.0654250
  N       -0.6919670     0.7804610    -0.3498900
  C       -2.0331630     0.4428770     0.0915860
  C        1.7355170     0.5659250    -0.4538020
  C        0.4136894     0.1632606     0.1700957
  C       -2.5721020    -0.8329900    -0.5555930
  C        2.8806560    -0.3237650     0.0245060
  H       -1.9910630     0.3248240     1.1818950
  H       -2.6829100     1.2983230    -0.1207890
  H        1.6432190     0.5393270    -1.5482860
  H        1.9198310     1.6196100    -0.1921910
  H       -0.5672685     1.3828010    -1.1569109
  H       -2.6081430    -0.7287990    -1.6478990
  H       -1.9207320    -1.6762470    -0.2982990
  H       -3.5840310    -1.0569410    -0.1969260
  H        2.7105400    -1.3693420    -0.2530710
  H        3.8280690     0.0048160    -0.4188000
  H        2.9664850    -0.2871200     1.1156770
units angstrom
no_reorient  #important for SAPT in psi4, default
symmetry c1  #important for SAPT in psi4, default
}

set PROPERTIES_ORIGIN ["COM"]
properties('MP2/aug-cc-pvtz', properties = ['dipole'])
--------------------------------------------------------------------------

    Molecular point group: c1
  Charge       = 0
  Multiplicity = 1
  Basis Set: AUG-CC-PVTZ
    Blend: AUG-CC-PVTZ
  Basis Set: (AUG-CC-PVTZ AUX)
    Blend: AUG-CC-PVTZ-JKFIT

    Orbital Energies [Eh]
    ---------------------

    Doubly Occupied:

       1A    -20.512737     2A    -15.581698     3A    -11.346588
       4A    -11.262646     5A    -11.243316     6A    -11.216688
       7A    -11.214966     8A     -1.362826     9A     -1.224099
      10A     -1.056633    11A     -1.006760    12A     -0.895670
      13A     -0.837090    14A     -0.775057    15A     -0.692591
      16A     -0.648549    17A     -0.634779    18A     -0.604197
      19A     -0.585876    20A     -0.573113    21A     -0.534977
      22A     -0.514510    23A     -0.512975    24A     -0.511819
      25A     -0.495151    26A     -0.481029    27A     -0.418894
      28A     -0.385669

  @DF-RHF Final Energy:  -325.19739855531168

   => Energetics <=

    Nuclear Repulsion Energy =            313.6061738260468132
    One-Electron Energy =               -1063.3453371697798957
    Two-Electron Energy =                 424.5417647884213466
    Total Energy =                       -325.1973985553116790
  Basis Set: (AUG-CC-PVTZ AUX)
    Blend: AUG-CC-PVTZ-RI
    Molecular point group: c1

    Geometry (in Angstrom), charge = 0, multiplicity = 1:

       Center              X                  Y                   Z               Mass
    ------------   -----------------  -----------------  -----------------  -----------------
         O            0.310055146198    -0.694829088969     1.066413358937    15.994914619570
         N           -0.692866853802     0.779867911031    -0.348901641063    14.003074004430
         C           -2.034062853802     0.442283911031     0.092574358937    12.000000000000
         C            1.734617146198     0.565331911031    -0.452813641063    12.000000000000
         C            0.412789546198     0.162667511031     0.171084058937    12.000000000000
         C           -2.573001853802    -0.833583088969    -0.554604641063    12.000000000000
         C            2.879756146198    -0.324358088969     0.025494358937    12.000000000000
         H           -1.991962853802     0.324230911031     1.182883358937     1.007825032230
         H           -2.683809853802     1.297729911031    -0.119800641063     1.007825032230
         H            1.642319146198     0.538733911031    -1.547297641063     1.007825032230
         H            1.918931146198     1.619016911031    -0.191202641063     1.007825032230
         H           -0.568168353802     1.382207911031    -1.155922541063     1.007825032230
         H           -2.609042853802    -0.729392088969    -1.646910641063     1.007825032230
         H           -1.921631853802    -1.676840088969    -0.297310641063     1.007825032230
         H           -3.584930853802    -1.057534088969    -0.195937641063     1.007825032230
         H            2.709640146198    -1.369935088969    -0.252082641063     1.007825032230
         H            3.827169146198     0.004222911031    -0.417811641063     1.007825032230
         H            2.965585146198    -0.287713088969     1.116665358937     1.007825032230

  Basis Set: AUG-CC-PVTZ
    Blend: AUG-CC-PVTZ
  Basis Set: (AUG-CC-PVTZ AUX)
    Blend: AUG-CC-PVTZ-JKFIT
	 Reference Energy          =    -325.1973985553116790 [Eh]
	 Singles Energy            =      -0.0000000000000000 [Eh]
	 Same-Spin Energy          =      -0.3320883619253999 [Eh]
	 Opposite-Spin Energy      =      -1.1199214442229823 [Eh]
	 Correlation Energy        =      -1.4520098061483822 [Eh]
	 Total Energy              =    -326.6494083614600754 [Eh]

	 ================> DF-SCS-MP2 Energies <==================
	-----------------------------------------------------------
	 SCS Same-Spin Scale       =       0.3333333333333333 [-]
	 SCS Opposite-Spin Scale   =       1.2000000000000000 [-]
	 SCS Same-Spin Energy      =      -0.1106961206418000 [Eh]
	 SCS Opposite-Spin Energy  =      -1.3439057330675788 [Eh]
	 SCS Correlation Energy    =      -1.4546018537093788 [Eh]
	 SCS Total Energy          =    -326.6520004090210705 [Eh]
	-----------------------------------------------------------

  Dipole Moment: [D]
     X:    -0.6736      Y:     2.2732      Z:    -2.6176     Total:     3.5317

*** Psi4 exiting successfully. Buy a developer a beer!
