                               Psi4 1.3.2 release

  ==> Input File <==

--------------------------------------------------------------------------
#psi4
#
memory 32 gb

molecule  {
0 1
  O        0.3109550    -0.6942360     1.0654250
  N       -0.6919670     0.7804610    -0.3498900
  C       -2.0022409     0.4014127     0.1472772
  C        1.7355170     0.5659250    -0.4538020
  C        0.4068390     0.1581200     0.1784230
  C       -2.5721020    -0.8329900    -0.5555930
  C        2.8806560    -0.3237650     0.0245060
  H       -1.9910630     0.3248240     1.1818950
  H       -2.6829100     1.2983230    -0.1207890
  H        1.6432190     0.5393270    -1.5482860
  H        1.9198310     1.6196100    -0.1921910
  H       -0.5233607     1.3802262    -1.1508266
  H       -2.6081430    -0.7287990    -1.6478990
  H       -1.9207320    -1.6762470    -0.2982990
  H       -3.5840310    -1.0569410    -0.1969260
  H        2.7105400    -1.3693420    -0.2530710
  H        3.8280690     0.0048160    -0.4188000
  H        2.9664850    -0.2871200     1.1156770
units angstrom
no_reorient  #important for SAPT in psi4, default
symmetry c1  #important for SAPT in psi4, default
}

set PROPERTIES_ORIGIN ["COM"]
properties('MP2/aug-cc-pvtz', properties = ['dipole'])
--------------------------------------------------------------------------

    Molecular point group: c1
  Charge       = 0
  Multiplicity = 1
  Basis Set: AUG-CC-PVTZ
    Blend: AUG-CC-PVTZ
  Basis Set: (AUG-CC-PVTZ AUX)
    Blend: AUG-CC-PVTZ-JKFIT

    Orbital Energies [Eh]
    ---------------------

    Doubly Occupied:

       1A    -20.513933     2A    -15.581298     3A    -11.344072
       4A    -11.264504     5A    -11.242700     6A    -11.216320
       7A    -11.215531     8A     -1.369413     9A     -1.225617
      10A     -1.054907    11A     -1.006861    12A     -0.893354
      13A     -0.837456    14A     -0.776094    15A     -0.690075
      16A     -0.655896    17A     -0.634701    18A     -0.600662
      19A     -0.586655    20A     -0.577012    21A     -0.535735
      22A     -0.517735    23A     -0.514686    24A     -0.511515
      25A     -0.486679    26A     -0.485548    27A     -0.417815
      28A     -0.386314

  @DF-RHF Final Energy:  -325.19136357638422

   => Energetics <=

    Nuclear Repulsion Energy =            314.0874776178174557
    One-Electron Energy =               -1064.2715032864452951
    Two-Electron Energy =                 424.9926620922435632
    Total Energy =                       -325.1913635763842194
  Basis Set: (AUG-CC-PVTZ AUX)
    Blend: AUG-CC-PVTZ-RI
    Molecular point group: c1

    Geometry (in Angstrom), charge = 0, multiplicity = 1:

       Center              X                  Y                   Z               Mass
    ------------   -----------------  -----------------  -----------------  -----------------
         O            0.306759752574    -0.689270806825     1.058752864499    15.994914619570
         N           -0.696162247426     0.785426193175    -0.356562135501    14.003074004430
         C           -2.006436147426     0.406377893175     0.140605064499    12.000000000000
         C            1.731321752574     0.570890193175    -0.460474135501    12.000000000000
         C            0.402643752574     0.163085193175     0.171750864499    12.000000000000
         C           -2.576297247426    -0.828024806825    -0.562265135501    12.000000000000
         C            2.876460752574    -0.318799806825     0.017833864499    12.000000000000
         H           -1.995258247426     0.329789193175     1.175222864499     1.007825032230
         H           -2.687105247426     1.303288193175    -0.127461135501     1.007825032230
         H            1.639023752574     0.544292193175    -1.554958135501     1.007825032230
         H            1.915635752574     1.624575193175    -0.198863135501     1.007825032230
         H           -0.527555947426     1.385191393175    -1.157498735501     1.007825032230
         H           -2.612338247426    -0.723833806825    -1.654571135501     1.007825032230
         H           -1.924927247426    -1.671281806825    -0.304971135501     1.007825032230
         H           -3.588226247426    -1.051975806825    -0.203598135501     1.007825032230
         H            2.706344752574    -1.364376806825    -0.259743135501     1.007825032230
         H            3.823873752574     0.009781193175    -0.425472135501     1.007825032230
         H            2.962289752574    -0.282154806825     1.109004864499     1.007825032230

  Basis Set: AUG-CC-PVTZ
    Blend: AUG-CC-PVTZ
  Basis Set: (AUG-CC-PVTZ AUX)
    Blend: AUG-CC-PVTZ-JKFIT
	 Reference Energy          =    -325.1913635763842194 [Eh]
	 Singles Energy            =      -0.0000000000000000 [Eh]
	 Same-Spin Energy          =      -0.3319311105947692 [Eh]
	 Opposite-Spin Energy      =      -1.1197213118011162 [Eh]
	 Correlation Energy        =      -1.4516524223958855 [Eh]
	 Total Energy              =    -326.6430159987801289 [Eh]

	 ================> DF-SCS-MP2 Energies <==================
	-----------------------------------------------------------
	 SCS Same-Spin Scale       =       0.3333333333333333 [-]
	 SCS Opposite-Spin Scale   =       1.2000000000000000 [-]
	 SCS Same-Spin Energy      =      -0.1106437035315897 [Eh]
	 SCS Opposite-Spin Energy  =      -1.3436655741613395 [Eh]
	 SCS Correlation Energy    =      -1.4543092776929292 [Eh]
	 SCS Total Energy          =    -326.6456728540771337 [Eh]
	-----------------------------------------------------------

  Dipole Moment: [D]
     X:    -0.6445      Y:     2.2019      Z:    -2.5440     Total:     3.4257

*** Psi4 exiting successfully. Buy a developer a beer!
