                               Psi4 1.3.2 release

  ==> Input File <==

--------------------------------------------------------------------------
#psi4
#
memory 32 gb

molecule  {
0 1
  O        0.3109550    -0.6942360     1.0654250
  N       -0.6919670     0.7804610    -0.3498900
  C       -2.0331630     0.4428770     0.0915860
  C        1.7355170     0.5659250    -0.4538020
  C        0.3928877     0.1479814     0.1949562
  C       -2.5721020    -0.8329900    -0.5555930
  C        2.8806560    -0.3237650     0.0245060
  H       -1.9910630     0.3248240     1.1818950
  H       -2.6829100     1.2983230    -0.1207890
  H        1.6432190     0.5393270    -1.5482860
  H        1.9198310     1.6196100    -0.1921910
  H       -0.5933658     1.3877599    -1.1568049
  H       -2.6081430    -0.7287990    -1.6478990
  H       -1.9207320    -1.6762470    -0.2982990
  H       -3.5840310    -1.0569410    -0.1969260
  H        2.7105400    -1.3693420    -0.2530710
  H        3.8280690     0.0048160    -0.4188000
  H        2.9664850    -0.2871200     1.1156770
units angstrom
no_reorient  #important for SAPT in psi4, default
symmetry c1  #important for SAPT in psi4, default
}

set PROPERTIES_ORIGIN ["COM"]
properties('MP2/aug-cc-pvtz', properties = ['dipole'])
--------------------------------------------------------------------------

    Molecular point group: c1
  Charge       = 0
  Multiplicity = 1
  Basis Set: AUG-CC-PVTZ
    Blend: AUG-CC-PVTZ
  Basis Set: (AUG-CC-PVTZ AUX)
    Blend: AUG-CC-PVTZ-JKFIT

    Orbital Energies [Eh]
    ---------------------

    Doubly Occupied:

       1A    -20.517414     2A    -15.579575     3A    -11.345087
       4A    -11.261300     5A    -11.241006     6A    -11.215056
       7A    -11.214961     8A     -1.381417     9A     -1.226810
      10A     -1.050303    11A     -1.005293    12A     -0.891369
      13A     -0.834062    14A     -0.779014    15A     -0.691992
      16A     -0.648705    17A     -0.632350    18A     -0.606787
      19A     -0.589864    20A     -0.574558    21A     -0.534834
      22A     -0.515847    23A     -0.514550    24A     -0.510443
      25A     -0.495209    26A     -0.484510    27A     -0.417038
      28A     -0.387900

  @DF-RHF Final Energy:  -325.19900696992494

   => Energetics <=

    Nuclear Repulsion Energy =            313.8214680144288877
    One-Electron Energy =               -1063.7464440361113702
    Two-Electron Energy =                 424.7259690517575450
    Total Energy =                       -325.1990069699249375
  Basis Set: (AUG-CC-PVTZ AUX)
    Blend: AUG-CC-PVTZ-RI
    Molecular point group: c1

    Geometry (in Angstrom), charge = 0, multiplicity = 1:

       Center              X                  Y                   Z               Mass
    ------------   -----------------  -----------------  -----------------  -----------------
         O            0.312784774404    -0.693064689227     1.063461035715    15.994914619570
         N           -0.690137225596     0.781632310773    -0.351853964285    14.003074004430
         C           -2.031333225596     0.444048310773     0.089622035715    12.000000000000
         C            1.737346774404     0.567096310773    -0.455765964285    12.000000000000
         C            0.394717474404     0.149152710773     0.192992235715    12.000000000000
         C           -2.570272225596    -0.831818689227    -0.557556964285    12.000000000000
         C            2.882485774404    -0.322593689227     0.022542035715    12.000000000000
         H           -1.989233225596     0.325995310773     1.179931035715     1.007825032230
         H           -2.681080225596     1.299494310773    -0.122752964285     1.007825032230
         H            1.645048774404     0.540498310773    -1.550249964285     1.007825032230
         H            1.921660774404     1.620781310773    -0.194154964285     1.007825032230
         H           -0.591536025596     1.388931210773    -1.158768864285     1.007825032230
         H           -2.606313225596    -0.727627689227    -1.649862964285     1.007825032230
         H           -1.918902225596    -1.675075689227    -0.300262964285     1.007825032230
         H           -3.582201225596    -1.055769689227    -0.198889964285     1.007825032230
         H            2.712369774404    -1.368170689227    -0.255034964285     1.007825032230
         H            3.829898774404     0.005987310773    -0.420763964285     1.007825032230
         H            2.968314774404    -0.285948689227     1.113713035715     1.007825032230

  Basis Set: AUG-CC-PVTZ
    Blend: AUG-CC-PVTZ
  Basis Set: (AUG-CC-PVTZ AUX)
    Blend: AUG-CC-PVTZ-JKFIT
	 Reference Energy          =    -325.1990069699249375 [Eh]
	 Singles Energy            =      -0.0000000000000000 [Eh]
	 Same-Spin Energy          =      -0.3313703504524371 [Eh]
	 Opposite-Spin Energy      =      -1.1185541126347784 [Eh]
	 Correlation Energy        =      -1.4499244630872155 [Eh]
	 Total Energy              =    -326.6489314330121374 [Eh]

	 ================> DF-SCS-MP2 Energies <==================
	-----------------------------------------------------------
	 SCS Same-Spin Scale       =       0.3333333333333333 [-]
	 SCS Opposite-Spin Scale   =       1.2000000000000000 [-]
	 SCS Same-Spin Energy      =      -0.1104567834841457 [Eh]
	 SCS Opposite-Spin Energy  =      -1.3422649351617342 [Eh]
	 SCS Correlation Energy    =      -1.4527217186458798 [Eh]
	 SCS Total Energy          =    -326.6517286885708131 [Eh]
	-----------------------------------------------------------

  Dipole Moment: [D]
     X:    -0.7609      Y:     2.1876      Z:    -2.5028     Total:     3.4101

*** Psi4 exiting successfully. Buy a developer a beer!
