                               Psi4 1.3.2 release

  ==> Input File <==

--------------------------------------------------------------------------
#psi4
#
memory 32 gb

molecule  {
0 1
  O        0.3109550    -0.6942360     1.0654250
  N       -0.6919670     0.7804610    -0.3498900
  C       -2.0331630     0.4428770     0.0915860
  C        1.7355170     0.5659250    -0.4538020
  C        0.3999049     0.1530268     0.1867101
  C       -2.5721020    -0.8329900    -0.5555930
  C        2.8806560    -0.3237650     0.0245060
  H       -1.9910630     0.3248240     1.1818950
  H       -2.6829100     1.2983230    -0.1207890
  H        1.6432190     0.5393270    -1.5482860
  H        1.9198310     1.6196100    -0.1921910
  H       -0.5846583     1.3861530    -1.1569017
  H       -2.6081430    -0.7287990    -1.6478990
  H       -1.9207320    -1.6762470    -0.2982990
  H       -3.5840310    -1.0569410    -0.1969260
  H        2.7105400    -1.3693420    -0.2530710
  H        3.8280690     0.0048160    -0.4188000
  H        2.9664850    -0.2871200     1.1156770
units angstrom
no_reorient  #important for SAPT in psi4, default
symmetry c1  #important for SAPT in psi4, default
}

set PROPERTIES_ORIGIN ["COM"]
properties('MP2/aug-cc-pvtz', properties = ['dipole'])
--------------------------------------------------------------------------

    Molecular point group: c1
  Charge       = 0
  Multiplicity = 1
  Basis Set: AUG-CC-PVTZ
    Blend: AUG-CC-PVTZ
  Basis Set: (AUG-CC-PVTZ AUX)
    Blend: AUG-CC-PVTZ-JKFIT

    Orbital Energies [Eh]
    ---------------------

    Doubly Occupied:

       1A    -20.515853     2A    -15.580253     3A    -11.345567
       4A    -11.261733     5A    -11.241832     6A    -11.215544
       7A    -11.215015     8A     -1.375044     9A     -1.225971
      10A     -1.052374    11A     -1.005773    12A     -0.892779
      13A     -0.835070    14A     -0.777689    15A     -0.692112
      16A     -0.648495    17A     -0.633073    18A     -0.605824
      19A     -0.588644    20A     -0.574173    21A     -0.534771
      22A     -0.515137    23A     -0.514052    24A     -0.510919
      25A     -0.495244    26A     -0.483505    27A     -0.417936
      28A     -0.387197

  @DF-RHF Final Energy:  -325.19895653653526

   => Energetics <=

    Nuclear Repulsion Energy =            313.7472280185253908
    One-Electron Energy =               -1063.6092109378985242
    Two-Electron Energy =                 424.6630263828378133
    Total Energy =                       -325.1989565365352632
  Basis Set: (AUG-CC-PVTZ AUX)
    Blend: AUG-CC-PVTZ-RI
    Molecular point group: c1

    Geometry (in Angstrom), charge = 0, multiplicity = 1:

       Center              X                  Y                   Z               Mass
    ------------   -----------------  -----------------  -----------------  -----------------
         O            0.311864925787    -0.693647623110     1.064440920709    15.994914619570
         N           -0.691057074213     0.781049376890    -0.350874079291    14.003074004430
         C           -2.032253074213     0.443465376890     0.090601920709    12.000000000000
         C            1.736426925787     0.566513376890    -0.454786079291    12.000000000000
         C            0.400814825787     0.153615176890     0.185726020709    12.000000000000
         C           -2.571192074213    -0.832401623110    -0.556577079291    12.000000000000
         C            2.881565925787    -0.323176623110     0.023521920709    12.000000000000
         H           -1.990153074213     0.325412376890     1.180910920709     1.007825032230
         H           -2.682000074213     1.298911376890    -0.121773079291     1.007825032230
         H            1.644128925787     0.539915376890    -1.549270079291     1.007825032230
         H            1.920740925787     1.620198376890    -0.193175079291     1.007825032230
         H           -0.583748374213     1.386741376890    -1.157885779291     1.007825032230
         H           -2.607233074213    -0.728210623110    -1.648883079291     1.007825032230
         H           -1.919822074213    -1.675658623110    -0.299283079291     1.007825032230
         H           -3.583121074213    -1.056352623110    -0.197910079291     1.007825032230
         H            2.711449925787    -1.368753623110    -0.254055079291     1.007825032230
         H            3.828978925787     0.005404376890    -0.419784079291     1.007825032230
         H            2.967394925787    -0.286531623110     1.114692920709     1.007825032230

  Basis Set: AUG-CC-PVTZ
    Blend: AUG-CC-PVTZ
  Basis Set: (AUG-CC-PVTZ AUX)
    Blend: AUG-CC-PVTZ-JKFIT
	 Reference Energy          =    -325.1989565365352632 [Eh]
	 Singles Energy            =      -0.0000000000000000 [Eh]
	 Same-Spin Energy          =      -0.3315941973477192 [Eh]
	 Opposite-Spin Energy      =      -1.1189808526195513 [Eh]
	 Correlation Energy        =      -1.4505750499672705 [Eh]
	 Total Energy              =    -326.6495315865025191 [Eh]

	 ================> DF-SCS-MP2 Energies <==================
	-----------------------------------------------------------
	 SCS Same-Spin Scale       =       0.3333333333333333 [-]
	 SCS Opposite-Spin Scale   =       1.2000000000000000 [-]
	 SCS Same-Spin Energy      =      -0.1105313991159064 [Eh]
	 SCS Opposite-Spin Energy  =      -1.3427770231434615 [Eh]
	 SCS Correlation Energy    =      -1.4533084222593680 [Eh]
	 SCS Total Energy          =    -326.6522649587946034 [Eh]
	-----------------------------------------------------------

  Dipole Moment: [D]
     X:    -0.7302      Y:     2.2167      Z:    -2.5418     Total:     3.4508

*** Psi4 exiting successfully. Buy a developer a beer!
