                               Psi4 1.3.2 release

  ==> Input File <==

--------------------------------------------------------------------------
#psi4
#
memory 32 gb

molecule  {
0 1
  O        0.3109550    -0.6942360     1.0654250
  N       -0.6919670     0.7804610    -0.3498900
  C       -2.0331630     0.4428770     0.0915860
  C        1.7355170     0.5659250    -0.4538020
  C        0.4287665     0.1647611     0.2265430
  C       -2.5721020    -0.8329900    -0.5555930
  C        2.8806560    -0.3237650     0.0245060
  H       -1.9910630     0.3248240     1.1818950
  H       -2.6829100     1.2983230    -0.1207890
  H        1.6797969     0.5505313    -1.5509710
  H        1.9198310     1.6196100    -0.1921910
  H       -0.5759590     1.3845000    -1.1569370
  H       -2.6081430    -0.7287990    -1.6478990
  H       -1.9207320    -1.6762470    -0.2982990
  H       -3.5840310    -1.0569410    -0.1969260
  H        2.7105400    -1.3693420    -0.2530710
  H        3.8280690     0.0048160    -0.4188000
  H        2.9664850    -0.2871200     1.1156770
units angstrom
no_reorient  #important for SAPT in psi4, default
symmetry c1  #important for SAPT in psi4, default
}

set PROPERTIES_ORIGIN ["COM"]
properties('MP2/aug-cc-pvtz', properties = ['dipole'])
--------------------------------------------------------------------------

    Molecular point group: c1
  Charge       = 0
  Multiplicity = 1
  Basis Set: AUG-CC-PVTZ
    Blend: AUG-CC-PVTZ
  Basis Set: (AUG-CC-PVTZ AUX)
    Blend: AUG-CC-PVTZ-JKFIT

    Orbital Energies [Eh]
    ---------------------

    Doubly Occupied:

       1A    -20.522706     2A    -15.573877     3A    -11.348166
       4A    -11.258731     5A    -11.242701     6A    -11.216751
       7A    -11.212675     8A     -1.387992     9A     -1.215638
      10A     -1.054859    11A     -1.001805    12A     -0.891715
      13A     -0.832244    14A     -0.770220    15A     -0.696696
      16A     -0.646581    17A     -0.633127    18A     -0.612383
      19A     -0.587235    20A     -0.571887    21A     -0.534504
      22A     -0.518673    23A     -0.515373    24A     -0.510359
      25A     -0.494576    26A     -0.484639    27A     -0.421793
      28A     -0.383136

  @DF-RHF Final Energy:  -325.19572959342099

   => Energetics <=

    Nuclear Repulsion Energy =            313.5735153006600058
    One-Electron Energy =               -1063.2564050097746531
    Two-Electron Energy =                 424.4871601156936549
    Total Energy =                       -325.1957295934209924
  Basis Set: (AUG-CC-PVTZ AUX)
    Blend: AUG-CC-PVTZ-RI
    Molecular point group: c1

    Geometry (in Angstrom), charge = 0, multiplicity = 1:

       Center              X                  Y                   Z               Mass
    ------------   -----------------  -----------------  -----------------  -----------------
         O            0.307987255261    -0.695135865997     1.059739356537    15.994914619570
         N           -0.694934744739     0.779561134003    -0.355575643463    14.003074004430
         C           -2.036130744739     0.441977134003     0.085900356537    12.000000000000
         C            1.732549255261     0.565025134003    -0.459487643463    12.000000000000
         C            0.425798755261     0.163861234003     0.220857356537    12.000000000000
         C           -2.575069744739    -0.833889865997    -0.561278643463    12.000000000000
         C            2.877688255261    -0.324664865997     0.018820356537    12.000000000000
         H           -1.994030744739     0.323924134003     1.176209356537     1.007825032230
         H           -2.685877744739     1.297423134003    -0.126474643463     1.007825032230
         H            1.676829155261     0.549631434003    -1.556656643463     1.007825032230
         H            1.916863255261     1.618710134003    -0.197876643463     1.007825032230
         H           -0.578926744739     1.383600134003    -1.162622643463     1.007825032230
         H           -2.611110744739    -0.729698865997    -1.653584643463     1.007825032230
         H           -1.923699744739    -1.677146865997    -0.303984643463     1.007825032230
         H           -3.586998744739    -1.057840865997    -0.202611643463     1.007825032230
         H            2.707572255261    -1.370241865997    -0.258756643463     1.007825032230
         H            3.825101255261     0.003916134003    -0.424485643463     1.007825032230
         H            2.963517255261    -0.288019865997     1.109991356537     1.007825032230

  Basis Set: AUG-CC-PVTZ
    Blend: AUG-CC-PVTZ
  Basis Set: (AUG-CC-PVTZ AUX)
    Blend: AUG-CC-PVTZ-JKFIT
	 Reference Energy          =    -325.1957295934209924 [Eh]
	 Singles Energy            =      -0.0000000000000000 [Eh]
	 Same-Spin Energy          =      -0.3314842512297846 [Eh]
	 Opposite-Spin Energy      =      -1.1188850828428747 [Eh]
	 Correlation Energy        =      -1.4503693340726593 [Eh]
	 Total Energy              =    -326.6460989274936537 [Eh]

	 ================> DF-SCS-MP2 Energies <==================
	-----------------------------------------------------------
	 SCS Same-Spin Scale       =       0.3333333333333333 [-]
	 SCS Opposite-Spin Scale   =       1.2000000000000000 [-]
	 SCS Same-Spin Energy      =      -0.1104947504099282 [Eh]
	 SCS Opposite-Spin Energy  =      -1.3426620994114495 [Eh]
	 SCS Correlation Energy    =      -1.4531568498213778 [Eh]
	 SCS Total Energy          =    -326.6488864432423611 [Eh]
	-----------------------------------------------------------

  Dipole Moment: [D]
     X:    -0.4748      Y:     2.1172      Z:    -2.4085     Total:     3.2417

*** Psi4 exiting successfully. Buy a developer a beer!
