                               Psi4 1.3.2 release

  ==> Input File <==

--------------------------------------------------------------------------
#psi4
#
memory 32 gb

molecule  {
0 1
  O        0.3109550    -0.6942360     1.0654250
  N       -0.6919670     0.7804610    -0.3498900
  C       -2.0331630     0.4428770     0.0915860
  C        1.7355170     0.5659250    -0.4538020
  C        0.4068390     0.1581200     0.1784230
  C       -2.5721020    -0.8329900    -0.5555930
  C        2.8806560    -0.3237650     0.0245060
  H       -1.9910630     0.3248240     1.1818950
  H       -2.6829100     1.2983230    -0.1207890
  H        1.6432190     0.5393270    -1.5482860
  H        1.9198310     1.6196100    -0.1921910
  H       -0.5645264     1.4440280    -1.2364714
  H       -2.6081430    -0.7287990    -1.6478990
  H       -1.9207320    -1.6762470    -0.2982990
  H       -3.5840310    -1.0569410    -0.1969260
  H        2.7105400    -1.3693420    -0.2530710
  H        3.8280690     0.0048160    -0.4188000
  H        2.9664850    -0.2871200     1.1156770
units angstrom
no_reorient  #important for SAPT in psi4, default
symmetry c1  #important for SAPT in psi4, default
}

set PROPERTIES_ORIGIN ["COM"]
properties('MP2/aug-cc-pvtz', properties = ['dipole'])
--------------------------------------------------------------------------

    Molecular point group: c1
  Charge       = 0
  Multiplicity = 1
  Basis Set: AUG-CC-PVTZ
    Blend: AUG-CC-PVTZ
  Basis Set: (AUG-CC-PVTZ AUX)
    Blend: AUG-CC-PVTZ-JKFIT

    Orbital Energies [Eh]
    ---------------------

    Doubly Occupied:

       1A    -20.514112     2A    -15.589652     3A    -11.345953
       4A    -11.262265     5A    -11.242051     6A    -11.215694
       7A    -11.214714     8A     -1.368077     9A     -1.215524
      10A     -1.053929    11A     -1.004131    12A     -0.893318
      13A     -0.834623    14A     -0.756143    15A     -0.689477
      16A     -0.646473    17A     -0.633279    18A     -0.604658
      19A     -0.584409    20A     -0.569990    21A     -0.534505
      22A     -0.514251    23A     -0.513219    24A     -0.509378
      25A     -0.494563    26A     -0.481818    27A     -0.417936
      28A     -0.385038

  @DF-RHF Final Energy:  -325.18725447154776

   => Energetics <=

    Nuclear Repulsion Energy =            313.1290402749754662
    One-Electron Energy =               -1062.4542324670528615
    Two-Electron Energy =                 424.1379377205295782
    Total Energy =                       -325.1872544715477602
  Basis Set: (AUG-CC-PVTZ AUX)
    Blend: AUG-CC-PVTZ-RI
    Molecular point group: c1

    Geometry (in Angstrom), charge = 0, multiplicity = 1:

       Center              X                  Y                   Z               Mass
    ------------   -----------------  -----------------  -----------------  -----------------
         O            0.310841039046    -0.694829275974     1.066218031051    15.994914619570
         N           -0.692080960954     0.779867724026    -0.349096968949    14.003074004430
         C           -2.033276960954     0.442283724026     0.092379031051    12.000000000000
         C            1.735403039046     0.565331724026    -0.453008968949    12.000000000000
         C            0.406725039046     0.157526724026     0.179216031051    12.000000000000
         C           -2.572215960954    -0.833583275974    -0.554799968949    12.000000000000
         C            2.880542039046    -0.324358275974     0.025299031051    12.000000000000
         H           -1.991176960954     0.324230724026     1.182688031051     1.007825032230
         H           -2.683023960954     1.297729724026    -0.119995968949     1.007825032230
         H            1.643105039046     0.538733724026    -1.547492968949     1.007825032230
         H            1.919717039046     1.619016724026    -0.191397968949     1.007825032230
         H           -0.564640360954     1.443434724026    -1.235678368949     1.007825032230
         H           -2.608256960954    -0.729392275974    -1.647105968949     1.007825032230
         H           -1.920845960954    -1.676840275974    -0.297505968949     1.007825032230
         H           -3.584144960954    -1.057534275974    -0.196132968949     1.007825032230
         H            2.710426039046    -1.369935275974    -0.252277968949     1.007825032230
         H            3.827955039046     0.004222724026    -0.418006968949     1.007825032230
         H            2.966371039046    -0.287713275974     1.116470031051     1.007825032230

  Basis Set: AUG-CC-PVTZ
    Blend: AUG-CC-PVTZ
  Basis Set: (AUG-CC-PVTZ AUX)
    Blend: AUG-CC-PVTZ-JKFIT
	 Reference Energy          =    -325.1872544715477602 [Eh]
	 Singles Energy            =      -0.0000000000000000 [Eh]
	 Same-Spin Energy          =      -0.3326069206905278 [Eh]
	 Opposite-Spin Energy      =      -1.1214318814081694 [Eh]
	 Correlation Energy        =      -1.4540388020986972 [Eh]
	 Total Energy              =    -326.6412932736464541 [Eh]

	 ================> DF-SCS-MP2 Energies <==================
	-----------------------------------------------------------
	 SCS Same-Spin Scale       =       0.3333333333333333 [-]
	 SCS Opposite-Spin Scale   =       1.2000000000000000 [-]
	 SCS Same-Spin Energy      =      -0.1108689735635093 [Eh]
	 SCS Opposite-Spin Energy  =      -1.3457182576898032 [Eh]
	 SCS Correlation Energy    =      -1.4565872312533126 [Eh]
	 SCS Total Energy          =    -326.6438417028010690 [Eh]
	-----------------------------------------------------------

  Dipole Moment: [D]
     X:    -0.7172      Y:     2.2897      Z:    -2.6336     Total:     3.5627

*** Psi4 exiting successfully. Buy a developer a beer!
