                               Psi4 1.4a3.dev225

  ==> Input File <==

--------------------------------------------------------------------------
#psi4
#
memory 32 gb

molecule  {
0 1
  O        0.3358460     1.2965490    -0.1579670
  N       -0.6355700    -0.7573960    -0.3171250
  C       -1.9537600    -0.2153280    -0.6135720
  C        1.6888930    -0.6226540     0.4213110
  C        0.3999637     0.0788988    -0.0475246
  C       -2.7106350     0.2148780     0.6378230
  C        2.9315370     0.1212560    -0.0546130
  H       -1.8024690     0.6408050    -1.2743770
  H       -2.5093410    -0.9768490    -1.1692540
  H        1.6661620    -0.6499400     1.5181760
  H        1.7013640    -1.6638910     0.0787670
  H       -0.5536820    -1.7388620    -0.0859220
  H       -2.8566760    -0.6308240     1.3159630
  H       -2.1451200     0.9906390     1.1579850
  H       -3.6935760     0.6181720     0.3752940
  H        2.8830370     1.1639450     0.2613510
  H        3.8370830    -0.3350390     0.3539010
  H        2.9990550     0.1035600    -1.1453320
units angstrom
no_reorient  #important for SAPT in psi4, default
symmetry c1  #important for SAPT in psi4, default
}

set PROPERTIES_ORIGIN ["COM"]
properties('MP2/aug-cc-pvtz', properties = ['dipole'])
--------------------------------------------------------------------------

    Molecular point group: c1
  Charge       = 0
  Multiplicity = 1
  Basis Set: AUG-CC-PVTZ
    Blend: AUG-CC-PVTZ
  Basis Set: (AUG-CC-PVTZ AUX)
    Blend: AUG-CC-PVTZ-JKFIT

    Orbital Energies [Eh]
    ---------------------

    Doubly Occupied:

       1A    -20.512830     2A    -15.583435     3A    -11.343747
       4A    -11.262183     5A    -11.239286     6A    -11.215705
       7A    -11.214787     8A     -1.374076     9A     -1.230412
      10A     -1.053074    11A     -1.009542    12A     -0.893216
      13A     -0.837584    14A     -0.782021    15A     -0.691530
      16A     -0.656047    17A     -0.620537    18A     -0.605363
      19A     -0.592981    20A     -0.584605    21A     -0.531246
      22A     -0.527960    23A     -0.514488    24A     -0.504834
      25A     -0.496507    26A     -0.483997    27A     -0.414871
      28A     -0.390475

  @DF-RHF Final Energy:  -325.20016678141110

   => Energetics <=

    Nuclear Repulsion Energy =            314.1351153819273918
    One-Electron Energy =               -1064.3358875645685657
    Two-Electron Energy =                 425.0006054012301320
    Total Energy =                       -325.2001667814110988
  Basis Set: (AUG-CC-PVTZ AUX)
    Blend: AUG-CC-PVTZ-RI
    Molecular point group: c1

    Geometry (in Angstrom), charge = 0, multiplicity = 1:

       Center              X                  Y                   Z               Mass
    ------------   -----------------  -----------------  -----------------  -----------------
         O            0.333214473337     1.271230951205    -0.143633396361    15.994914619570
         N           -0.638201526663    -0.782714048795    -0.302791396361    14.003074004430
         C           -1.956391526663    -0.240646048795    -0.599238396361    12.000000000000
         C            1.686261473337    -0.647972048795     0.435644603639    12.000000000000
         C            0.397332173337     0.053580751205    -0.033190996361    12.000000000000
         C           -2.713266526663     0.189559951205     0.652156603639    12.000000000000
         C            2.928905473337     0.095937951205    -0.040279396361    12.000000000000
         H           -1.805100526663     0.615486951205    -1.260043396361     1.007825032230
         H           -2.511972526663    -1.002167048795    -1.154920396361     1.007825032230
         H            1.663530473337    -0.675258048795     1.532509603639     1.007825032230
         H            1.698732473337    -1.689209048795     0.093100603639     1.007825032230
         H           -0.556313526663    -1.764180048795    -0.071588396361     1.007825032230
         H           -2.859307526663    -0.656142048795     1.330296603639     1.007825032230
         H           -2.147751526663     0.965320951205     1.172318603639     1.007825032230
         H           -3.696207526663     0.592853951205     0.389627603639     1.007825032230
         H            2.880405473337     1.138626951205     0.275684603639     1.007825032230
         H            3.834451473337    -0.360357048795     0.368234603639     1.007825032230
         H            2.996423473337     0.078241951205    -1.130998396361     1.007825032230

  Basis Set: AUG-CC-PVTZ
    Blend: AUG-CC-PVTZ
  Basis Set: (AUG-CC-PVTZ AUX)
    Blend: AUG-CC-PVTZ-JKFIT
	 Reference Energy          =    -325.2001667814110988 [Eh]
	 Singles Energy            =      -0.0000000000000000 [Eh]
	 Same-Spin Energy          =      -0.3316598462725733 [Eh]
	 Opposite-Spin Energy      =      -1.1187336648808732 [Eh]
	 Correlation Energy        =      -1.4503935111534465 [Eh]
	 Total Energy              =    -326.6505602925645348 [Eh]

	 ================> DF-SCS-MP2 Energies <==================
	-----------------------------------------------------------
	 SCS Same-Spin Scale       =       0.3333333333333333 [-]
	 SCS Opposite-Spin Scale   =       1.2000000000000000 [-]
	 SCS Same-Spin Energy      =      -0.1105532820908578 [Eh]
	 SCS Opposite-Spin Energy  =      -1.3424803978570479 [Eh]
	 SCS Correlation Energy    =      -1.4530336799479056 [Eh]
	 SCS Total Energy          =    -326.6532004613590061 [Eh]
	-----------------------------------------------------------

  Dipole Moment: [D]
     X:    -0.9169      Y:    -3.3517      Z:     0.3652     Total:     3.4940

*** Psi4 exiting successfully. Buy a developer a beer!
