                               Psi4 1.4a3.dev225

  ==> Input File <==

--------------------------------------------------------------------------
#psi4
#
memory 32 gb

molecule  {
0 1
  O        0.3358460     1.2965490    -0.1579670
  N       -0.6355700    -0.7573960    -0.3171250
  C       -1.9537600    -0.2153280    -0.6135720
  C        1.6888930    -0.6226540     0.4213110
  C        0.4334303     0.0606832    -0.0353514
  C       -2.7106350     0.2148780     0.6378230
  C        2.9315370     0.1212560    -0.0546130
  H       -1.8024690     0.6408050    -1.2743770
  H       -2.5093410    -0.9768490    -1.1692540
  H        1.6661620    -0.6499400     1.5181760
  H        1.7013640    -1.6638910     0.0787670
  H       -0.5536820    -1.7388620    -0.0859220
  H       -2.8566760    -0.6308240     1.3159630
  H       -2.1451200     0.9906390     1.1579850
  H       -3.6935760     0.6181720     0.3752940
  H        2.8830370     1.1639450     0.2613510
  H        3.8370830    -0.3350390     0.3539010
  H        2.9990550     0.1035600    -1.1453320
units angstrom
no_reorient  #important for SAPT in psi4, default
symmetry c1  #important for SAPT in psi4, default
}

set PROPERTIES_ORIGIN ["COM"]
properties('MP2/aug-cc-pvtz', properties = ['dipole'])
--------------------------------------------------------------------------

    Molecular point group: c1
  Charge       = 0
  Multiplicity = 1
  Basis Set: AUG-CC-PVTZ
    Blend: AUG-CC-PVTZ
  Basis Set: (AUG-CC-PVTZ AUX)
    Blend: AUG-CC-PVTZ-JKFIT

    Orbital Energies [Eh]
    ---------------------

    Doubly Occupied:

       1A    -20.511431     2A    -15.582688     3A    -11.346812
       4A    -11.261480     5A    -11.241671     6A    -11.217383
       7A    -11.214459     8A     -1.361505     9A     -1.222640
      10A     -1.060823    11A     -1.008690    12A     -0.897705
      13A     -0.839173    14A     -0.775545    15A     -0.693683
      16A     -0.656148    17A     -0.621655    18A     -0.605720
      19A     -0.590812    20A     -0.579212    21A     -0.532192
      22A     -0.527694    23A     -0.515120    24A     -0.505118
      25A     -0.495586    26A     -0.481083    27A     -0.418682
      28A     -0.386621

  @DF-RHF Final Energy:  -325.19777739493458

   => Energetics <=

    Nuclear Repulsion Energy =            313.8713713305866122
    One-Electron Energy =               -1063.8356357501882030
    Two-Electron Energy =                 424.7664870246670148
    Total Energy =                       -325.1977773949345760
  Basis Set: (AUG-CC-PVTZ AUX)
    Blend: AUG-CC-PVTZ-RI
    Molecular point group: c1

    Geometry (in Angstrom), charge = 0, multiplicity = 1:

       Center              X                  Y                   Z               Mass
    ------------   -----------------  -----------------  -----------------  -----------------
         O            0.329241550364     1.273393381081    -0.145078514357    15.994914619570
         N           -0.642174449636    -0.780551618919    -0.304236514357    14.003074004430
         C           -1.960364449636    -0.238483618919    -0.600683514357    12.000000000000
         C            1.682288550364    -0.645809618919     0.434199485643    12.000000000000
         C            0.426825850364     0.037527581081    -0.022462914357    12.000000000000
         C           -2.717239449636     0.191722381081     0.650711485643    12.000000000000
         C            2.924932550364     0.098100381081    -0.041724514357    12.000000000000
         H           -1.809073449636     0.617649381081    -1.261488514357     1.007825032230
         H           -2.515945449636    -1.000004618919    -1.156365514357     1.007825032230
         H            1.659557550364    -0.673095618919     1.531064485643     1.007825032230
         H            1.694759550364    -1.687046618919     0.091655485643     1.007825032230
         H           -0.560286449636    -1.762017618919    -0.073033514357     1.007825032230
         H           -2.863280449636    -0.653979618919     1.328851485643     1.007825032230
         H           -2.151724449636     0.967483381081     1.170873485643     1.007825032230
         H           -3.700180449636     0.595016381081     0.388182485643     1.007825032230
         H            2.876432550364     1.140789381081     0.274239485643     1.007825032230
         H            3.830478550364    -0.358194618919     0.366789485643     1.007825032230
         H            2.992450550364     0.080404381081    -1.132443514357     1.007825032230

  Basis Set: AUG-CC-PVTZ
    Blend: AUG-CC-PVTZ
  Basis Set: (AUG-CC-PVTZ AUX)
    Blend: AUG-CC-PVTZ-JKFIT
	 Reference Energy          =    -325.1977773949345760 [Eh]
	 Singles Energy            =      -0.0000000000000000 [Eh]
	 Same-Spin Energy          =      -0.3323319745137554 [Eh]
	 Opposite-Spin Energy      =      -1.1200206657393958 [Eh]
	 Correlation Energy        =      -1.4523526402531513 [Eh]
	 Total Energy              =    -326.6501300351877148 [Eh]

	 ================> DF-SCS-MP2 Energies <==================
	-----------------------------------------------------------
	 SCS Same-Spin Scale       =       0.3333333333333333 [-]
	 SCS Opposite-Spin Scale   =       1.2000000000000000 [-]
	 SCS Same-Spin Energy      =      -0.1107773248379185 [Eh]
	 SCS Opposite-Spin Energy  =      -1.3440247988872749 [Eh]
	 SCS Correlation Energy    =      -1.4548021237251934 [Eh]
	 SCS Total Energy          =    -326.6525795186597634 [Eh]
	-----------------------------------------------------------

  Dipole Moment: [D]
     X:    -0.7247      Y:    -3.4146      Z:     0.4200     Total:     3.5158

*** Psi4 exiting successfully. Buy a developer a beer!
