                               Psi4 1.3.2 release

  ==> Input File <==

--------------------------------------------------------------------------
#psi4
#
memory 32 gb

molecule  {
0 1
  O        0.3109550    -0.6942360     1.0654250
  N       -0.6919670     0.7804610    -0.3498900
  C       -2.0331630     0.4428770     0.0915860
  C        1.7355170     0.5659250    -0.4538020
  C        0.4323035     0.1193679     0.2046962
  C       -2.5721020    -0.8329900    -0.5555930
  C        2.8458819    -0.3507859     0.0545296
  H       -1.9910630     0.3248240     1.1818950
  H       -2.6829100     1.2983230    -0.1207890
  H        1.6432190     0.5393270    -1.5482860
  H        1.9198310     1.6196100    -0.1921910
  H       -0.5759590     1.3845000    -1.1569370
  H       -2.6081430    -0.7287990    -1.6478990
  H       -1.9207320    -1.6762470    -0.2982990
  H       -3.5840310    -1.0569410    -0.1969260
  H        2.7105400    -1.3693420    -0.2530710
  H        3.8280690     0.0048160    -0.4188000
  H        2.9664850    -0.2871200     1.1156770
units angstrom
no_reorient  #important for SAPT in psi4, default
symmetry c1  #important for SAPT in psi4, default
}

set PROPERTIES_ORIGIN ["COM"]
properties('MP2/aug-cc-pvtz', properties = ['dipole'])
--------------------------------------------------------------------------

    Molecular point group: c1
  Charge       = 0
  Multiplicity = 1
  Basis Set: AUG-CC-PVTZ
    Blend: AUG-CC-PVTZ
  Basis Set: (AUG-CC-PVTZ AUX)
    Blend: AUG-CC-PVTZ-JKFIT

    Orbital Energies [Eh]
    ---------------------

    Doubly Occupied:

       1A    -20.525854     2A    -15.569986     3A    -11.346277
       4A    -11.256917     5A    -11.243069     6A    -11.217912
       7A    -11.211991     8A     -1.399327     9A     -1.211345
      10A     -1.055844    11A     -0.999678    12A     -0.890882
      13A     -0.830914    14A     -0.766842    15A     -0.697067
      16A     -0.646234    17A     -0.638606    18A     -0.613294
      19A     -0.587434    20A     -0.573108    21A     -0.535568
      22A     -0.521555    23A     -0.515524    24A     -0.503139
      25A     -0.501323    26A     -0.486491    27A     -0.420466
      28A     -0.381999

  @DF-RHF Final Energy:  -325.19310897989425

   => Energetics <=

    Nuclear Repulsion Energy =            314.1181847036654631
    One-Electron Energy =               -1064.3252911578792919
    Two-Electron Energy =                 425.0139974743195239
    Total Energy =                       -325.1931089798942480
  Basis Set: (AUG-CC-PVTZ AUX)
    Blend: AUG-CC-PVTZ-RI
    Molecular point group: c1

    Geometry (in Angstrom), charge = 0, multiplicity = 1:

       Center              X                  Y                   Z               Mass
    ------------   -----------------  -----------------  -----------------  -----------------
         O            0.312060195218    -0.686427656816     1.058741893572    15.994914619570
         N           -0.690861804782     0.788269343184    -0.356573106428    14.003074004430
         C           -2.032057804782     0.450685343184     0.084902893572    12.000000000000
         C            1.736622195218     0.573733343184    -0.460485106428    12.000000000000
         C            0.433408695218     0.127176243184     0.198013093572    12.000000000000
         C           -2.570996804782    -0.825181656816    -0.562276106428    12.000000000000
         C            2.846987095218    -0.342977556816     0.047846493572    12.000000000000
         H           -1.989957804782     0.332632343184     1.175211893572     1.007825032230
         H           -2.681804804782     1.306131343184    -0.127472106428     1.007825032230
         H            1.644324195218     0.547135343184    -1.554969106428     1.007825032230
         H            1.920936195218     1.627418343184    -0.198874106428     1.007825032230
         H           -0.574853804782     1.392308343184    -1.163620106428     1.007825032230
         H           -2.607037804782    -0.720990656816    -1.654582106428     1.007825032230
         H           -1.919626804782    -1.668438656816    -0.304982106428     1.007825032230
         H           -3.582925804782    -1.049132656816    -0.203609106428     1.007825032230
         H            2.711645195218    -1.361533656816    -0.259754106428     1.007825032230
         H            3.829174195218     0.012624343184    -0.425483106428     1.007825032230
         H            2.967590195218    -0.279311656816     1.108993893572     1.007825032230

  Basis Set: AUG-CC-PVTZ
    Blend: AUG-CC-PVTZ
  Basis Set: (AUG-CC-PVTZ AUX)
    Blend: AUG-CC-PVTZ-JKFIT
	 Reference Energy          =    -325.1931089798942480 [Eh]
	 Singles Energy            =      -0.0000000000000000 [Eh]
	 Same-Spin Energy          =      -0.3312352395686046 [Eh]
	 Opposite-Spin Energy      =      -1.1183805530253830 [Eh]
	 Correlation Energy        =      -1.4496157925939874 [Eh]
	 Total Energy              =    -326.6427247724882363 [Eh]

	 ================> DF-SCS-MP2 Energies <==================
	-----------------------------------------------------------
	 SCS Same-Spin Scale       =       0.3333333333333333 [-]
	 SCS Opposite-Spin Scale   =       1.2000000000000000 [-]
	 SCS Same-Spin Energy      =      -0.1104117465228682 [Eh]
	 SCS Opposite-Spin Energy  =      -1.3420566636304596 [Eh]
	 SCS Correlation Energy    =      -1.4524684101533278 [Eh]
	 SCS Total Energy          =    -326.6455773900475492 [Eh]
	-----------------------------------------------------------

  Dipole Moment: [D]
     X:    -0.4008      Y:     2.0069      Z:    -2.3344     Total:     3.1045

*** Psi4 exiting successfully. Buy a developer a beer!
