                               Psi4 1.3.2 release

  ==> Input File <==

--------------------------------------------------------------------------
#psi4
#
memory 32 gb

molecule  {
0 1
  O        0.3750561    -0.7017802     1.0627525
  N       -0.6919670     0.7804610    -0.3498900
  C       -2.0331630     0.4428770     0.0915860
  C        1.7720291     0.5133280    -0.4059415
  C        0.4068390     0.1581200     0.1784230
  C       -2.5721020    -0.8329900    -0.5555930
  C        2.8806560    -0.3237650     0.0245060
  H       -1.9910630     0.3248240     1.1818950
  H       -2.6829100     1.2983230    -0.1207890
  H        1.6432190     0.5393270    -1.5482860
  H        1.9198310     1.6196100    -0.1921910
  H       -0.5759590     1.3845000    -1.1569370
  H       -2.6081430    -0.7287990    -1.6478990
  H       -1.9207320    -1.6762470    -0.2982990
  H       -3.5840310    -1.0569410    -0.1969260
  H        2.7105400    -1.3693420    -0.2530710
  H        3.8280690     0.0048160    -0.4188000
  H        2.9664850    -0.2871200     1.1156770
units angstrom
no_reorient  #important for SAPT in psi4, default
symmetry c1  #important for SAPT in psi4, default
}

set PROPERTIES_ORIGIN ["COM"]
properties('MP2/aug-cc-pvtz', properties = ['dipole'])
--------------------------------------------------------------------------

    Molecular point group: c1
  Charge       = 0
  Multiplicity = 1
  Basis Set: AUG-CC-PVTZ
    Blend: AUG-CC-PVTZ
  Basis Set: (AUG-CC-PVTZ AUX)
    Blend: AUG-CC-PVTZ-JKFIT

    Orbital Energies [Eh]
    ---------------------

    Doubly Occupied:

       1A    -20.513243     2A    -15.585209     3A    -11.346079
       4A    -11.265320     5A    -11.244274     6A    -11.216873
       7A    -11.210827     8A     -1.368339     9A     -1.228960
      10A     -1.060298    11A     -1.011372    12A     -0.894436
      13A     -0.834626    14A     -0.777543    15A     -0.689252
      16A     -0.651320    17A     -0.628734    18A     -0.606632
      19A     -0.589442    20A     -0.576141    21A     -0.548555
      22A     -0.521374    23A     -0.513798    24A     -0.507832
      25A     -0.494607    26A     -0.467799    27A     -0.414155
      28A     -0.389144

  @DF-RHF Final Energy:  -325.19006277374149

   => Energetics <=

    Nuclear Repulsion Energy =            313.9788124921446411
    One-Electron Energy =               -1064.0253854996014979
    Two-Electron Energy =                 424.8565102337153121
    Total Energy =                       -325.1900627737414879
  Basis Set: (AUG-CC-PVTZ AUX)
    Blend: AUG-CC-PVTZ-RI
    Molecular point group: c1

    Geometry (in Angstrom), charge = 0, multiplicity = 1:

       Center              X                  Y                   Z               Mass
    ------------   -----------------  -----------------  -----------------  -----------------
         O            0.360578700301    -0.694342272920     1.057493772486    15.994914619570
         N           -0.706444399699     0.787898927080    -0.355148727514    14.003074004430
         C           -2.047640399699     0.450314927080     0.086327272486    12.000000000000
         C            1.757551700301     0.520765927080    -0.411200227514    12.000000000000
         C            0.392361600301     0.165557927080     0.173164272486    12.000000000000
         C           -2.586579399699    -0.825552072920    -0.560851727514    12.000000000000
         C            2.866178600301    -0.316327072920     0.019247272486    12.000000000000
         H           -2.005540399699     0.332261927080     1.176636272486     1.007825032230
         H           -2.697387399699     1.305760927080    -0.126047727514     1.007825032230
         H            1.628741600301     0.546764927080    -1.553544727514     1.007825032230
         H            1.905353600301     1.627047927080    -0.197449727514     1.007825032230
         H           -0.590436399699     1.391937927080    -1.162195727514     1.007825032230
         H           -2.622620399699    -0.721361072920    -1.653157727514     1.007825032230
         H           -1.935209399699    -1.668809072920    -0.303557727514     1.007825032230
         H           -3.598508399699    -1.049503072920    -0.202184727514     1.007825032230
         H            2.696062600301    -1.361904072920    -0.258329727514     1.007825032230
         H            3.813591600301     0.012253927080    -0.424058727514     1.007825032230
         H            2.952007600301    -0.279682072920     1.110418272486     1.007825032230

  Basis Set: AUG-CC-PVTZ
    Blend: AUG-CC-PVTZ
  Basis Set: (AUG-CC-PVTZ AUX)
    Blend: AUG-CC-PVTZ-JKFIT
	 Reference Energy          =    -325.1900627737414879 [Eh]
	 Singles Energy            =      -0.0000000000000000 [Eh]
	 Same-Spin Energy          =      -0.3323436915536067 [Eh]
	 Opposite-Spin Energy      =      -1.1200082245026914 [Eh]
	 Correlation Energy        =      -1.4523519160562981 [Eh]
	 Total Energy              =    -326.6424146897977607 [Eh]

	 ================> DF-SCS-MP2 Energies <==================
	-----------------------------------------------------------
	 SCS Same-Spin Scale       =       0.3333333333333333 [-]
	 SCS Opposite-Spin Scale   =       1.2000000000000000 [-]
	 SCS Same-Spin Energy      =      -0.1107812305178689 [Eh]
	 SCS Opposite-Spin Energy  =      -1.3440098694032296 [Eh]
	 SCS Correlation Energy    =      -1.4547910999210985 [Eh]
	 SCS Total Energy          =    -326.6448538736626119 [Eh]
	-----------------------------------------------------------

  Dipole Moment: [D]
     X:    -0.8838      Y:     2.2270      Z:    -2.5467     Total:     3.4966

*** Psi4 exiting successfully. Buy a developer a beer!
