                               Psi4 1.3.2 release

  ==> Input File <==

--------------------------------------------------------------------------
#psi4
#
memory 32 gb

molecule  {
0 1
  O        0.3109550    -0.6942360     1.0654250
  N       -0.6919670     0.7804610    -0.3498900
  C       -1.9407803     0.4661301     0.0611767
  C        1.7355170     0.5659250    -0.4538020
  C        0.4068390     0.1581200     0.1784230
  C       -2.5721020    -0.8329900    -0.5555930
  C        2.8806560    -0.3237650     0.0245060
  H       -1.9910630     0.3248240     1.1818950
  H       -2.6829100     1.2983230    -0.1207890
  H        1.6432190     0.5393270    -1.5482860
  H        1.9198310     1.6196100    -0.1921910
  H       -0.5759590     1.3845000    -1.1569370
  H       -2.6081430    -0.7287990    -1.6478990
  H       -1.9207320    -1.6762470    -0.2982990
  H       -3.5840310    -1.0569410    -0.1969260
  H        2.7105400    -1.3693420    -0.2530710
  H        3.8280690     0.0048160    -0.4188000
  H        2.9664850    -0.2871200     1.1156770
units angstrom
no_reorient  #important for SAPT in psi4, default
symmetry c1  #important for SAPT in psi4, default
}

set PROPERTIES_ORIGIN ["COM"]
properties('MP2/aug-cc-pvtz', properties = ['dipole'])
--------------------------------------------------------------------------

    Molecular point group: c1
  Charge       = 0
  Multiplicity = 1
  Basis Set: AUG-CC-PVTZ
    Blend: AUG-CC-PVTZ
  Basis Set: (AUG-CC-PVTZ AUX)
    Blend: AUG-CC-PVTZ-JKFIT

    Orbital Energies [Eh]
    ---------------------

    Doubly Occupied:

       1A    -20.519301     2A    -15.584756     3A    -11.350291
       4A    -11.261074     5A    -11.245637     6A    -11.218285
       7A    -11.212504     8A     -1.376095     9A     -1.251051
      10A     -1.057741    11A     -0.996098    12A     -0.901746
      13A     -0.835392    14A     -0.786226    15A     -0.697715
      16A     -0.664244    17A     -0.639045    18A     -0.604295
      19A     -0.587217    20A     -0.573851    21A     -0.534907
      22A     -0.520264    23A     -0.516635    24A     -0.505565
      25A     -0.488581    26A     -0.473507    27A     -0.423699
      28A     -0.380929

  @DF-RHF Final Energy:  -325.18634844471620

   => Energetics <=

    Nuclear Repulsion Energy =            315.0369684357218603
    One-Electron Energy =               -1066.0333305064841625
    Two-Electron Energy =                 425.8100136260460999
    Total Energy =                       -325.1863484447162023
  Basis Set: (AUG-CC-PVTZ AUX)
    Blend: AUG-CC-PVTZ-RI
    Molecular point group: c1

    Geometry (in Angstrom), charge = 0, multiplicity = 1:

       Center              X                  Y                   Z               Mass
    ------------   -----------------  -----------------  -----------------  -----------------
         O            0.299987989650    -0.696996218842     1.069035041266    15.994914619570
         N           -0.702934010350     0.777700781158    -0.346279958734    14.003074004430
         C           -1.951747310350     0.463369881158     0.064786741266    12.000000000000
         C            1.724549989650     0.563164781158    -0.450191958734    12.000000000000
         C            0.395871989650     0.155359781158     0.182033041266    12.000000000000
         C           -2.583069010350    -0.835750218842    -0.551982958734    12.000000000000
         C            2.869688989650    -0.326525218842     0.028116041266    12.000000000000
         H           -2.002030010350     0.322063781158     1.185505041266     1.007825032230
         H           -2.693877010350     1.295562781158    -0.117178958734     1.007825032230
         H            1.632251989650     0.536566781158    -1.544675958734     1.007825032230
         H            1.908863989650     1.616849781158    -0.188580958734     1.007825032230
         H           -0.586926010350     1.381739781158    -1.153326958734     1.007825032230
         H           -2.619110010350    -0.731559218842    -1.644288958734     1.007825032230
         H           -1.931699010350    -1.679007218842    -0.294688958734     1.007825032230
         H           -3.594998010350    -1.059701218842    -0.193315958734     1.007825032230
         H            2.699572989650    -1.372102218842    -0.249460958734     1.007825032230
         H            3.817101989650     0.002055781158    -0.415189958734     1.007825032230
         H            2.955517989650    -0.289880218842     1.119287041266     1.007825032230

  Basis Set: AUG-CC-PVTZ
    Blend: AUG-CC-PVTZ
  Basis Set: (AUG-CC-PVTZ AUX)
    Blend: AUG-CC-PVTZ-JKFIT
	 Reference Energy          =    -325.1863484447162023 [Eh]
	 Singles Energy            =      -0.0000000000000000 [Eh]
	 Same-Spin Energy          =      -0.3326895366480832 [Eh]
	 Opposite-Spin Energy      =      -1.1201695895348385 [Eh]
	 Correlation Energy        =      -1.4528591261829216 [Eh]
	 Total Energy              =    -326.6392075708991456 [Eh]

	 ================> DF-SCS-MP2 Energies <==================
	-----------------------------------------------------------
	 SCS Same-Spin Scale       =       0.3333333333333333 [-]
	 SCS Opposite-Spin Scale   =       1.2000000000000000 [-]
	 SCS Same-Spin Energy      =      -0.1108965122160277 [Eh]
	 SCS Opposite-Spin Energy  =      -1.3442035074418062 [Eh]
	 SCS Correlation Energy    =      -1.4551000196578339 [Eh]
	 SCS Total Energy          =    -326.6414484643740366 [Eh]
	-----------------------------------------------------------

  Dipole Moment: [D]
     X:    -0.3576      Y:     2.3136      Z:    -2.5853     Total:     3.4877

*** Psi4 exiting successfully. Buy a developer a beer!
