                               Psi4 1.3.2 release

  ==> Input File <==

--------------------------------------------------------------------------
#psi4
#
memory 32 gb

molecule  {
0 1
  O        0.3109550    -0.6942360     1.0654250
  N       -0.6945227     0.8413887    -0.3045219
  C       -2.0331630     0.4428770     0.0915860
  C        1.7355170     0.5659250    -0.4538020
  C        0.4068390     0.1581200     0.1784230
  C       -2.6396893    -0.8230879    -0.5138818
  C        2.8806560    -0.3237650     0.0245060
  H       -1.9910630     0.3248240     1.1818950
  H       -2.6829100     1.2983230    -0.1207890
  H        1.6432190     0.5393270    -1.5482860
  H        1.9198310     1.6196100    -0.1921910
  H       -0.5759590     1.3845000    -1.1569370
  H       -2.6081430    -0.7287990    -1.6478990
  H       -1.9207320    -1.6762470    -0.2982990
  H       -3.5840310    -1.0569410    -0.1969260
  H        2.7105400    -1.3693420    -0.2530710
  H        3.8280690     0.0048160    -0.4188000
  H        2.9664850    -0.2871200     1.1156770
units angstrom
no_reorient  #important for SAPT in psi4, default
symmetry c1  #important for SAPT in psi4, default
}

set PROPERTIES_ORIGIN ["COM"]
properties('MP2/aug-cc-pvtz', properties = ['dipole'])
--------------------------------------------------------------------------

    Molecular point group: c1
  Charge       = 0
  Multiplicity = 1
  Basis Set: AUG-CC-PVTZ
    Blend: AUG-CC-PVTZ
  Basis Set: (AUG-CC-PVTZ AUX)
    Blend: AUG-CC-PVTZ-JKFIT

    Orbital Energies [Eh]
    ---------------------

    Doubly Occupied:

       1A    -20.518654     2A    -15.582945     3A    -11.349050
       4A    -11.261187     5A    -11.243962     6A    -11.217344
       7A    -11.217129     8A     -1.370397     9A     -1.223021
      10A     -1.055038    11A     -1.006939    12A     -0.896377
      13A     -0.836053    14A     -0.772992    15A     -0.692198
      16A     -0.646565    17A     -0.634422    18A     -0.605312
      19A     -0.592806    20A     -0.574914    21A     -0.542704
      22A     -0.518226    23A     -0.515375    24A     -0.507543
      25A     -0.489286    26A     -0.474128    27A     -0.421920
      28A     -0.388442

  @DF-RHF Final Energy:  -325.18880751790618

   => Energetics <=

    Nuclear Repulsion Energy =            312.7312026924956854
    One-Electron Energy =               -1061.5301635865771459
    Two-Electron Energy =                 423.6101533761752762
    Total Energy =                       -325.1888075179061843
  Basis Set: (AUG-CC-PVTZ AUX)
    Blend: AUG-CC-PVTZ-RI
    Molecular point group: c1

    Geometry (in Angstrom), charge = 0, multiplicity = 1:

       Center              X                  Y                   Z               Mass
    ------------   -----------------  -----------------  -----------------  -----------------
         O            0.319332558708    -0.703851533763     1.054188597596    15.994914619570
         N           -0.686145141292     0.831773166237    -0.315758302404    14.003074004430
         C           -2.024785441292     0.433261466237     0.080349597596    12.000000000000
         C            1.743894558708     0.556309466237    -0.465038402404    12.000000000000
         C            0.415216558708     0.148504466237     0.167186597596    12.000000000000
         C           -2.631311741292    -0.832703433763    -0.525118202404    12.000000000000
         C            2.889033558708    -0.333380533763     0.013269597596    12.000000000000
         H           -1.982685441292     0.315208466237     1.170658597596     1.007825032230
         H           -2.674532441292     1.288707466237    -0.132025402404     1.007825032230
         H            1.651596558708     0.529711466237    -1.559522402404     1.007825032230
         H            1.928208558708     1.609994466237    -0.203427402404     1.007825032230
         H           -0.567581441292     1.374884466237    -1.168173402404     1.007825032230
         H           -2.599765441292    -0.738414533763    -1.659135402404     1.007825032230
         H           -1.912354441292    -1.685862533763    -0.309535402404     1.007825032230
         H           -3.575653441292    -1.066556533763    -0.208162402404     1.007825032230
         H            2.718917558708    -1.378957533763    -0.264307402404     1.007825032230
         H            3.836446558708    -0.004799533763    -0.430036402404     1.007825032230
         H            2.974862558708    -0.296735533763     1.104440597596     1.007825032230

  Basis Set: AUG-CC-PVTZ
    Blend: AUG-CC-PVTZ
  Basis Set: (AUG-CC-PVTZ AUX)
    Blend: AUG-CC-PVTZ-JKFIT
	 Reference Energy          =    -325.1888075179061843 [Eh]
	 Singles Energy            =      -0.0000000000000000 [Eh]
	 Same-Spin Energy          =      -0.3318992236743690 [Eh]
	 Opposite-Spin Energy      =      -1.1200466006642951 [Eh]
	 Correlation Energy        =      -1.4519458243386640 [Eh]
	 Total Energy              =    -326.6407533422448637 [Eh]

	 ================> DF-SCS-MP2 Energies <==================
	-----------------------------------------------------------
	 SCS Same-Spin Scale       =       0.3333333333333333 [-]
	 SCS Opposite-Spin Scale   =       1.2000000000000000 [-]
	 SCS Same-Spin Energy      =      -0.1106330745581230 [Eh]
	 SCS Opposite-Spin Energy  =      -1.3440559207971541 [Eh]
	 SCS Correlation Energy    =      -1.4546889953552771 [Eh]
	 SCS Total Energy          =    -326.6434965132614821 [Eh]
	-----------------------------------------------------------

  Dipole Moment: [D]
     X:    -0.5958      Y:     2.0534      Z:    -2.5868     Total:     3.3560

*** Psi4 exiting successfully. Buy a developer a beer!
