                               Psi4 1.3.2 release

  ==> Input File <==

--------------------------------------------------------------------------
#psi4
#
memory 32 gb

molecule  {
0 1
  O        0.3109550    -0.6942360     1.0654250
  N       -0.6919670     0.7804610    -0.3498900
  C       -2.0331630     0.4428770     0.0915860
  C        1.7355170     0.5659250    -0.4538020
  C        0.4068390     0.1581200     0.1784230
  C       -2.5709018    -0.8273297    -0.5676139
  C        2.8806560    -0.3237650     0.0245060
  H       -1.9876032     0.3337198     1.1826825
  H       -2.6829100     1.2983230    -0.1207890
  H        1.6432190     0.5393270    -1.5482860
  H        1.9198310     1.6196100    -0.1921910
  H       -0.5759590     1.3845000    -1.1569370
  H       -2.6081430    -0.7287990    -1.6478990
  H       -1.9207320    -1.6762470    -0.2982990
  H       -3.5840310    -1.0569410    -0.1969260
  H        2.7105400    -1.3693420    -0.2530710
  H        3.8280690     0.0048160    -0.4188000
  H        2.9664850    -0.2871200     1.1156770
units angstrom
no_reorient  #important for SAPT in psi4, default
symmetry c1  #important for SAPT in psi4, default
}

set PROPERTIES_ORIGIN ["COM"]
properties('MP2/aug-cc-pvtz', properties = ['dipole'])
--------------------------------------------------------------------------

    Molecular point group: c1
  Charge       = 0
  Multiplicity = 1
  Basis Set: AUG-CC-PVTZ
    Blend: AUG-CC-PVTZ
  Basis Set: (AUG-CC-PVTZ AUX)
    Blend: AUG-CC-PVTZ-JKFIT

    Orbital Energies [Eh]
    ---------------------

    Doubly Occupied:

       1A    -20.514175     2A    -15.580708     3A    -11.345956
       4A    -11.262229     5A    -11.242532     6A    -11.216067
       7A    -11.215116     8A     -1.368738     9A     -1.225036
      10A     -1.054431    11A     -1.006136    12A     -0.894193
      13A     -0.836286    14A     -0.776338    15A     -0.692172
      16A     -0.648312    17A     -0.633837    18A     -0.604795
      19A     -0.587550    20A     -0.574192    21A     -0.533604
      22A     -0.514669    23A     -0.513447    24A     -0.511122
      25A     -0.495355    26A     -0.483027    27A     -0.418375
      28A     -0.386347

  @DF-RHF Final Energy:  -325.19815858794283

   => Energetics <=

    Nuclear Repulsion Energy =            313.6814758775205974
    One-Electron Energy =               -1063.4897817382388894
    Two-Electron Energy =                 424.6101472727754640
    Total Energy =                       -325.1981585879428280
  Basis Set: (AUG-CC-PVTZ AUX)
    Blend: AUG-CC-PVTZ-RI
    Molecular point group: c1

    Geometry (in Angstrom), charge = 0, multiplicity = 1:

       Center              X                  Y                   Z               Mass
    ------------   -----------------  -----------------  -----------------  -----------------
         O            0.310778049765    -0.694996416083     1.066844246263    15.994914619570
         N           -0.692143950235     0.779700583917    -0.348470753737    14.003074004430
         C           -2.033339950235     0.442116583917     0.093005246263    12.000000000000
         C            1.735340049765     0.565164583917    -0.452382753737    12.000000000000
         C            0.406662049765     0.157359583917     0.179842246263    12.000000000000
         C           -2.571078750235    -0.828090116083    -0.566194653737    12.000000000000
         C            2.880479049765    -0.324525416083     0.025925246263    12.000000000000
         H           -1.987780150235     0.332959383917     1.184101746263     1.007825032230
         H           -2.683086950235     1.297562583917    -0.119369753737     1.007825032230
         H            1.643042049765     0.538566583917    -1.546866753737     1.007825032230
         H            1.919654049765     1.618849583917    -0.190771753737     1.007825032230
         H           -0.576135950235     1.383739583917    -1.155517753737     1.007825032230
         H           -2.608319950235    -0.729559416083    -1.646479753737     1.007825032230
         H           -1.920908950235    -1.677007416083    -0.296879753737     1.007825032230
         H           -3.584207950235    -1.057701416083    -0.195506753737     1.007825032230
         H            2.710363049765    -1.370102416083    -0.251651753737     1.007825032230
         H            3.827892049765     0.004055583917    -0.417380753737     1.007825032230
         H            2.966308049765    -0.287880416083     1.117096246263     1.007825032230

  Basis Set: AUG-CC-PVTZ
    Blend: AUG-CC-PVTZ
  Basis Set: (AUG-CC-PVTZ AUX)
    Blend: AUG-CC-PVTZ-JKFIT
	 Reference Energy          =    -325.1981585879428280 [Eh]
	 Singles Energy            =      -0.0000000000000000 [Eh]
	 Same-Spin Energy          =      -0.3318492980549366 [Eh]
	 Opposite-Spin Energy      =      -1.1194624128838186 [Eh]
	 Correlation Energy        =      -1.4513117109387552 [Eh]
	 Total Energy              =    -326.6494702988815675 [Eh]

	 ================> DF-SCS-MP2 Energies <==================
	-----------------------------------------------------------
	 SCS Same-Spin Scale       =       0.3333333333333333 [-]
	 SCS Opposite-Spin Scale   =       1.2000000000000000 [-]
	 SCS Same-Spin Energy      =      -0.1106164326849789 [Eh]
	 SCS Opposite-Spin Energy  =      -1.3433548954605823 [Eh]
	 SCS Correlation Energy    =      -1.4539713281455611 [Eh]
	 SCS Total Energy          =    -326.6521299160883700 [Eh]
	-----------------------------------------------------------

  Dipole Moment: [D]
     X:    -0.7047      Y:     2.2484      Z:    -2.5870     Total:     3.4992

*** Psi4 exiting successfully. Buy a developer a beer!
