                               Psi4 1.4a3.dev225

  ==> Input File <==

--------------------------------------------------------------------------
#psi4
#
memory 32 gb

molecule  {
0 1
  O        0.3358460     1.2965490    -0.1579670
  N       -0.6355700    -0.7573960    -0.3171250
  C       -1.9084862    -0.2339456    -0.6033904
  C        1.6888930    -0.6226540     0.4213110
  C        0.4166970     0.0697910    -0.0414380
  C       -2.7106350     0.2148780     0.6378230
  C        2.9315370     0.1212560    -0.0546130
  H       -1.8024690     0.6408050    -1.2743770
  H       -2.5093410    -0.9768490    -1.1692540
  H        1.6661620    -0.6499400     1.5181760
  H        1.7013640    -1.6638910     0.0787670
  H       -0.5536820    -1.7388620    -0.0859220
  H       -2.8566760    -0.6308240     1.3159630
  H       -2.1451200     0.9906390     1.1579850
  H       -3.6935760     0.6181720     0.3752940
  H        2.8830370     1.1639450     0.2613510
  H        3.8370830    -0.3350390     0.3539010
  H        2.9990550     0.1035600    -1.1453320
units angstrom
no_reorient  #important for SAPT in psi4, default
symmetry c1  #important for SAPT in psi4, default
}

set PROPERTIES_ORIGIN ["COM"]
properties('MP2/aug-cc-pvtz', properties = ['dipole'])
--------------------------------------------------------------------------

    Molecular point group: c1
  Charge       = 0
  Multiplicity = 1
  Basis Set: AUG-CC-PVTZ
    Blend: AUG-CC-PVTZ
  Basis Set: (AUG-CC-PVTZ AUX)
    Blend: AUG-CC-PVTZ-JKFIT

    Orbital Energies [Eh]
    ---------------------

    Doubly Occupied:

       1A    -20.514483     2A    -15.585138     3A    -11.347315
       4A    -11.260815     5A    -11.242016     6A    -11.217149
       7A    -11.213874     8A     -1.371159     9A     -1.238490
      10A     -1.058207    11A     -1.004032    12A     -0.898914
      13A     -0.837904    14A     -0.783447    15A     -0.695192
      16A     -0.662349    17A     -0.624585    18A     -0.603624
      19A     -0.593989    20A     -0.580544    21A     -0.530894
      22A     -0.529358    23A     -0.516270    24A     -0.504787
      25A     -0.490628    26A     -0.480626    27A     -0.419639
      28A     -0.386867

  @DF-RHF Final Energy:  -325.19687710800429

   => Energetics <=

    Nuclear Repulsion Energy =            314.6639918917814498
    One-Electron Energy =               -1065.3371484313095152
    Two-Electron Energy =                 425.4762794315237215
    Total Energy =                       -325.1968771080042870
  Basis Set: (AUG-CC-PVTZ AUX)
    Blend: AUG-CC-PVTZ-RI
    Molecular point group: c1

    Geometry (in Angstrom), charge = 0, multiplicity = 1:

       Center              X                  Y                   Z               Mass
    ------------   -----------------  -----------------  -----------------  -----------------
         O            0.325853419866     1.274522318675    -0.145564644397    15.994914619570
         N           -0.645562580134    -0.779422681325    -0.304722644397    14.003074004430
         C           -1.918478780134    -0.255972281325    -0.590988044397    12.000000000000
         C            1.678900419866    -0.644680681325     0.433713355603    12.000000000000
         C            0.406704419866     0.047764318675    -0.029035644397    12.000000000000
         C           -2.720627580134     0.192851318675     0.650225355603    12.000000000000
         C            2.921544419866     0.099229318675    -0.042210644397    12.000000000000
         H           -1.812461580134     0.618778318675    -1.261974644397     1.007825032230
         H           -2.519333580134    -0.998875681325    -1.156851644397     1.007825032230
         H            1.656169419866    -0.671966681325     1.530578355603     1.007825032230
         H            1.691371419866    -1.685917681325     0.091169355603     1.007825032230
         H           -0.563674580134    -1.760888681325    -0.073519644397     1.007825032230
         H           -2.866668580134    -0.652850681325     1.328365355603     1.007825032230
         H           -2.155112580134     0.968612318675     1.170387355603     1.007825032230
         H           -3.703568580134     0.596145318675     0.387696355603     1.007825032230
         H            2.873044419866     1.141918318675     0.273753355603     1.007825032230
         H            3.827090419866    -0.357065681325     0.366303355603     1.007825032230
         H            2.989062419866     0.081533318675    -1.132929644397     1.007825032230

  Basis Set: AUG-CC-PVTZ
    Blend: AUG-CC-PVTZ
  Basis Set: (AUG-CC-PVTZ AUX)
    Blend: AUG-CC-PVTZ-JKFIT
	 Reference Energy          =    -325.1968771080042870 [Eh]
	 Singles Energy            =      -0.0000000000000000 [Eh]
	 Same-Spin Energy          =      -0.3322749214807528 [Eh]
	 Opposite-Spin Energy      =      -1.1194809171136599 [Eh]
	 Correlation Energy        =      -1.4517558385944127 [Eh]
	 Total Energy              =    -326.6486329465986955 [Eh]

	 ================> DF-SCS-MP2 Energies <==================
	-----------------------------------------------------------
	 SCS Same-Spin Scale       =       0.3333333333333333 [-]
	 SCS Opposite-Spin Scale   =       1.2000000000000000 [-]
	 SCS Same-Spin Energy      =      -0.1107583071602509 [Eh]
	 SCS Opposite-Spin Energy  =      -1.3433771005363919 [Eh]
	 SCS Correlation Energy    =      -1.4541354076966428 [Eh]
	 SCS Total Energy          =    -326.6510125157009270 [Eh]
	-----------------------------------------------------------

  Dipole Moment: [D]
     X:    -0.6544      Y:    -3.4054      Z:     0.3962     Total:     3.4903

*** Psi4 exiting successfully. Buy a developer a beer!
