                               Psi4 1.3.2 release

  ==> Input File <==

--------------------------------------------------------------------------
#psi4
#
memory 32 gb

molecule  {
0 1
  O        0.3109550    -0.6942360     1.0654250
  N       -0.6919670     0.7804610    -0.3498900
  C       -2.0604089     0.4852666     0.0346847
  C        1.7355170     0.5659250    -0.4538020
  C        0.4068390     0.1581200     0.1784230
  C       -2.5721020    -0.8329900    -0.5555930
  C        2.8806560    -0.3237650     0.0245060
  H       -1.9910630     0.3248240     1.1818950
  H       -2.6829100     1.2983230    -0.1207890
  H        1.6432190     0.5393270    -1.5482860
  H        1.9198310     1.6196100    -0.1921910
  H       -0.6288753     1.3871181    -1.1608354
  H       -2.6081430    -0.7287990    -1.6478990
  H       -1.9207320    -1.6762470    -0.2982990
  H       -3.5840310    -1.0569410    -0.1969260
  H        2.7105400    -1.3693420    -0.2530710
  H        3.8280690     0.0048160    -0.4188000
  H        2.9664850    -0.2871200     1.1156770
units angstrom
no_reorient  #important for SAPT in psi4, default
symmetry c1  #important for SAPT in psi4, default
}

set PROPERTIES_ORIGIN ["COM"]
properties('MP2/aug-cc-pvtz', properties = ['dipole'])
--------------------------------------------------------------------------

    Molecular point group: c1
  Charge       = 0
  Multiplicity = 1
  Basis Set: AUG-CC-PVTZ
    Blend: AUG-CC-PVTZ
  Basis Set: (AUG-CC-PVTZ AUX)
    Blend: AUG-CC-PVTZ-JKFIT

    Orbital Energies [Eh]
    ---------------------

    Doubly Occupied:

       1A    -20.515090     2A    -15.581362     3A    -11.348490
       4A    -11.261762     5A    -11.242786     6A    -11.216129
       7A    -11.215614     8A     -1.368827     9A     -1.225330
      10A     -1.054449    11A     -1.005794    12A     -0.895969
      13A     -0.838038    14A     -0.775832    15A     -0.695666
      16A     -0.648598    17A     -0.633927    18A     -0.606906
      19A     -0.586405    20A     -0.569460    21A     -0.534586
      22A     -0.522840    23A     -0.514261    24A     -0.510264
      25A     -0.492862    26A     -0.473441    27A     -0.419666
      28A     -0.385258

  @DF-RHF Final Energy:  -325.18995081732083

   => Energetics <=

    Nuclear Repulsion Energy =            313.2765441045565922
    One-Electron Energy =               -1062.6537642814755600
    Two-Electron Energy =                 424.1872693595981332
    Total Energy =                       -325.1899508173208346
  Basis Set: (AUG-CC-PVTZ AUX)
    Blend: AUG-CC-PVTZ-RI
    Molecular point group: c1

    Geometry (in Angstrom), charge = 0, multiplicity = 1:

       Center              X                  Y                   Z               Mass
    ------------   -----------------  -----------------  -----------------  -----------------
         O            0.314717052899    -0.699294074484     1.072218855731    15.994914619570
         N           -0.688204947101     0.775402925516    -0.343096144269    14.003074004430
         C           -2.056646847101     0.480208525516     0.041478555731    12.000000000000
         C            1.739279052899     0.560866925516    -0.447008144269    12.000000000000
         C            0.410601052899     0.153061925516     0.185216855731    12.000000000000
         C           -2.568339947101    -0.838048074484    -0.548799144269    12.000000000000
         C            2.884418052899    -0.328823074484     0.031299855731    12.000000000000
         H           -1.987300947101     0.319765925516     1.188688855731     1.007825032230
         H           -2.679147947101     1.293264925516    -0.113995144269     1.007825032230
         H            1.646981052899     0.534268925516    -1.541492144269     1.007825032230
         H            1.923593052899     1.614551925516    -0.185397144269     1.007825032230
         H           -0.625113247101     1.382060025516    -1.154041544269     1.007825032230
         H           -2.604380947101    -0.733857074484    -1.641105144269     1.007825032230
         H           -1.916969947101    -1.681305074484    -0.291505144269     1.007825032230
         H           -3.580268947101    -1.061999074484    -0.190132144269     1.007825032230
         H            2.714302052899    -1.374400074484    -0.246277144269     1.007825032230
         H            3.831831052899    -0.000242074484    -0.412006144269     1.007825032230
         H            2.970247052899    -0.292178074484     1.122470855731     1.007825032230

  Basis Set: AUG-CC-PVTZ
    Blend: AUG-CC-PVTZ
  Basis Set: (AUG-CC-PVTZ AUX)
    Blend: AUG-CC-PVTZ-JKFIT
	 Reference Energy          =    -325.1899508173208346 [Eh]
	 Singles Energy            =      -0.0000000000000000 [Eh]
	 Same-Spin Energy          =      -0.3320665881523603 [Eh]
	 Opposite-Spin Energy      =      -1.1200652360383416 [Eh]
	 Correlation Energy        =      -1.4521318241907020 [Eh]
	 Total Energy              =    -326.6420826415115357 [Eh]

	 ================> DF-SCS-MP2 Energies <==================
	-----------------------------------------------------------
	 SCS Same-Spin Scale       =       0.3333333333333333 [-]
	 SCS Opposite-Spin Scale   =       1.2000000000000000 [-]
	 SCS Same-Spin Energy      =      -0.1106888627174534 [Eh]
	 SCS Opposite-Spin Energy  =      -1.3440782832460099 [Eh]
	 SCS Correlation Energy    =      -1.4547671459634632 [Eh]
	 SCS Total Energy          =    -326.6447179632842790 [Eh]
	-----------------------------------------------------------

  Dipole Moment: [D]
     X:    -0.7287      Y:     2.2715      Z:    -2.6242     Total:     3.5464

*** Psi4 exiting successfully. Buy a developer a beer!
