                               Psi4 1.3.2 release

  ==> Input File <==

--------------------------------------------------------------------------
#psi4
#
memory 32 gb

molecule  {
0 1
  O        0.3109550    -0.6942360     1.0654250
  N       -0.6919670     0.7804610    -0.3498900
  C       -2.0331630     0.4428770     0.0915860
  C        1.7355170     0.5659250    -0.4538020
  C        0.4204556     0.1684481     0.1617288
  C       -2.5721020    -0.8329900    -0.5555930
  C        2.8806560    -0.3237650     0.0245060
  H       -1.9910630     0.3248240     1.1818950
  H       -2.6829100     1.2983230    -0.1207890
  H        1.6432190     0.5393270    -1.5482860
  H        1.9198310     1.6196100    -0.1921910
  H       -0.5585876     1.3810561    -1.1568232
  H       -2.6081430    -0.7287990    -1.6478990
  H       -1.9207320    -1.6762470    -0.2982990
  H       -3.5840310    -1.0569410    -0.1969260
  H        2.7105400    -1.3693420    -0.2530710
  H        3.8280690     0.0048160    -0.4188000
  H        2.9664850    -0.2871200     1.1156770
units angstrom
no_reorient  #important for SAPT in psi4, default
symmetry c1  #important for SAPT in psi4, default
}

set PROPERTIES_ORIGIN ["COM"]
properties('MP2/aug-cc-pvtz', properties = ['dipole'])
--------------------------------------------------------------------------

    Molecular point group: c1
  Charge       = 0
  Multiplicity = 1
  Basis Set: AUG-CC-PVTZ
    Blend: AUG-CC-PVTZ
  Basis Set: (AUG-CC-PVTZ AUX)
    Blend: AUG-CC-PVTZ-JKFIT

    Orbital Energies [Eh]
    ---------------------

    Doubly Occupied:

       1A    -20.511175     2A    -15.582461     3A    -11.347121
       4A    -11.263124     5A    -11.243980     6A    -11.217252
       7A    -11.214957     8A     -1.357009     9A     -1.223042
      10A     -1.058821    11A     -1.007268    12A     -0.897146
      13A     -0.838104    14A     -0.773749    15A     -0.692928
      16A     -0.648795    17A     -0.635740    18A     -0.603552
      19A     -0.584464    20A     -0.572335    21A     -0.535212
      22A     -0.514414    23A     -0.512581    24A     -0.512234
      25A     -0.495029    26A     -0.479579    27A     -0.418965
      28A     -0.384840

  @DF-RHF Final Energy:  -325.19590426767724

   => Energetics <=

    Nuclear Repulsion Energy =            313.5394237974795146
    One-Electron Energy =               -1063.2189033097472475
    Two-Electron Energy =                 424.4835752445905541
    Total Energy =                       -325.1959042676772356
  Basis Set: (AUG-CC-PVTZ AUX)
    Blend: AUG-CC-PVTZ-RI
    Molecular point group: c1

    Geometry (in Angstrom), charge = 0, multiplicity = 1:

       Center              X                  Y                   Z               Mass
    ------------   -----------------  -----------------  -----------------  -----------------
         O            0.309165359769    -0.695427516097     1.067405744975    15.994914619570
         N           -0.693756640231     0.779269483903    -0.347909255025    14.003074004430
         C           -2.034952640231     0.441685483903     0.093566744975    12.000000000000
         C            1.733727359769     0.564733483903    -0.451821255025    12.000000000000
         C            0.418665959769     0.167256583903     0.163709544975    12.000000000000
         C           -2.573891640231    -0.834181516097    -0.553612255025    12.000000000000
         C            2.878866359769    -0.324956516097     0.026486744975    12.000000000000
         H           -1.992852640231     0.323632483903     1.183875744975     1.007825032230
         H           -2.684699640231     1.297131483903    -0.118808255025     1.007825032230
         H            1.641429359769     0.538135483903    -1.546305255025     1.007825032230
         H            1.918041359769     1.618418483903    -0.190210255025     1.007825032230
         H           -0.560377240231     1.379864583903    -1.154842455025     1.007825032230
         H           -2.609932640231    -0.729990516097    -1.645918255025     1.007825032230
         H           -1.922521640231    -1.677438516097    -0.296318255025     1.007825032230
         H           -3.585820640231    -1.058132516097    -0.194945255025     1.007825032230
         H            2.708750359769    -1.370533516097    -0.251090255025     1.007825032230
         H            3.826279359769     0.003624483903    -0.416819255025     1.007825032230
         H            2.964695359769    -0.288311516097     1.117657744975     1.007825032230

  Basis Set: AUG-CC-PVTZ
    Blend: AUG-CC-PVTZ
  Basis Set: (AUG-CC-PVTZ AUX)
    Blend: AUG-CC-PVTZ-JKFIT
	 Reference Energy          =    -325.1959042676772356 [Eh]
	 Singles Energy            =      -0.0000000000000000 [Eh]
	 Same-Spin Energy          =      -0.3323582220168410 [Eh]
	 Opposite-Spin Energy      =      -1.1204339552741018 [Eh]
	 Correlation Energy        =      -1.4527921772909429 [Eh]
	 Total Energy              =    -326.6486964449681523 [Eh]

	 ================> DF-SCS-MP2 Energies <==================
	-----------------------------------------------------------
	 SCS Same-Spin Scale       =       0.3333333333333333 [-]
	 SCS Opposite-Spin Scale   =       1.2000000000000000 [-]
	 SCS Same-Spin Energy      =      -0.1107860740056136 [Eh]
	 SCS Opposite-Spin Energy  =      -1.3445207463289222 [Eh]
	 SCS Correlation Energy    =      -1.4553068203345358 [Eh]
	 SCS Total Energy          =    -326.6512110880117916 [Eh]
	-----------------------------------------------------------

  Dipole Moment: [D]
     X:    -0.6474      Y:     2.3006      Z:    -2.6543     Total:     3.5717

*** Psi4 exiting successfully. Buy a developer a beer!
