                               Psi4 1.3.2 release

  ==> Input File <==

--------------------------------------------------------------------------
#psi4
#
memory 32 gb

molecule  {
0 1
  O        0.3109550    -0.6942360     1.0654250
  N       -0.6919670     0.7804610    -0.3498900
  C       -2.0331630     0.4428770     0.0915860
  C        1.7355170     0.5659250    -0.4538020
  C        0.4130545     0.1483835     0.1850648
  C       -2.5721020    -0.8329900    -0.5555930
  C        2.8720917    -0.3306232     0.0320680
  H       -1.9910630     0.3248240     1.1818950
  H       -2.6829100     1.2983230    -0.1207890
  H        1.6432190     0.5393270    -1.5482860
  H        1.9198310     1.6196100    -0.1921910
  H       -0.5759590     1.3845000    -1.1569370
  H       -2.6081430    -0.7287990    -1.6478990
  H       -1.9207320    -1.6762470    -0.2982990
  H       -3.5840310    -1.0569410    -0.1969260
  H        2.7105400    -1.3693420    -0.2530710
  H        3.8280690     0.0048160    -0.4188000
  H        2.9664850    -0.2871200     1.1156770
units angstrom
no_reorient  #important for SAPT in psi4, default
symmetry c1  #important for SAPT in psi4, default
}

set PROPERTIES_ORIGIN ["COM"]
properties('MP2/aug-cc-pvtz', properties = ['dipole'])
--------------------------------------------------------------------------

    Molecular point group: c1
  Charge       = 0
  Multiplicity = 1
  Basis Set: AUG-CC-PVTZ
    Blend: AUG-CC-PVTZ
  Basis Set: (AUG-CC-PVTZ AUX)
    Blend: AUG-CC-PVTZ-JKFIT

    Orbital Energies [Eh]
    ---------------------

    Doubly Occupied:

       1A    -20.517194     2A    -15.578265     3A    -11.346134
       4A    -11.260863     5A    -11.242610     6A    -11.216451
       7A    -11.214231     8A     -1.375926     9A     -1.221916
      10A     -1.054678    11A     -1.004626    12A     -0.893269
      13A     -0.834751    14A     -0.773857    15A     -0.693335
      16A     -0.647613    17A     -0.634833    18A     -0.606552
      19A     -0.587811    20A     -0.573414    21A     -0.533979
      22A     -0.515670    23A     -0.515345    24A     -0.509804
      25A     -0.495921    26A     -0.484091    27A     -0.419595
      28A     -0.385644

  @DF-RHF Final Energy:  -325.19848833871879

   => Energetics <=

    Nuclear Repulsion Energy =            313.7793296388217072
    One-Electron Energy =               -1063.6788833805501326
    Two-Electron Energy =                 424.7010654030095793
    Total Energy =                       -325.1984883387187892
  Basis Set: (AUG-CC-PVTZ AUX)
    Blend: AUG-CC-PVTZ-RI
    Molecular point group: c1

    Geometry (in Angstrom), charge = 0, multiplicity = 1:

       Center              X                  Y                   Z               Mass
    ------------   -----------------  -----------------  -----------------  -----------------
         O            0.311233857250    -0.692265763999     1.063738883010    15.994914619570
         N           -0.691688142750     0.782431236001    -0.351576116990    14.003074004430
         C           -2.032884142750     0.444847236001     0.089899883010    12.000000000000
         C            1.735795857250     0.567895236001    -0.455488116990    12.000000000000
         C            0.413333357250     0.150353736001     0.183378683010    12.000000000000
         C           -2.571823142750    -0.831019763999    -0.557279116990    12.000000000000
         C            2.872370557250    -0.328652963999     0.030381883010    12.000000000000
         H           -1.990784142750     0.326794236001     1.180208883010     1.007825032230
         H           -2.682631142750     1.300293236001    -0.122475116990     1.007825032230
         H            1.643497857250     0.541297236001    -1.549972116990     1.007825032230
         H            1.920109857250     1.621580236001    -0.193877116990     1.007825032230
         H           -0.575680142750     1.386470236001    -1.158623116990     1.007825032230
         H           -2.607864142750    -0.726828763999    -1.649585116990     1.007825032230
         H           -1.920453142750    -1.674276763999    -0.299985116990     1.007825032230
         H           -3.583752142750    -1.054970763999    -0.198612116990     1.007825032230
         H            2.710818857250    -1.367371763999    -0.254757116990     1.007825032230
         H            3.828347857250     0.006786236001    -0.420486116990     1.007825032230
         H            2.966763857250    -0.285149763999     1.113990883010     1.007825032230

  Basis Set: AUG-CC-PVTZ
    Blend: AUG-CC-PVTZ
  Basis Set: (AUG-CC-PVTZ AUX)
    Blend: AUG-CC-PVTZ-JKFIT
	 Reference Energy          =    -325.1984883387187892 [Eh]
	 Singles Energy            =      -0.0000000000000000 [Eh]
	 Same-Spin Energy          =      -0.3316628241121917 [Eh]
	 Opposite-Spin Energy      =      -1.1191213027188227 [Eh]
	 Correlation Energy        =      -1.4507841268310144 [Eh]
	 Total Energy              =    -326.6492724655498137 [Eh]

	 ================> DF-SCS-MP2 Energies <==================
	-----------------------------------------------------------
	 SCS Same-Spin Scale       =       0.3333333333333333 [-]
	 SCS Opposite-Spin Scale   =       1.2000000000000000 [-]
	 SCS Same-Spin Energy      =      -0.1105542747040639 [Eh]
	 SCS Opposite-Spin Energy  =      -1.3429455632625873 [Eh]
	 SCS Correlation Energy    =      -1.4534998379666513 [Eh]
	 SCS Total Energy          =    -326.6519881766854496 [Eh]
	-----------------------------------------------------------

  Dipole Moment: [D]
     X:    -0.6274      Y:     2.1865      Z:    -2.5194     Total:     3.3944

*** Psi4 exiting successfully. Buy a developer a beer!
