                               Psi4 1.3.2 release

  ==> Input File <==

--------------------------------------------------------------------------
#psi4
#
memory 32 gb

molecule  {
0 1
  O        0.3109550    -0.6942360     1.0654250
  N       -0.6989605     0.7744330    -0.3423104
  C       -2.0331630     0.4428770     0.0915860
  C        1.7419119     0.5576096    -0.4455859
  C        0.4068390     0.1581200     0.1784230
  C       -2.5721020    -0.8329900    -0.5555930
  C        2.8806560    -0.3237650     0.0245060
  H       -1.9910630     0.3248240     1.1818950
  H       -2.6829100     1.2983230    -0.1207890
  H        1.6432190     0.5393270    -1.5482860
  H        1.9198310     1.6196100    -0.1921910
  H       -0.5759590     1.3845000    -1.1569370
  H       -2.6081430    -0.7287990    -1.6478990
  H       -1.9207320    -1.6762470    -0.2982990
  H       -3.5840310    -1.0569410    -0.1969260
  H        2.7105400    -1.3693420    -0.2530710
  H        3.8280690     0.0048160    -0.4188000
  H        2.9664850    -0.2871200     1.1156770
units angstrom
no_reorient  #important for SAPT in psi4, default
symmetry c1  #important for SAPT in psi4, default
}

set PROPERTIES_ORIGIN ["COM"]
properties('MP2/aug-cc-pvtz', properties = ['dipole'])
--------------------------------------------------------------------------

    Molecular point group: c1
  Charge       = 0
  Multiplicity = 1
  Basis Set: AUG-CC-PVTZ
    Blend: AUG-CC-PVTZ
  Basis Set: (AUG-CC-PVTZ AUX)
    Blend: AUG-CC-PVTZ-JKFIT

    Orbital Energies [Eh]
    ---------------------

    Doubly Occupied:

       1A    -20.513525     2A    -15.581671     3A    -11.345911
       4A    -11.261463     5A    -11.243969     6A    -11.216003
       7A    -11.214585     8A     -1.368993     9A     -1.225598
      10A     -1.056120    11A     -1.006631    12A     -0.895008
      13A     -0.836294    14A     -0.773290    15A     -0.692448
      16A     -0.649916    17A     -0.633349    18A     -0.605414
      19A     -0.586544    20A     -0.573939    21A     -0.536638
      22A     -0.515101    23A     -0.513782    24A     -0.513182
      25A     -0.494260    26A     -0.480717    27A     -0.418310
      28A     -0.385460

  @DF-RHF Final Energy:  -325.19772623680365

   => Energetics <=

    Nuclear Repulsion Energy =            313.8591570606467940
    One-Electron Energy =               -1063.8375244838111939
    Two-Electron Energy =                 424.7806411863607536
    Total Energy =                       -325.1977262368036463
  Basis Set: (AUG-CC-PVTZ AUX)
    Blend: AUG-CC-PVTZ-RI
    Molecular point group: c1

    Geometry (in Angstrom), charge = 0, multiplicity = 1:

       Center              X                  Y                   Z               Mass
    ------------   -----------------  -----------------  -----------------  -----------------
         O            0.311164668284    -0.692413572361     1.063399706898    15.994914619570
         N           -0.698750831716     0.776255427639    -0.344335693102    14.003074004430
         C           -2.032953331716     0.444699427639     0.089560706898    12.000000000000
         C            1.742121568284     0.559432027639    -0.447611193102    12.000000000000
         C            0.407048668284     0.159942427639     0.176397706898    12.000000000000
         C           -2.571892331716    -0.831167572361    -0.557618293102    12.000000000000
         C            2.880865668284    -0.321942572361     0.022480706898    12.000000000000
         H           -1.990853331716     0.326646427639     1.179869706898     1.007825032230
         H           -2.682700331716     1.300145427639    -0.122814293102     1.007825032230
         H            1.643428668284     0.541149427639    -1.550311293102     1.007825032230
         H            1.920040668284     1.621432427639    -0.194216293102     1.007825032230
         H           -0.575749331716     1.386322427639    -1.158962293102     1.007825032230
         H           -2.607933331716    -0.726976572361    -1.649924293102     1.007825032230
         H           -1.920522331716    -1.674424572361    -0.300324293102     1.007825032230
         H           -3.583821331716    -1.055118572361    -0.198951293102     1.007825032230
         H            2.710749668284    -1.367519572361    -0.255096293102     1.007825032230
         H            3.828278668284     0.006638427639    -0.420825293102     1.007825032230
         H            2.966694668284    -0.285297572361     1.113651706898     1.007825032230

  Basis Set: AUG-CC-PVTZ
    Blend: AUG-CC-PVTZ
  Basis Set: (AUG-CC-PVTZ AUX)
    Blend: AUG-CC-PVTZ-JKFIT
	 Reference Energy          =    -325.1977262368036463 [Eh]
	 Singles Energy            =      -0.0000000000000000 [Eh]
	 Same-Spin Energy          =      -0.3320010884720404 [Eh]
	 Opposite-Spin Energy      =      -1.1195783599455031 [Eh]
	 Correlation Energy        =      -1.4515794484175435 [Eh]
	 Total Energy              =    -326.6493056852211794 [Eh]

	 ================> DF-SCS-MP2 Energies <==================
	-----------------------------------------------------------
	 SCS Same-Spin Scale       =       0.3333333333333333 [-]
	 SCS Opposite-Spin Scale   =       1.2000000000000000 [-]
	 SCS Same-Spin Energy      =      -0.1106670294906801 [Eh]
	 SCS Opposite-Spin Energy  =      -1.3434940319346038 [Eh]
	 SCS Correlation Energy    =      -1.4541610614252840 [Eh]
	 SCS Total Energy          =    -326.6518872982289281 [Eh]
	-----------------------------------------------------------

  Dipole Moment: [D]
     X:    -0.6670      Y:     2.2549      Z:    -2.5869     Total:     3.4959

*** Psi4 exiting successfully. Buy a developer a beer!
