                               Psi4 1.3.2 release

  ==> Input File <==

--------------------------------------------------------------------------
#psi4
#
memory 32 gb

molecule  {
0 1
  O        0.3109550    -0.6942360     1.0654250
  N       -0.6919670     0.7804610    -0.3498900
  C       -2.0331630     0.4428770     0.0915860
  C        1.7355170     0.5659250    -0.4538020
  C        0.4068390     0.1581200     0.1784230
  C       -2.5642883    -0.7975860    -0.6269472
  C        2.8806560    -0.3237650     0.0245060
  H       -1.9703612     0.3783099     1.1853728
  H       -2.6829100     1.2983230    -0.1207890
  H        1.6432190     0.5393270    -1.5482860
  H        1.9198310     1.6196100    -0.1921910
  H       -0.5759590     1.3845000    -1.1569370
  H       -2.6081430    -0.7287990    -1.6478990
  H       -1.9207320    -1.6762470    -0.2982990
  H       -3.5840310    -1.0569410    -0.1969260
  H        2.7105400    -1.3693420    -0.2530710
  H        3.8280690     0.0048160    -0.4188000
  H        2.9664850    -0.2871200     1.1156770
units angstrom
no_reorient  #important for SAPT in psi4, default
symmetry c1  #important for SAPT in psi4, default
}

set PROPERTIES_ORIGIN ["COM"]
properties('MP2/aug-cc-pvtz', properties = ['dipole'])
--------------------------------------------------------------------------

    Molecular point group: c1
  Charge       = 0
  Multiplicity = 1
  Basis Set: AUG-CC-PVTZ
    Blend: AUG-CC-PVTZ
  Basis Set: (AUG-CC-PVTZ AUX)
    Blend: AUG-CC-PVTZ-JKFIT

    Orbital Energies [Eh]
    ---------------------

    Doubly Occupied:

       1A    -20.513664     2A    -15.579560     3A    -11.345480
       4A    -11.262956     5A    -11.242238     6A    -11.216768
       7A    -11.215843     8A     -1.368316     9A     -1.225043
      10A     -1.054303    11A     -1.006051    12A     -0.894599
      13A     -0.838054    14A     -0.776346    15A     -0.691611
      16A     -0.647991    17A     -0.634027    18A     -0.605373
      19A     -0.589071    20A     -0.579103    21A     -0.528375
      22A     -0.519509    23A     -0.513869    24A     -0.507996
      25A     -0.489703    26A     -0.482818    27A     -0.417501
      28A     -0.385707

  @DF-RHF Final Energy:  -325.18982336071230

   => Energetics <=

    Nuclear Repulsion Energy =            313.7236800100393452
    One-Electron Energy =               -1063.5632578858219404
    Two-Electron Energy =                 424.6497545150703559
    Total Energy =                       -325.1898233607122961
  Basis Set: (AUG-CC-PVTZ AUX)
    Blend: AUG-CC-PVTZ-RI
    Molecular point group: c1

    Geometry (in Angstrom), charge = 0, multiplicity = 1:

       Center              X                  Y                   Z               Mass
    ------------   -----------------  -----------------  -----------------  -----------------
         O            0.309821035223    -0.698971952910     1.073861061975    15.994914619570
         N           -0.693100964777     0.775725047090    -0.341453938025    14.003074004430
         C           -2.034296964777     0.438141047090     0.100022061975    12.000000000000
         C            1.734383035223     0.561189047090    -0.445365938025    12.000000000000
         C            0.405705035223     0.153384047090     0.186859061975    12.000000000000
         C           -2.565422264777    -0.802321952910    -0.618511138025    12.000000000000
         C            2.879522035223    -0.328500952910     0.032942061975    12.000000000000
         H           -1.971495164777     0.373573947090     1.193808861975     1.007825032230
         H           -2.684043964777     1.293587047090    -0.112352938025     1.007825032230
         H            1.642085035223     0.534591047090    -1.539849938025     1.007825032230
         H            1.918697035223     1.614874047090    -0.183754938025     1.007825032230
         H           -0.577092964777     1.379764047090    -1.148500938025     1.007825032230
         H           -2.609276964777    -0.733534952910    -1.639462938025     1.007825032230
         H           -1.921865964777    -1.680982952910    -0.289862938025     1.007825032230
         H           -3.585164964777    -1.061676952910    -0.188489938025     1.007825032230
         H            2.709406035223    -1.374077952910    -0.244634938025     1.007825032230
         H            3.826935035223     0.000080047090    -0.410363938025     1.007825032230
         H            2.965351035223    -0.291855952910     1.124113061975     1.007825032230

  Basis Set: AUG-CC-PVTZ
    Blend: AUG-CC-PVTZ
  Basis Set: (AUG-CC-PVTZ AUX)
    Blend: AUG-CC-PVTZ-JKFIT
	 Reference Energy          =    -325.1898233607122961 [Eh]
	 Singles Energy            =      -0.0000000000000000 [Eh]
	 Same-Spin Energy          =      -0.3320436898792380 [Eh]
	 Opposite-Spin Energy      =      -1.1199129916518038 [Eh]
	 Correlation Energy        =      -1.4519566815310418 [Eh]
	 Total Energy              =    -326.6417800422433402 [Eh]

	 ================> DF-SCS-MP2 Energies <==================
	-----------------------------------------------------------
	 SCS Same-Spin Scale       =       0.3333333333333333 [-]
	 SCS Opposite-Spin Scale   =       1.2000000000000000 [-]
	 SCS Same-Spin Energy      =      -0.1106812299597460 [Eh]
	 SCS Opposite-Spin Energy  =      -1.3438955899821645 [Eh]
	 SCS Correlation Energy    =      -1.4545768199419105 [Eh]
	 SCS Total Energy          =    -326.6444001806542019 [Eh]
	-----------------------------------------------------------

  Dipole Moment: [D]
     X:    -0.7172      Y:     2.2698      Z:    -2.6107     Total:     3.5330

*** Psi4 exiting successfully. Buy a developer a beer!
