                               Psi4 1.3.2 release

  ==> Input File <==

--------------------------------------------------------------------------
#psi4
#
memory 32 gb

molecule  {
0 1
  O        0.3109550    -0.6942360     1.0654250
  N       -0.6919670     0.7804610    -0.3498900
  C       -2.0331630     0.4428770     0.0915860
  C        1.7355170     0.5659250    -0.4538020
  C        0.5673814     0.0671921     0.2556128
  C       -2.5721020    -0.8329900    -0.5555930
  C        2.8806560    -0.3237650     0.0245060
  H       -1.9910630     0.3248240     1.1818950
  H       -2.6829100     1.2983230    -0.1207890
  H        1.6432190     0.5393270    -1.5482860
  H        1.9198310     1.6196100    -0.1921910
  H       -0.5759590     1.3845000    -1.1569370
  H       -2.6081430    -0.7287990    -1.6478990
  H       -1.9207320    -1.6762470    -0.2982990
  H       -3.5840310    -1.0569410    -0.1969260
  H        2.7105400    -1.3693420    -0.2530710
  H        3.8280690     0.0048160    -0.4188000
  H        2.9664850    -0.2871200     1.1156770
units angstrom
no_reorient  #important for SAPT in psi4, default
symmetry c1  #important for SAPT in psi4, default
}

set PROPERTIES_ORIGIN ["COM"]
properties('MP2/aug-cc-pvtz', properties = ['dipole'])
--------------------------------------------------------------------------

    Molecular point group: c1
  Charge       = 0
  Multiplicity = 1
  Basis Set: AUG-CC-PVTZ
    Blend: AUG-CC-PVTZ
  Basis Set: (AUG-CC-PVTZ AUX)
    Blend: AUG-CC-PVTZ-JKFIT

    Orbital Energies [Eh]
    ---------------------

    Doubly Occupied:

       1A    -20.551720     2A    -15.538899     3A    -11.357852
       4A    -11.251301     5A    -11.242897     6A    -11.226914
       7A    -11.202050     8A     -1.448307     9A     -1.167650
      10A     -1.079207    11A     -0.980638    12A     -0.898128
      13A     -0.816208    14A     -0.750320    15A     -0.707325
      16A     -0.655849    17A     -0.652566    18A     -0.619203
      19A     -0.577488    20A     -0.566680    21A     -0.541024
      22A     -0.535299    23A     -0.521971    24A     -0.508361
      25A     -0.506367    26A     -0.480389    27A     -0.416726
      28A     -0.356304

  @DF-RHF Final Energy:  -325.15850696885553

   => Energetics <=

    Nuclear Repulsion Energy =            313.5768391519099509
    One-Electron Energy =               -1063.1554053660740919
    Two-Electron Energy =                 424.4200592453085505
    Total Energy =                       -325.1585069688555336
  Basis Set: (AUG-CC-PVTZ AUX)
    Blend: AUG-CC-PVTZ-RI
    Molecular point group: c1

    Geometry (in Angstrom), charge = 0, multiplicity = 1:

       Center              X                  Y                   Z               Mass
    ------------   -----------------  -----------------  -----------------  -----------------
         O            0.291896542118    -0.683441441303     1.056261621310    15.994914619570
         N           -0.711025457882     0.791255558697    -0.359053378690    14.003074004430
         C           -2.052221457882     0.453671558697     0.082422621310    12.000000000000
         C            1.716458542118     0.576719558697    -0.462965378690    12.000000000000
         C            0.548322942118     0.077986658697     0.246449421310    12.000000000000
         C           -2.591160457882    -0.822195441303    -0.564756378690    12.000000000000
         C            2.861597542118    -0.312970441303     0.015342621310    12.000000000000
         H           -2.010121457882     0.335618558697     1.172731621310     1.007825032230
         H           -2.701968457882     1.309117558697    -0.129952378690     1.007825032230
         H            1.624160542118     0.550121558697    -1.557449378690     1.007825032230
         H            1.900772542118     1.630404558697    -0.201354378690     1.007825032230
         H           -0.595017457882     1.395294558697    -1.166100378690     1.007825032230
         H           -2.627201457882    -0.718004441303    -1.657062378690     1.007825032230
         H           -1.939790457882    -1.665452441303    -0.307462378690     1.007825032230
         H           -3.603089457882    -1.046146441303    -0.206089378690     1.007825032230
         H            2.691481542118    -1.358547441303    -0.262234378690     1.007825032230
         H            3.809010542118     0.015610558697    -0.427963378690     1.007825032230
         H            2.947426542118    -0.276325441303     1.106513621310     1.007825032230

  Basis Set: AUG-CC-PVTZ
    Blend: AUG-CC-PVTZ
  Basis Set: (AUG-CC-PVTZ AUX)
    Blend: AUG-CC-PVTZ-JKFIT
	 Reference Energy          =    -325.1585069688555336 [Eh]
	 Singles Energy            =      -0.0000000000000000 [Eh]
	 Same-Spin Energy          =      -0.3318516075696740 [Eh]
	 Opposite-Spin Energy      =      -1.1196502156052466 [Eh]
	 Correlation Energy        =      -1.4515018231749206 [Eh]
	 Total Energy              =    -326.6100087920304418 [Eh]

	 ================> DF-SCS-MP2 Energies <==================
	-----------------------------------------------------------
	 SCS Same-Spin Scale       =       0.3333333333333333 [-]
	 SCS Opposite-Spin Scale   =       1.2000000000000000 [-]
	 SCS Same-Spin Energy      =      -0.1106172025232247 [Eh]
	 SCS Opposite-Spin Energy  =      -1.3435802587262959 [Eh]
	 SCS Correlation Energy    =      -1.4541974612495205 [Eh]
	 SCS Total Energy          =    -326.6127044301050546 [Eh]
	-----------------------------------------------------------

  Dipole Moment: [D]
     X:     0.9393      Y:     1.5290      Z:    -1.8797     Total:     2.5987

*** Psi4 exiting successfully. Buy a developer a beer!
