                               Psi4 1.3.2 release

  ==> Input File <==

--------------------------------------------------------------------------
#psi4
#
memory 32 gb

molecule  {
0 1
  O        0.3002509    -0.6930726     1.0653205
  N       -0.6989984     0.7740992    -0.3426248
  C       -2.0331630     0.4428770     0.0915860
  C        1.7355170     0.5659250    -0.4538020
  C        0.4068390     0.1581200     0.1784230
  C       -2.5721020    -0.8329900    -0.5555930
  C        2.8806560    -0.3237650     0.0245060
  H       -1.9910630     0.3248240     1.1818950
  H       -2.6829100     1.2983230    -0.1207890
  H        1.6432190     0.5393270    -1.5482860
  H        1.9198310     1.6196100    -0.1921910
  H       -0.5759590     1.3845000    -1.1569370
  H       -2.6081430    -0.7287990    -1.6478990
  H       -1.9207320    -1.6762470    -0.2982990
  H       -3.5840310    -1.0569410    -0.1969260
  H        2.7105400    -1.3693420    -0.2530710
  H        3.8280690     0.0048160    -0.4188000
  H        2.9664850    -0.2871200     1.1156770
units angstrom
no_reorient  #important for SAPT in psi4, default
symmetry c1  #important for SAPT in psi4, default
}

set PROPERTIES_ORIGIN ["COM"]
properties('MP2/aug-cc-pvtz', properties = ['dipole'])
--------------------------------------------------------------------------

    Molecular point group: c1
  Charge       = 0
  Multiplicity = 1
  Basis Set: AUG-CC-PVTZ
    Blend: AUG-CC-PVTZ
  Basis Set: (AUG-CC-PVTZ AUX)
    Blend: AUG-CC-PVTZ-JKFIT

    Orbital Energies [Eh]
    ---------------------

    Doubly Occupied:

       1A    -20.513692     2A    -15.580952     3A    -11.345976
       4A    -11.260940     5A    -11.243809     6A    -11.216887
       7A    -11.214260     8A     -1.369165     9A     -1.224949
      10A     -1.055378    11A     -1.005781    12A     -0.894970
      13A     -0.836548    14A     -0.773106    15A     -0.692957
      16A     -0.649479    17A     -0.634438    18A     -0.605252
      19A     -0.586212    20A     -0.573572    21A     -0.534879
      22A     -0.515166    23A     -0.513656    24A     -0.512176
      25A     -0.494955    26A     -0.482117    27A     -0.418830
      28A     -0.384994

  @DF-RHF Final Energy:  -325.19785525824068

   => Energetics <=

    Nuclear Repulsion Energy =            313.8250075130474670
    One-Electron Energy =               -1063.7755319531729583
    Two-Electron Energy =                 424.7526691818848121
    Total Energy =                       -325.1978552582406792
  Basis Set: (AUG-CC-PVTZ AUX)
    Blend: AUG-CC-PVTZ-RI
    Molecular point group: c1

    Geometry (in Angstrom), charge = 0, multiplicity = 1:

       Center              X                  Y                   Z               Mass
    ------------   -----------------  -----------------  -----------------  -----------------
         O            0.302918727090    -0.692375167272     1.064330654336    15.994914619570
         N           -0.696330572910     0.774796632728    -0.343614645664    14.003074004430
         C           -2.030495172910     0.443574432728     0.090596154336    12.000000000000
         C            1.738184827090     0.566622432728    -0.454791845664    12.000000000000
         C            0.409506827090     0.158817432728     0.177433154336    12.000000000000
         C           -2.569434172910    -0.832292567272    -0.556582845664    12.000000000000
         C            2.883323827090    -0.323067567272     0.023516154336    12.000000000000
         H           -1.988395172910     0.325521432728     1.180905154336     1.007825032230
         H           -2.680242172910     1.299020432728    -0.121778845664     1.007825032230
         H            1.645886827090     0.540024432728    -1.549275845664     1.007825032230
         H            1.922498827090     1.620307432728    -0.193180845664     1.007825032230
         H           -0.573291172910     1.385197432728    -1.157926845664     1.007825032230
         H           -2.605475172910    -0.728101567272    -1.648888845664     1.007825032230
         H           -1.918064172910    -1.675549567272    -0.299288845664     1.007825032230
         H           -3.581363172910    -1.056243567272    -0.197915845664     1.007825032230
         H            2.713207827090    -1.368644567272    -0.254060845664     1.007825032230
         H            3.830736827090     0.005513432728    -0.419789845664     1.007825032230
         H            2.969152827090    -0.286422567272     1.114687154336     1.007825032230

  Basis Set: AUG-CC-PVTZ
    Blend: AUG-CC-PVTZ
  Basis Set: (AUG-CC-PVTZ AUX)
    Blend: AUG-CC-PVTZ-JKFIT
	 Reference Energy          =    -325.1978552582406792 [Eh]
	 Singles Energy            =      -0.0000000000000000 [Eh]
	 Same-Spin Energy          =      -0.3319617263071480 [Eh]
	 Opposite-Spin Energy      =      -1.1195721830563754 [Eh]
	 Correlation Energy        =      -1.4515339093635233 [Eh]
	 Total Energy              =    -326.6493891676042267 [Eh]

	 ================> DF-SCS-MP2 Energies <==================
	-----------------------------------------------------------
	 SCS Same-Spin Scale       =       0.3333333333333333 [-]
	 SCS Opposite-Spin Scale   =       1.2000000000000000 [-]
	 SCS Same-Spin Energy      =      -0.1106539087690493 [Eh]
	 SCS Opposite-Spin Energy  =      -1.3434866196676505 [Eh]
	 SCS Correlation Energy    =      -1.4541405284366997 [Eh]
	 SCS Total Energy          =    -326.6519957866773893 [Eh]
	-----------------------------------------------------------

  Dipole Moment: [D]
     X:    -0.6359      Y:     2.2568      Z:    -2.5895     Total:     3.4933

*** Psi4 exiting successfully. Buy a developer a beer!
