                               Psi4 1.3.2 release

  ==> Input File <==

--------------------------------------------------------------------------
#psi4
#
memory 32 gb

molecule  {
0 1
  O        0.3109550    -0.6942360     1.0654250
  N       -0.6921377     0.7906844    -0.3424094
  C       -2.0331630     0.4428770     0.0915860
  C        1.7355170     0.5659250    -0.4538020
  C        0.4068390     0.1581200     0.1784230
  C       -2.5834742    -0.8315819    -0.5487613
  C        2.8806560    -0.3237650     0.0245060
  H       -1.9910630     0.3248240     1.1818950
  H       -2.6829100     1.2983230    -0.1207890
  H        1.6432190     0.5393270    -1.5482860
  H        1.9198310     1.6196100    -0.1921910
  H       -0.5759590     1.3845000    -1.1569370
  H       -2.6081430    -0.7287990    -1.6478990
  H       -1.9207320    -1.6762470    -0.2982990
  H       -3.5840310    -1.0569410    -0.1969260
  H        2.7105400    -1.3693420    -0.2530710
  H        3.8280690     0.0048160    -0.4188000
  H        2.9664850    -0.2871200     1.1156770
units angstrom
no_reorient  #important for SAPT in psi4, default
symmetry c1  #important for SAPT in psi4, default
}

set PROPERTIES_ORIGIN ["COM"]
properties('MP2/aug-cc-pvtz', properties = ['dipole'])
--------------------------------------------------------------------------

    Molecular point group: c1
  Charge       = 0
  Multiplicity = 1
  Basis Set: AUG-CC-PVTZ
    Blend: AUG-CC-PVTZ
  Basis Set: (AUG-CC-PVTZ AUX)
    Blend: AUG-CC-PVTZ-JKFIT

    Orbital Energies [Eh]
    ---------------------

    Doubly Occupied:

       1A    -20.514886     2A    -15.581199     3A    -11.346487
       4A    -11.261979     5A    -11.242771     6A    -11.216246
       7A    -11.215228     8A     -1.369021     9A     -1.224773
      10A     -1.054527    11A     -1.006334    12A     -0.894523
      13A     -0.835977    14A     -0.775998    15A     -0.692249
      16A     -0.648098    17A     -0.633959    18A     -0.604530
      19A     -0.587332    20A     -0.574335    21A     -0.536533
      22A     -0.514773    23A     -0.513245    24A     -0.512209
      25A     -0.493761    26A     -0.481700    27A     -0.419013
      28A     -0.386788

  @DF-RHF Final Energy:  -325.19813065144274

   => Energetics <=

    Nuclear Repulsion Energy =            313.5229926723021663
    One-Electron Energy =               -1063.1652990804284400
    Two-Electron Energy =                 424.4441757566835349
    Total Energy =                       -325.1981306514427388
  Basis Set: (AUG-CC-PVTZ AUX)
    Blend: AUG-CC-PVTZ-RI
    Molecular point group: c1

    Geometry (in Angstrom), charge = 0, multiplicity = 1:

       Center              X                  Y                   Z               Mass
    ------------   -----------------  -----------------  -----------------  -----------------
         O            0.312328699705    -0.695819169082     1.063577767649    15.994914619570
         N           -0.690764000295     0.789101230918    -0.344256632351    14.003074004430
         C           -2.031789300295     0.441293830918     0.089738767649    12.000000000000
         C            1.736890699705     0.564341830918    -0.455649232351    12.000000000000
         C            0.408212699705     0.156536830918     0.176575767649    12.000000000000
         C           -2.582100500295    -0.833165069082    -0.550608532351    12.000000000000
         C            2.882029699705    -0.325348169082     0.022658767649    12.000000000000
         H           -1.989689300295     0.323240830918     1.180047767649     1.007825032230
         H           -2.681536300295     1.296739830918    -0.122636232351     1.007825032230
         H            1.644592699705     0.537743830918    -1.550133232351     1.007825032230
         H            1.921204699705     1.618026830918    -0.194038232351     1.007825032230
         H           -0.574585300295     1.382916830918    -1.158784232351     1.007825032230
         H           -2.606769300295    -0.730382169082    -1.649746232351     1.007825032230
         H           -1.919358300295    -1.677830169082    -0.300146232351     1.007825032230
         H           -3.582657300295    -1.058524169082    -0.198773232351     1.007825032230
         H            2.711913699705    -1.370925169082    -0.254918232351     1.007825032230
         H            3.829442699705     0.003232830918    -0.420647232351     1.007825032230
         H            2.967858699705    -0.288703169082     1.113829767649     1.007825032230

  Basis Set: AUG-CC-PVTZ
    Blend: AUG-CC-PVTZ
  Basis Set: (AUG-CC-PVTZ AUX)
    Blend: AUG-CC-PVTZ-JKFIT
	 Reference Energy          =    -325.1981306514427388 [Eh]
	 Singles Energy            =      -0.0000000000000000 [Eh]
	 Same-Spin Energy          =      -0.3318187376232081 [Eh]
	 Opposite-Spin Energy      =      -1.1194532115557974 [Eh]
	 Correlation Energy        =      -1.4512719491790054 [Eh]
	 Total Energy              =    -326.6494026006217268 [Eh]

	 ================> DF-SCS-MP2 Energies <==================
	-----------------------------------------------------------
	 SCS Same-Spin Scale       =       0.3333333333333333 [-]
	 SCS Opposite-Spin Scale   =       1.2000000000000000 [-]
	 SCS Same-Spin Energy      =      -0.1106062458744027 [Eh]
	 SCS Opposite-Spin Energy  =      -1.3433438538669569 [Eh]
	 SCS Correlation Energy    =      -1.4539500997413595 [Eh]
	 SCS Total Energy          =    -326.6520807511840871 [Eh]
	-----------------------------------------------------------

  Dipole Moment: [D]
     X:    -0.6898      Y:     2.2135      Z:    -2.5831     Total:     3.4710

*** Psi4 exiting successfully. Buy a developer a beer!
