                               Psi4 1.3.2 release

  ==> Input File <==

--------------------------------------------------------------------------
#psi4
#
memory 32 gb

molecule  {
0 1
  O        0.3109550    -0.6942360     1.0654250
  N       -0.6919670     0.7804610    -0.3498900
  C       -2.0331630     0.4428770     0.0915860
  C        1.7355170     0.5659250    -0.4538020
  C        0.4016091     0.1565371     0.1662703
  C       -2.5721020    -0.8329900    -0.5555930
  C        2.8806560    -0.3237650     0.0245060
  H       -1.9910630     0.3248240     1.1818950
  H       -2.6829100     1.2983230    -0.1207890
  H        1.6340903     0.5365305    -1.5474062
  H        1.9198310     1.6196100    -0.1921910
  H       -0.5759590     1.3845000    -1.1569370
  H       -2.6081430    -0.7287990    -1.6478990
  H       -1.9207320    -1.6762470    -0.2982990
  H       -3.5840310    -1.0569410    -0.1969260
  H        2.7105400    -1.3693420    -0.2530710
  H        3.8280690     0.0048160    -0.4188000
  H        2.9664850    -0.2871200     1.1156770
units angstrom
no_reorient  #important for SAPT in psi4, default
symmetry c1  #important for SAPT in psi4, default
}

set PROPERTIES_ORIGIN ["COM"]
properties('MP2/aug-cc-pvtz', properties = ['dipole'])
--------------------------------------------------------------------------

    Molecular point group: c1
  Charge       = 0
  Multiplicity = 1
  Basis Set: AUG-CC-PVTZ
    Blend: AUG-CC-PVTZ
  Basis Set: (AUG-CC-PVTZ AUX)
    Blend: AUG-CC-PVTZ-JKFIT

    Orbital Energies [Eh]
    ---------------------

    Doubly Occupied:

       1A    -20.512213     2A    -15.582701     3A    -11.345608
       4A    -11.263036     5A    -11.242660     6A    -11.215985
       7A    -11.215559     8A     -1.364361     9A     -1.227073
      10A     -1.054485    11A     -1.007329    12A     -0.894895
      13A     -0.837039    14A     -0.777937    15A     -0.691351
      16A     -0.648970    17A     -0.634121    18A     -0.603689
      19A     -0.586874    20A     -0.573903    21A     -0.535096
      22A     -0.514037    23A     -0.512899    24A     -0.511524
      25A     -0.495549    26A     -0.481496    27A     -0.417408
      28A     -0.386984

  @DF-RHF Final Energy:  -325.19811468433511

   => Energetics <=

    Nuclear Repulsion Energy =            313.6961114533851287
    One-Electron Energy =               -1063.5188847389131297
    Two-Electron Energy =                 424.6246586011928912
    Total Energy =                       -325.1981146843351098
  Basis Set: (AUG-CC-PVTZ AUX)
    Blend: AUG-CC-PVTZ-RI
    Molecular point group: c1

    Geometry (in Angstrom), charge = 0, multiplicity = 1:

       Center              X                  Y                   Z               Mass
    ------------   -----------------  -----------------  -----------------  -----------------
         O            0.311666896155    -0.694019979355     1.066858972400    15.994914619570
         N           -0.691255103845     0.780677020645    -0.348456027600    14.003074004430
         C           -2.032451103845     0.443093020645     0.093019972400    12.000000000000
         C            1.736228896155     0.566141020645    -0.452368027600    12.000000000000
         C            0.402320996155     0.156753120645     0.167704272400    12.000000000000
         C           -2.571390103845    -0.832773979355    -0.554159027600    12.000000000000
         C            2.881367896155    -0.323548979355     0.025939972400    12.000000000000
         H           -1.990351103845     0.325040020645     1.183328972400     1.007825032230
         H           -2.682198103845     1.298539020645    -0.119355027600     1.007825032230
         H            1.634802196155     0.536746520645    -1.545972227600     1.007825032230
         H            1.920542896155     1.619826020645    -0.190757027600     1.007825032230
         H           -0.575247103845     1.384716020645    -1.155503027600     1.007825032230
         H           -2.607431103845    -0.728582979355    -1.646465027600     1.007825032230
         H           -1.920020103845    -1.676030979355    -0.296865027600     1.007825032230
         H           -3.583319103845    -1.056724979355    -0.195492027600     1.007825032230
         H            2.711251896155    -1.369125979355    -0.251637027600     1.007825032230
         H            3.828780896155     0.005032020645    -0.417366027600     1.007825032230
         H            2.967196896155    -0.286903979355     1.117110972400     1.007825032230

  Basis Set: AUG-CC-PVTZ
    Blend: AUG-CC-PVTZ
  Basis Set: (AUG-CC-PVTZ AUX)
    Blend: AUG-CC-PVTZ-JKFIT
	 Reference Energy          =    -325.1981146843351098 [Eh]
	 Singles Energy            =      -0.0000000000000000 [Eh]
	 Same-Spin Energy          =      -0.3319514720039085 [Eh]
	 Opposite-Spin Energy      =      -1.1196447019069908 [Eh]
	 Correlation Energy        =      -1.4515961739108993 [Eh]
	 Total Energy              =    -326.6497108582460100 [Eh]

	 ================> DF-SCS-MP2 Energies <==================
	-----------------------------------------------------------
	 SCS Same-Spin Scale       =       0.3333333333333333 [-]
	 SCS Opposite-Spin Scale   =       1.2000000000000000 [-]
	 SCS Same-Spin Energy      =      -0.1106504906679695 [Eh]
	 SCS Opposite-Spin Energy  =      -1.3435736422883890 [Eh]
	 SCS Correlation Energy    =      -1.4542241329563586 [Eh]
	 SCS Total Energy          =    -326.6523388172914792 [Eh]
	-----------------------------------------------------------

  Dipole Moment: [D]
     X:    -0.7550      Y:     2.2771      Z:    -2.6213     Total:     3.5534

*** Psi4 exiting successfully. Buy a developer a beer!
