                               Psi4 1.3.2 release

  ==> Input File <==

--------------------------------------------------------------------------
#psi4
#
memory 32 gb

molecule  {
0 1
  O        0.3109550    -0.6942360     1.0654250
  N       -0.6919670     0.7804610    -0.3498900
  C       -2.0331630     0.4428770     0.0915860
  C        1.7355170     0.5659250    -0.4538020
  C        0.4068390     0.1581200     0.1784230
  C       -2.5721020    -0.8329900    -0.5555930
  C        2.8806560    -0.3237650     0.0245060
  H       -1.9910630     0.3248240     1.1818950
  H       -2.6829100     1.2983230    -0.1207890
  H        1.6432190     0.5393270    -1.5482860
  H        1.9198310     1.6196100    -0.1921910
  H       -0.5873916     1.3249720    -1.0774026
  H       -2.6081430    -0.7287990    -1.6478990
  H       -1.9207320    -1.6762470    -0.2982990
  H       -3.5840310    -1.0569410    -0.1969260
  H        2.7105400    -1.3693420    -0.2530710
  H        3.8280690     0.0048160    -0.4188000
  H        2.9664850    -0.2871200     1.1156770
units angstrom
no_reorient  #important for SAPT in psi4, default
symmetry c1  #important for SAPT in psi4, default
}

set PROPERTIES_ORIGIN ["COM"]
properties('MP2/aug-cc-pvtz', properties = ['dipole'])
--------------------------------------------------------------------------

    Molecular point group: c1
  Charge       = 0
  Multiplicity = 1
  Basis Set: AUG-CC-PVTZ
    Blend: AUG-CC-PVTZ
  Basis Set: (AUG-CC-PVTZ AUX)
    Blend: AUG-CC-PVTZ-JKFIT

    Orbital Energies [Eh]
    ---------------------

    Doubly Occupied:

       1A    -20.514675     2A    -15.570736     3A    -11.346363
       4A    -11.262220     5A    -11.243134     6A    -11.216539
       7A    -11.215278     8A     -1.370109     9A     -1.238377
      10A     -1.055041    11A     -1.009151    12A     -0.895471
      13A     -0.839183    14A     -0.798746    15A     -0.694462
      16A     -0.650257    17A     -0.634498    18A     -0.605294
      19A     -0.590572    20A     -0.576134    21A     -0.535159
      22A     -0.515289    23A     -0.513805    24A     -0.512931
      25A     -0.495758    26A     -0.482831    27A     -0.419252
      28A     -0.388230

  @DF-RHF Final Energy:  -325.19272462002016

   => Energetics <=

    Nuclear Repulsion Energy =            314.3003175170860573
    One-Electron Energy =               -1064.6070943103936770
    Two-Electron Energy =                 425.1140521732874049
    Total Energy =                       -325.1927246200201580
  Basis Set: (AUG-CC-PVTZ AUX)
    Blend: AUG-CC-PVTZ-RI
    Molecular point group: c1

    Geometry (in Angstrom), charge = 0, multiplicity = 1:

       Center              X                  Y                   Z               Mass
    ------------   -----------------  -----------------  -----------------  -----------------
         O            0.311069008916    -0.693642267733     1.064632088498    15.994914619570
         N           -0.691852991084     0.781054732267    -0.350682911502    14.003074004430
         C           -2.033048991084     0.443470732267     0.090793088498    12.000000000000
         C            1.735631008916     0.566518732267    -0.454594911502    12.000000000000
         C            0.406953008916     0.158713732267     0.177630088498    12.000000000000
         C           -2.571987991084    -0.832396267733    -0.556385911502    12.000000000000
         C            2.880770008916    -0.323171267733     0.023713088498    12.000000000000
         H           -1.990948991084     0.325417732267     1.181102088498     1.007825032230
         H           -2.682795991084     1.298916732267    -0.121581911502     1.007825032230
         H            1.643333008916     0.539920732267    -1.549078911502     1.007825032230
         H            1.919945008916     1.620203732267    -0.192983911502     1.007825032230
         H           -0.587277591084     1.325565732267    -1.078195511502     1.007825032230
         H           -2.608028991084    -0.728205267733    -1.648691911502     1.007825032230
         H           -1.920617991084    -1.675653267733    -0.299091911502     1.007825032230
         H           -3.583916991084    -1.056347267733    -0.197718911502     1.007825032230
         H            2.710654008916    -1.368748267733    -0.253863911502     1.007825032230
         H            3.828183008916     0.005409732267    -0.419592911502     1.007825032230
         H            2.966599008916    -0.286526267733     1.114884088498     1.007825032230

  Basis Set: AUG-CC-PVTZ
    Blend: AUG-CC-PVTZ
  Basis Set: (AUG-CC-PVTZ AUX)
    Blend: AUG-CC-PVTZ-JKFIT
	 Reference Energy          =    -325.1927246200201580 [Eh]
	 Singles Energy            =      -0.0000000000000000 [Eh]
	 Same-Spin Energy          =      -0.3311185551031818 [Eh]
	 Opposite-Spin Energy      =      -1.1178331902214402 [Eh]
	 Correlation Energy        =      -1.4489517453246221 [Eh]
	 Total Energy              =    -326.6416763653447788 [Eh]

	 ================> DF-SCS-MP2 Energies <==================
	-----------------------------------------------------------
	 SCS Same-Spin Scale       =       0.3333333333333333 [-]
	 SCS Opposite-Spin Scale   =       1.2000000000000000 [-]
	 SCS Same-Spin Energy      =      -0.1103728517010606 [Eh]
	 SCS Opposite-Spin Energy  =      -1.3413998282657282 [Eh]
	 SCS Correlation Energy    =      -1.4517726799667887 [Eh]
	 SCS Total Energy          =    -326.6444972999869378 [Eh]
	-----------------------------------------------------------

  Dipole Moment: [D]
     X:    -0.6847      Y:     2.1967      Z:    -2.5227     Total:     3.4144

*** Psi4 exiting successfully. Buy a developer a beer!
