                               Psi4 1.3.2 release

  ==> Input File <==

--------------------------------------------------------------------------
#psi4
#
memory 32 gb

molecule  {
0 1
  O        0.3109550    -0.6942360     1.0654250
  N       -0.6919670     0.7804610    -0.3498900
  C       -1.8483975     0.4893832     0.0307675
  C        1.7355170     0.5659250    -0.4538020
  C        0.4068390     0.1581200     0.1784230
  C       -2.5721020    -0.8329900    -0.5555930
  C        2.8806560    -0.3237650     0.0245060
  H       -1.9910630     0.3248240     1.1818950
  H       -2.6829100     1.2983230    -0.1207890
  H        1.6432190     0.5393270    -1.5482860
  H        1.9198310     1.6196100    -0.1921910
  H       -0.5759590     1.3845000    -1.1569370
  H       -2.6081430    -0.7287990    -1.6478990
  H       -1.9207320    -1.6762470    -0.2982990
  H       -3.5840310    -1.0569410    -0.1969260
  H        2.7105400    -1.3693420    -0.2530710
  H        3.8280690     0.0048160    -0.4188000
  H        2.9664850    -0.2871200     1.1156770
units angstrom
no_reorient  #important for SAPT in psi4, default
symmetry c1  #important for SAPT in psi4, default
}

set PROPERTIES_ORIGIN ["COM"]
properties('MP2/aug-cc-pvtz', properties = ['dipole'])
--------------------------------------------------------------------------

    Molecular point group: c1
  Charge       = 0
  Multiplicity = 1
  Basis Set: AUG-CC-PVTZ
    Blend: AUG-CC-PVTZ
  Basis Set: (AUG-CC-PVTZ AUX)
    Blend: AUG-CC-PVTZ-JKFIT

    Orbital Energies [Eh]
    ---------------------

    Doubly Occupied:

       1A    -20.525217     2A    -15.587492     3A    -11.354850
       4A    -11.262898     5A    -11.248975     6A    -11.220651
       7A    -11.209646     8A     -1.386619     9A     -1.283416
      10A     -1.062252    11A     -0.986808    12A     -0.910321
      13A     -0.837383    14A     -0.798726    15A     -0.703586
      16A     -0.678536    17A     -0.645633    18A     -0.608138
      19A     -0.597060    20A     -0.563598    21A     -0.534836
      22A     -0.526065    23A     -0.519519    24A     -0.504201
      25A     -0.484469    26A     -0.457666    27A     -0.428509
      28A     -0.367273

  @DF-RHF Final Energy:  -325.14591146663230

   => Energetics <=

    Nuclear Repulsion Energy =            316.5648166024888610
    One-Electron Energy =               -1068.8327706601812679
    Two-Electron Energy =                 427.1220425910600511
    Total Energy =                       -325.1459114666322989
  Basis Set: (AUG-CC-PVTZ AUX)
    Blend: AUG-CC-PVTZ-RI
    Molecular point group: c1

    Geometry (in Angstrom), charge = 0, multiplicity = 1:

       Center              X                  Y                   Z               Mass
    ------------   -----------------  -----------------  -----------------  -----------------
         O            0.289020943448    -0.699756665831     1.072645010885    15.994914619570
         N           -0.713901056552     0.774940334169    -0.342669989115    14.003074004430
         C           -1.870331556552     0.483862534169     0.037987510885    12.000000000000
         C            1.713582943448     0.560404334169    -0.446581989115    12.000000000000
         C            0.384904943448     0.152599334169     0.185643010885    12.000000000000
         C           -2.594036056552    -0.838510665831    -0.548372989115    12.000000000000
         C            2.858721943448    -0.329285665831     0.031726010885    12.000000000000
         H           -2.012997056552     0.319303334169     1.189115010885     1.007825032230
         H           -2.704844056552     1.292802334169    -0.113568989115     1.007825032230
         H            1.621284943448     0.533806334169    -1.541065989115     1.007825032230
         H            1.897896943448     1.614089334169    -0.184970989115     1.007825032230
         H           -0.597893056552     1.378979334169    -1.149716989115     1.007825032230
         H           -2.630077056552    -0.734319665831    -1.640678989115     1.007825032230
         H           -1.942666056552    -1.681767665831    -0.291078989115     1.007825032230
         H           -3.605965056552    -1.062461665831    -0.189705989115     1.007825032230
         H            2.688605943448    -1.374862665831    -0.245850989115     1.007825032230
         H            3.806134943448    -0.000704665831    -0.411579989115     1.007825032230
         H            2.944550943448    -0.292640665831     1.122897010885     1.007825032230

  Basis Set: AUG-CC-PVTZ
    Blend: AUG-CC-PVTZ
  Basis Set: (AUG-CC-PVTZ AUX)
    Blend: AUG-CC-PVTZ-JKFIT
	 Reference Energy          =    -325.1459114666322989 [Eh]
	 Singles Energy            =      -0.0000000000000000 [Eh]
	 Same-Spin Energy          =      -0.3344940537953345 [Eh]
	 Opposite-Spin Energy      =      -1.1224567959509915 [Eh]
	 Correlation Energy        =      -1.4569508497463259 [Eh]
	 Total Energy              =    -326.6028623163786051 [Eh]

	 ================> DF-SCS-MP2 Energies <==================
	-----------------------------------------------------------
	 SCS Same-Spin Scale       =       0.3333333333333333 [-]
	 SCS Opposite-Spin Scale   =       1.2000000000000000 [-]
	 SCS Same-Spin Energy      =      -0.1114980179317782 [Eh]
	 SCS Opposite-Spin Energy  =      -1.3469481551411897 [Eh]
	 SCS Correlation Energy    =      -1.4584461730729679 [Eh]
	 SCS Total Energy          =    -326.6043576397052561 [Eh]
	-----------------------------------------------------------

  Dipole Moment: [D]
     X:     0.0326      Y:     2.3839      Z:    -2.5936     Total:     3.5230

*** Psi4 exiting successfully. Buy a developer a beer!
