                               Psi4 1.3.2 release

  ==> Input File <==

--------------------------------------------------------------------------
#psi4
#
memory 32 gb

molecule  {
0 1
  O        0.3109550    -0.6942360     1.0654250
  N       -0.6848898     0.7864416    -0.3574294
  C       -2.0331630     0.4428770     0.0915860
  C        1.7290209     0.5742094    -0.4619699
  C        0.4068390     0.1581200     0.1784230
  C       -2.5721020    -0.8329900    -0.5555930
  C        2.8806560    -0.3237650     0.0245060
  H       -1.9910630     0.3248240     1.1818950
  H       -2.6829100     1.2983230    -0.1207890
  H        1.6432190     0.5393270    -1.5482860
  H        1.9198310     1.6196100    -0.1921910
  H       -0.5759590     1.3845000    -1.1569370
  H       -2.6081430    -0.7287990    -1.6478990
  H       -1.9207320    -1.6762470    -0.2982990
  H       -3.5840310    -1.0569410    -0.1969260
  H        2.7105400    -1.3693420    -0.2530710
  H        3.8280690     0.0048160    -0.4188000
  H        2.9664850    -0.2871200     1.1156770
units angstrom
no_reorient  #important for SAPT in psi4, default
symmetry c1  #important for SAPT in psi4, default
}

set PROPERTIES_ORIGIN ["COM"]
properties('MP2/aug-cc-pvtz', properties = ['dipole'])
--------------------------------------------------------------------------

    Molecular point group: c1
  Charge       = 0
  Multiplicity = 1
  Basis Set: AUG-CC-PVTZ
    Blend: AUG-CC-PVTZ
  Basis Set: (AUG-CC-PVTZ AUX)
    Blend: AUG-CC-PVTZ-JKFIT

    Orbital Energies [Eh]
    ---------------------

    Doubly Occupied:

       1A    -20.515081     2A    -15.580255     3A    -11.346280
       4A    -11.262904     5A    -11.241290     6A    -11.216230
       7A    -11.215385     8A     -1.368730     9A     -1.224659
      10A     -1.052946    11A     -1.005881    12A     -0.893455
      13A     -0.835891    14A     -0.779511    15A     -0.692195
      16A     -0.647042    17A     -0.634499    18A     -0.604480
      19A     -0.588298    20A     -0.573213    21A     -0.533486
      22A     -0.514963    23A     -0.513667    24A     -0.508060
      25A     -0.496202    26A     -0.483723    27A     -0.418737
      28A     -0.387441

  @DF-RHF Final Energy:  -325.19827692563638

   => Energetics <=

    Nuclear Repulsion Energy =            313.4961953297284367
    One-Electron Energy =               -1063.1199352341727717
    Two-Electron Energy =                 424.4254629788080138
    Total Energy =                       -325.1982769256363781
  Basis Set: (AUG-CC-PVTZ AUX)
    Blend: AUG-CC-PVTZ-RI
    Molecular point group: c1

    Geometry (in Angstrom), charge = 0, multiplicity = 1:

       Center              X                  Y                   Z               Mass
    ------------   -----------------  -----------------  -----------------  -----------------
         O            0.310745798565    -0.696047724966     1.067439121815    15.994914619570
         N           -0.685099001435     0.784629875034    -0.355415278185    14.003074004430
         C           -2.033372201435     0.441065275034     0.093600121815    12.000000000000
         C            1.728811698565     0.572397675034    -0.459955778185    12.000000000000
         C            0.406629798565     0.156308275034     0.180437121815    12.000000000000
         C           -2.572311201435    -0.834801724966    -0.553578878185    12.000000000000
         C            2.880446798565    -0.325576724966     0.026520121815    12.000000000000
         H           -1.991272201435     0.323012275034     1.183909121815     1.007825032230
         H           -2.683119201435     1.296511275034    -0.118774878185     1.007825032230
         H            1.643009798565     0.537515275034    -1.546271878185     1.007825032230
         H            1.919621798565     1.617798275034    -0.190176878185     1.007825032230
         H           -0.576168201435     1.382688275034    -1.154922878185     1.007825032230
         H           -2.608352201435    -0.730610724966    -1.645884878185     1.007825032230
         H           -1.920941201435    -1.678058724966    -0.296284878185     1.007825032230
         H           -3.584240201435    -1.058752724966    -0.194911878185     1.007825032230
         H            2.710330798565    -1.371153724966    -0.251056878185     1.007825032230
         H            3.827859798565     0.003004275034    -0.416785878185     1.007825032230
         H            2.966275798565    -0.288931724966     1.117691121815     1.007825032230

  Basis Set: AUG-CC-PVTZ
    Blend: AUG-CC-PVTZ
  Basis Set: (AUG-CC-PVTZ AUX)
    Blend: AUG-CC-PVTZ-JKFIT
	 Reference Energy          =    -325.1982769256363781 [Eh]
	 Singles Energy            =      -0.0000000000000000 [Eh]
	 Same-Spin Energy          =      -0.3316919604950410 [Eh]
	 Opposite-Spin Energy      =      -1.1193522919229246 [Eh]
	 Correlation Energy        =      -1.4510442524179656 [Eh]
	 Total Energy              =    -326.6493211780543220 [Eh]

	 ================> DF-SCS-MP2 Energies <==================
	-----------------------------------------------------------
	 SCS Same-Spin Scale       =       0.3333333333333333 [-]
	 SCS Opposite-Spin Scale   =       1.2000000000000000 [-]
	 SCS Same-Spin Energy      =      -0.1105639868316803 [Eh]
	 SCS Opposite-Spin Energy  =      -1.3432227503075096 [Eh]
	 SCS Correlation Energy    =      -1.4537867371391899 [Eh]
	 SCS Total Energy          =    -326.6520636627755607 [Eh]
	-----------------------------------------------------------

  Dipole Moment: [D]
     X:    -0.7349      Y:     2.2349      Z:    -2.5725     Total:     3.4860

*** Psi4 exiting successfully. Buy a developer a beer!
