                               Psi4 1.3.2 release

  ==> Input File <==

--------------------------------------------------------------------------
#psi4
#
memory 32 gb

molecule  {
0 1
  O        0.3109550    -0.6942360     1.0654250
  N       -0.6919670     0.7804610    -0.3498900
  C       -2.0331630     0.4428770     0.0915860
  C        1.7355170     0.5659250    -0.4538020
  C        0.4121701     0.1597340     0.1905275
  C       -2.5721020    -0.8329900    -0.5555930
  C        2.8806560    -0.3237650     0.0245060
  H       -1.9910630     0.3248240     1.1818950
  H       -2.6829100     1.2983230    -0.1207890
  H        1.6523547     0.5421256    -1.5490824
  H        1.9198310     1.6196100    -0.1921910
  H       -0.5759590     1.3845000    -1.1569370
  H       -2.6081430    -0.7287990    -1.6478990
  H       -1.9207320    -1.6762470    -0.2982990
  H       -3.5840310    -1.0569410    -0.1969260
  H        2.7105400    -1.3693420    -0.2530710
  H        3.8280690     0.0048160    -0.4188000
  H        2.9664850    -0.2871200     1.1156770
units angstrom
no_reorient  #important for SAPT in psi4, default
symmetry c1  #important for SAPT in psi4, default
}

set PROPERTIES_ORIGIN ["COM"]
properties('MP2/aug-cc-pvtz', properties = ['dipole'])
--------------------------------------------------------------------------

    Molecular point group: c1
  Charge       = 0
  Multiplicity = 1
  Basis Set: AUG-CC-PVTZ
    Blend: AUG-CC-PVTZ
  Basis Set: (AUG-CC-PVTZ AUX)
    Blend: AUG-CC-PVTZ-JKFIT

    Orbital Energies [Eh]
    ---------------------

    Doubly Occupied:

       1A    -20.516387     2A    -15.579209     3A    -11.346554
       4A    -11.261325     5A    -11.242574     6A    -11.216263
       7A    -11.214410     8A     -1.373477     9A     -1.222901
      10A     -1.054522    11A     -1.005175    12A     -0.893554
      13A     -0.835120    14A     -0.774808    15A     -0.693343
      16A     -0.647926    17A     -0.633668    18A     -0.606532
      19A     -0.587533    20A     -0.573360    21A     -0.534619
      22A     -0.515622    23A     -0.514033    24A     -0.511103
      25A     -0.494955    26A     -0.483098    27A     -0.419572
      28A     -0.385796

  @DF-RHF Final Energy:  -325.19832737892949

   => Energetics <=

    Nuclear Repulsion Energy =            313.6529120325995450
    One-Electron Energy =               -1063.4276013747532943
    Two-Electron Energy =                 424.5763619632243149
    Total Energy =                       -325.1983273789294913
  Basis Set: (AUG-CC-PVTZ AUX)
    Blend: AUG-CC-PVTZ-RI
    Molecular point group: c1

    Geometry (in Angstrom), charge = 0, multiplicity = 1:

       Center              X                  Y                   Z               Mass
    ------------   -----------------  -----------------  -----------------  -----------------
         O            0.310231068253    -0.694455277266     1.063996037608    15.994914619570
         N           -0.692690931747     0.780241722734    -0.351318962392    14.003074004430
         C           -2.033886931747     0.442657722734     0.090157037608    12.000000000000
         C            1.734793068253     0.565705722734    -0.455230962392    12.000000000000
         C            0.411446168253     0.159514722734     0.189098537608    12.000000000000
         C           -2.572825931747    -0.833209277266    -0.557021962392    12.000000000000
         C            2.879932068253    -0.323984277266     0.023077037608    12.000000000000
         H           -1.991786931747     0.324604722734     1.180466037608     1.007825032230
         H           -2.683633931747     1.298103722734    -0.122217962392     1.007825032230
         H            1.651630768253     0.541906322734    -1.550511362392     1.007825032230
         H            1.919107068253     1.619390722734    -0.193619962392     1.007825032230
         H           -0.576682931747     1.384280722734    -1.158365962392     1.007825032230
         H           -2.608866931747    -0.729018277266    -1.649327962392     1.007825032230
         H           -1.921455931747    -1.676466277266    -0.299727962392     1.007825032230
         H           -3.584754931747    -1.057160277266    -0.198354962392     1.007825032230
         H            2.709816068253    -1.369561277266    -0.254499962392     1.007825032230
         H            3.827345068253     0.004596722734    -0.420228962392     1.007825032230
         H            2.965761068253    -0.287339277266     1.114248037608     1.007825032230

  Basis Set: AUG-CC-PVTZ
    Blend: AUG-CC-PVTZ
  Basis Set: (AUG-CC-PVTZ AUX)
    Blend: AUG-CC-PVTZ-JKFIT
	 Reference Energy          =    -325.1983273789294913 [Eh]
	 Singles Energy            =      -0.0000000000000000 [Eh]
	 Same-Spin Energy          =      -0.3317277045777330 [Eh]
	 Opposite-Spin Energy      =      -1.1192565511439980 [Eh]
	 Correlation Energy        =      -1.4509842557217310 [Eh]
	 Total Energy              =    -326.6493116346512124 [Eh]

	 ================> DF-SCS-MP2 Energies <==================
	-----------------------------------------------------------
	 SCS Same-Spin Scale       =       0.3333333333333333 [-]
	 SCS Opposite-Spin Scale   =       1.2000000000000000 [-]
	 SCS Same-Spin Energy      =      -0.1105759015259110 [Eh]
	 SCS Opposite-Spin Energy  =      -1.3431078613727976 [Eh]
	 SCS Correlation Energy    =      -1.4536837628987085 [Eh]
	 SCS Total Energy          =    -326.6520111418282113 [Eh]
	-----------------------------------------------------------

  Dipole Moment: [D]
     X:    -0.6462      Y:     2.2133      Z:    -2.5381     Total:     3.4290

*** Psi4 exiting successfully. Buy a developer a beer!
