                               Psi4 1.3.2 release

  ==> Input File <==

--------------------------------------------------------------------------
#psi4
#
memory 32 gb

molecule  {
0 1
  O        0.3109550    -0.6942360     1.0654250
  N       -0.6840175     0.7793568    -0.3258566
  C       -2.0331630     0.4428770     0.0915860
  C        1.7355170     0.5659250    -0.4538020
  C        0.4068390     0.1581200     0.1784230
  C       -2.5721020    -0.8329900    -0.5555930
  C        2.8806560    -0.3237650     0.0245060
  H       -1.9723461     0.3288700     1.1814421
  H       -2.6829100     1.2983230    -0.1207890
  H        1.6432190     0.5393270    -1.5482860
  H        1.9198310     1.6196100    -0.1921910
  H       -0.5759590     1.3845000    -1.1569370
  H       -2.6081430    -0.7287990    -1.6478990
  H       -1.9207320    -1.6762470    -0.2982990
  H       -3.5840310    -1.0569410    -0.1969260
  H        2.7105400    -1.3693420    -0.2530710
  H        3.8280690     0.0048160    -0.4188000
  H        2.9664850    -0.2871200     1.1156770
units angstrom
no_reorient  #important for SAPT in psi4, default
symmetry c1  #important for SAPT in psi4, default
}

set PROPERTIES_ORIGIN ["COM"]
properties('MP2/aug-cc-pvtz', properties = ['dipole'])
--------------------------------------------------------------------------

    Molecular point group: c1
  Charge       = 0
  Multiplicity = 1
  Basis Set: AUG-CC-PVTZ
    Blend: AUG-CC-PVTZ
  Basis Set: (AUG-CC-PVTZ AUX)
    Blend: AUG-CC-PVTZ-JKFIT

    Orbital Energies [Eh]
    ---------------------

    Doubly Occupied:

       1A    -20.511207     2A    -15.582800     3A    -11.343487
       4A    -11.262815     5A    -11.242229     6A    -11.216072
       7A    -11.215713     8A     -1.368847     9A     -1.226085
      10A     -1.054514    11A     -1.007341    12A     -0.895053
      13A     -0.837020    14A     -0.773787    15A     -0.692084
      16A     -0.647773    17A     -0.634095    18A     -0.605421
      19A     -0.587063    20A     -0.573318    21A     -0.535304
      22A     -0.514404    23A     -0.513263    24A     -0.510431
      25A     -0.495679    26A     -0.482481    27A     -0.417614
      28A     -0.386481

  @DF-RHF Final Energy:  -325.19761717633924

   => Energetics <=

    Nuclear Repulsion Energy =            313.9620829592751647
    One-Electron Energy =               -1064.0546373420684176
    Two-Electron Energy =                 424.8949372064539602
    Total Energy =                       -325.1976171763392358
  Basis Set: (AUG-CC-PVTZ AUX)
    Blend: AUG-CC-PVTZ-RI
    Molecular point group: c1

    Geometry (in Angstrom), charge = 0, multiplicity = 1:

       Center              X                  Y                   Z               Mass
    ------------   -----------------  -----------------  -----------------  -----------------
         O            0.309667177094    -0.694123147432     1.062100252465    15.994914619570
         N           -0.685305322906     0.779469652568    -0.329181347535    14.003074004430
         C           -2.034450822906     0.442989852568     0.088261252465    12.000000000000
         C            1.734229177094     0.566037852568    -0.457126747535    12.000000000000
         C            0.405551177094     0.158232852568     0.175098252465    12.000000000000
         C           -2.573389822906    -0.832877147432    -0.558917747535    12.000000000000
         C            2.879368177094    -0.323652147432     0.021181252465    12.000000000000
         H           -1.973633922906     0.328982852568     1.178117352465     1.007825032230
         H           -2.684197822906     1.298435852568    -0.124113747535     1.007825032230
         H            1.641931177094     0.539439852568    -1.551610747535     1.007825032230
         H            1.918543177094     1.619722852568    -0.195515747535     1.007825032230
         H           -0.577246822906     1.384612852568    -1.160261747535     1.007825032230
         H           -2.609430822906    -0.728686147432    -1.651223747535     1.007825032230
         H           -1.922019822906    -1.676134147432    -0.301623747535     1.007825032230
         H           -3.585318822906    -1.056828147432    -0.200250747535     1.007825032230
         H            2.709252177094    -1.369229147432    -0.256395747535     1.007825032230
         H            3.826781177094     0.004928852568    -0.422124747535     1.007825032230
         H            2.965197177094    -0.287007147432     1.112352252465     1.007825032230

  Basis Set: AUG-CC-PVTZ
    Blend: AUG-CC-PVTZ
  Basis Set: (AUG-CC-PVTZ AUX)
    Blend: AUG-CC-PVTZ-JKFIT
	 Reference Energy          =    -325.1976171763392358 [Eh]
	 Singles Energy            =      -0.0000000000000000 [Eh]
	 Same-Spin Energy          =      -0.3319158000083003 [Eh]
	 Opposite-Spin Energy      =      -1.1195000661146945 [Eh]
	 Correlation Energy        =      -1.4514158661229950 [Eh]
	 Total Energy              =    -326.6490330424622357 [Eh]

	 ================> DF-SCS-MP2 Energies <==================
	-----------------------------------------------------------
	 SCS Same-Spin Scale       =       0.3333333333333333 [-]
	 SCS Opposite-Spin Scale   =       1.2000000000000000 [-]
	 SCS Same-Spin Energy      =      -0.1106386000027668 [Eh]
	 SCS Opposite-Spin Energy  =      -1.3434000793376335 [Eh]
	 SCS Correlation Energy    =      -1.4540386793404003 [Eh]
	 SCS Total Energy          =    -326.6516558556796213 [Eh]
	-----------------------------------------------------------

  Dipole Moment: [D]
     X:    -0.7682      Y:     2.2596      Z:    -2.6424     Total:     3.5606

*** Psi4 exiting successfully. Buy a developer a beer!
