                               Psi4 1.3.2 release

  ==> Input File <==

--------------------------------------------------------------------------
#psi4
#
memory 32 gb

molecule  {
0 1
  O        0.3109550    -0.6942360     1.0654250
  N       -0.6919670     0.7804610    -0.3498900
  C       -2.0131645     0.4090001     0.1235280
  C        1.7355170     0.5659250    -0.4538020
  C        0.3778087     0.1323382     0.2062704
  C       -2.5721020    -0.8329900    -0.5555930
  C        2.8806560    -0.3237650     0.0245060
  H       -1.9910630     0.3248240     1.1818950
  H       -2.6829100     1.2983230    -0.1207890
  H        1.6432190     0.5393270    -1.5482860
  H        1.9198310     1.6196100    -0.1921910
  H       -0.5759590     1.3845000    -1.1569370
  H       -2.6081430    -0.7287990    -1.6478990
  H       -1.9207320    -1.6762470    -0.2982990
  H       -3.5840310    -1.0569410    -0.1969260
  H        2.7105400    -1.3693420    -0.2530710
  H        3.8280690     0.0048160    -0.4188000
  H        2.9664850    -0.2871200     1.1156770
units angstrom
no_reorient  #important for SAPT in psi4, default
symmetry c1  #important for SAPT in psi4, default
}

set PROPERTIES_ORIGIN ["COM"]
properties('MP2/aug-cc-pvtz', properties = ['dipole'])
--------------------------------------------------------------------------

    Molecular point group: c1
  Charge       = 0
  Multiplicity = 1
  Basis Set: AUG-CC-PVTZ
    Blend: AUG-CC-PVTZ
  Basis Set: (AUG-CC-PVTZ AUX)
    Blend: AUG-CC-PVTZ-JKFIT

    Orbital Energies [Eh]
    ---------------------

    Doubly Occupied:

       1A    -20.520381     2A    -15.578493     3A    -11.342793
       4A    -11.262062     5A    -11.239092     6A    -11.215362
       7A    -11.213831     8A     -1.395159     9A     -1.228852
      10A     -1.046695    11A     -1.005802    12A     -0.887763
      13A     -0.832023    14A     -0.781683    15A     -0.690445
      16A     -0.653160    17A     -0.631816    18A     -0.606927
      19A     -0.591769    20A     -0.578153    21A     -0.536198
      22A     -0.517782    23A     -0.516121    24A     -0.510680
      25A     -0.491598    26A     -0.486597    27A     -0.413771
      28A     -0.389827

  @DF-RHF Final Energy:  -325.19510258191679

   => Energetics <=

    Nuclear Repulsion Energy =            314.3261472740982185
    One-Electron Energy =               -1064.7128244471375638
    Two-Electron Energy =                 425.1915745911225031
    Total Energy =                       -325.1951025819167853
  Basis Set: (AUG-CC-PVTZ AUX)
    Blend: AUG-CC-PVTZ-RI
    Molecular point group: c1

    Geometry (in Angstrom), charge = 0, multiplicity = 1:

       Center              X                  Y                   Z               Mass
    ------------   -----------------  -----------------  -----------------  -----------------
         O            0.312027216726    -0.687153504166     1.058327276289    15.994914619570
         N           -0.690894783274     0.787543495834    -0.356987723711    14.003074004430
         C           -2.012092283274     0.416082595834     0.116430276289    12.000000000000
         C            1.736589216726     0.573007495834    -0.460899723711    12.000000000000
         C            0.378880916726     0.139420695834     0.199172676289    12.000000000000
         C           -2.571029783274    -0.825907504166    -0.562690723711    12.000000000000
         C            2.881728216726    -0.316682504166     0.017408276289    12.000000000000
         H           -1.989990783274     0.331906495834     1.174797276289     1.007825032230
         H           -2.681837783274     1.305405495834    -0.127886723711     1.007825032230
         H            1.644291216726     0.546409495834    -1.555383723711     1.007825032230
         H            1.920903216726     1.626692495834    -0.199288723711     1.007825032230
         H           -0.574886783274     1.391582495834    -1.164034723711     1.007825032230
         H           -2.607070783274    -0.721716504166    -1.654996723711     1.007825032230
         H           -1.919659783274    -1.669164504166    -0.305396723711     1.007825032230
         H           -3.582958783274    -1.049858504166    -0.204023723711     1.007825032230
         H            2.711612216726    -1.362259504166    -0.260168723711     1.007825032230
         H            3.829141216726     0.011898495834    -0.425897723711     1.007825032230
         H            2.967557216726    -0.280037504166     1.108579276289     1.007825032230

  Basis Set: AUG-CC-PVTZ
    Blend: AUG-CC-PVTZ
  Basis Set: (AUG-CC-PVTZ AUX)
    Blend: AUG-CC-PVTZ-JKFIT
	 Reference Energy          =    -325.1951025819167853 [Eh]
	 Singles Energy            =      -0.0000000000000000 [Eh]
	 Same-Spin Energy          =      -0.3310204157692071 [Eh]
	 Opposite-Spin Energy      =      -1.1178723335952818 [Eh]
	 Correlation Energy        =      -1.4488927493644890 [Eh]
	 Total Energy              =    -326.6439953312812463 [Eh]

	 ================> DF-SCS-MP2 Energies <==================
	-----------------------------------------------------------
	 SCS Same-Spin Scale       =       0.3333333333333333 [-]
	 SCS Opposite-Spin Scale   =       1.2000000000000000 [-]
	 SCS Same-Spin Energy      =      -0.1103401385897357 [Eh]
	 SCS Opposite-Spin Energy  =      -1.3414468003143381 [Eh]
	 SCS Correlation Energy    =      -1.4517869389040738 [Eh]
	 SCS Total Energy          =    -326.6468895208208778 [Eh]
	-----------------------------------------------------------

  Dipole Moment: [D]
     X:    -0.7982      Y:     2.0789      Z:    -2.4081     Total:     3.2799

*** Psi4 exiting successfully. Buy a developer a beer!
