                               Psi4 1.3.2 release

  ==> Input File <==

--------------------------------------------------------------------------
#psi4
#
memory 32 gb

molecule  {
0 1
  O        0.2896377    -0.6912009     1.0657757
  N       -0.6919670     0.7804610    -0.3498900
  C       -2.0331630     0.4428770     0.0915860
  C        1.7225318     0.5832160    -0.4693767
  C        0.4068390     0.1581200     0.1784230
  C       -2.5721020    -0.8329900    -0.5555930
  C        2.8806560    -0.3237650     0.0245060
  H       -1.9910630     0.3248240     1.1818950
  H       -2.6829100     1.2983230    -0.1207890
  H        1.6432190     0.5393270    -1.5482860
  H        1.9198310     1.6196100    -0.1921910
  H       -0.5759590     1.3845000    -1.1569370
  H       -2.6081430    -0.7287990    -1.6478990
  H       -1.9207320    -1.6762470    -0.2982990
  H       -3.5840310    -1.0569410    -0.1969260
  H        2.7105400    -1.3693420    -0.2530710
  H        3.8280690     0.0048160    -0.4188000
  H        2.9664850    -0.2871200     1.1156770
units angstrom
no_reorient  #important for SAPT in psi4, default
symmetry c1  #important for SAPT in psi4, default
}

set PROPERTIES_ORIGIN ["COM"]
properties('MP2/aug-cc-pvtz', properties = ['dipole'])
--------------------------------------------------------------------------

    Molecular point group: c1
  Charge       = 0
  Multiplicity = 1
  Basis Set: AUG-CC-PVTZ
    Blend: AUG-CC-PVTZ
  Basis Set: (AUG-CC-PVTZ AUX)
    Blend: AUG-CC-PVTZ-JKFIT

    Orbital Energies [Eh]
    ---------------------

    Doubly Occupied:

       1A    -20.514646     2A    -15.579548     3A    -11.346254
       4A    -11.261131     5A    -11.242428     6A    -11.217887
       7A    -11.214365     8A     -1.369227     9A     -1.223814
      10A     -1.053226    11A     -1.004569    12A     -0.894175
      13A     -0.836567    14A     -0.776025    15A     -0.693309
      16A     -0.647634    17A     -0.636322    18A     -0.604655
      19A     -0.586624    20A     -0.573074    21A     -0.532340
      22A     -0.516174    23A     -0.514141    24A     -0.506225
      25A     -0.497118    26A     -0.484107    27A     -0.419479
      28A     -0.385561

  @DF-RHF Final Energy:  -325.19748323731437

   => Energetics <=

    Nuclear Repulsion Energy =            313.6086891720790391
    One-Electron Energy =               -1063.3511001375904925
    Two-Electron Energy =                 424.5449277281970808
    Total Energy =                       -325.1974832373143727
  Basis Set: (AUG-CC-PVTZ AUX)
    Blend: AUG-CC-PVTZ-RI
    Molecular point group: c1

    Geometry (in Angstrom), charge = 0, multiplicity = 1:

       Center              X                  Y                   Z               Mass
    ------------   -----------------  -----------------  -----------------  -----------------
         O            0.294552354180    -0.693733595000     1.067569187703    15.994914619570
         N           -0.687052345820     0.777928305000    -0.348096512297    14.003074004430
         C           -2.028248345820     0.440344305000     0.093379487703    12.000000000000
         C            1.727446454180     0.580683305000    -0.467583212297    12.000000000000
         C            0.411753654180     0.155587305000     0.180216487703    12.000000000000
         C           -2.567187345820    -0.835522695000    -0.553799512297    12.000000000000
         C            2.885570654180    -0.326297695000     0.026299487703    12.000000000000
         H           -1.986148345820     0.322291305000     1.183688487703     1.007825032230
         H           -2.677995345820     1.295790305000    -0.118995512297     1.007825032230
         H            1.648133654180     0.536794305000    -1.546492512297     1.007825032230
         H            1.924745654180     1.617077305000    -0.190397512297     1.007825032230
         H           -0.571044345820     1.381967305000    -1.155143512297     1.007825032230
         H           -2.603228345820    -0.731331695000    -1.646105512297     1.007825032230
         H           -1.915817345820    -1.678779695000    -0.296505512297     1.007825032230
         H           -3.579116345820    -1.059473695000    -0.195132512297     1.007825032230
         H            2.715454654180    -1.371874695000    -0.251277512297     1.007825032230
         H            3.832983654180     0.002283305000    -0.417006512297     1.007825032230
         H            2.971399654180    -0.289652695000     1.117470487703     1.007825032230

  Basis Set: AUG-CC-PVTZ
    Blend: AUG-CC-PVTZ
  Basis Set: (AUG-CC-PVTZ AUX)
    Blend: AUG-CC-PVTZ-JKFIT
	 Reference Energy          =    -325.1974832373143727 [Eh]
	 Singles Energy            =      -0.0000000000000000 [Eh]
	 Same-Spin Energy          =      -0.3317953480104709 [Eh]
	 Opposite-Spin Energy      =      -1.1195096676268275 [Eh]
	 Correlation Energy        =      -1.4513050156372984 [Eh]
	 Total Energy              =    -326.6487882529516469 [Eh]

	 ================> DF-SCS-MP2 Energies <==================
	-----------------------------------------------------------
	 SCS Same-Spin Scale       =       0.3333333333333333 [-]
	 SCS Opposite-Spin Scale   =       1.2000000000000000 [-]
	 SCS Same-Spin Energy      =      -0.1105984493368236 [Eh]
	 SCS Opposite-Spin Energy  =      -1.3434116011521928 [Eh]
	 SCS Correlation Energy    =      -1.4540100504890165 [Eh]
	 SCS Total Energy          =    -326.6514932878033619 [Eh]
	-----------------------------------------------------------

  Dipole Moment: [D]
     X:    -0.6388      Y:     2.2455      Z:    -2.5852     Total:     3.4833

*** Psi4 exiting successfully. Buy a developer a beer!
