                               Psi4 1.3.2 release

  ==> Input File <==

--------------------------------------------------------------------------
#psi4
#
memory 32 gb

molecule  {
0 1
  O        0.3109550    -0.6942360     1.0654250
  N       -0.6919670     0.7804610    -0.3498900
  C       -2.0331630     0.4428770     0.0915860
  C        1.7355170     0.5659250    -0.4538020
  C        0.3964807     0.1549853     0.1540705
  C       -2.5721020    -0.8329900    -0.5555930
  C        2.8806560    -0.3237650     0.0245060
  H       -1.9910630     0.3248240     1.1818950
  H       -2.6829100     1.2983230    -0.1207890
  H        1.6249694     0.5337361    -1.5464432
  H        1.9198310     1.6196100    -0.1921910
  H       -0.5759590     1.3845000    -1.1569370
  H       -2.6081430    -0.7287990    -1.6478990
  H       -1.9207320    -1.6762470    -0.2982990
  H       -3.5840310    -1.0569410    -0.1969260
  H        2.7105400    -1.3693420    -0.2530710
  H        3.8280690     0.0048160    -0.4188000
  H        2.9664850    -0.2871200     1.1156770
units angstrom
no_reorient  #important for SAPT in psi4, default
symmetry c1  #important for SAPT in psi4, default
}

set PROPERTIES_ORIGIN ["COM"]
properties('MP2/aug-cc-pvtz', properties = ['dipole'])
--------------------------------------------------------------------------

    Molecular point group: c1
  Charge       = 0
  Multiplicity = 1
  Basis Set: AUG-CC-PVTZ
    Blend: AUG-CC-PVTZ
  Basis Set: (AUG-CC-PVTZ AUX)
    Blend: AUG-CC-PVTZ-JKFIT

    Orbital Energies [Eh]
    ---------------------

    Doubly Occupied:

       1A    -20.510141     2A    -15.584428     3A    -11.345170
       4A    -11.263886     5A    -11.242751     6A    -11.216129
       7A    -11.215860     8A     -1.360067     9A     -1.228877
      10A     -1.054524    11A     -1.008374    12A     -0.895597
      13A     -0.838000    14A     -0.779504    15A     -0.690460
      16A     -0.649487    17A     -0.634365    18A     -0.602770
      19A     -0.586318    20A     -0.573872    21A     -0.535425
      22A     -0.513623    23A     -0.512627    24A     -0.511113
      25A     -0.495920    26A     -0.480583    27A     -0.416144
      28A     -0.387378

  @DF-RHF Final Energy:  -325.19741415146092

   => Energetics <=

    Nuclear Repulsion Energy =            313.7149338377540175
    One-Electron Energy =               -1063.5579105497197361
    Two-Electron Energy =                 424.6455625605048567
    Total Energy =                       -325.1974141514609187
  Basis Set: (AUG-CC-PVTZ AUX)
    Blend: AUG-CC-PVTZ-RI
    Molecular point group: c1

    Geometry (in Angstrom), charge = 0, multiplicity = 1:

       Center              X                  Y                   Z               Mass
    ------------   -----------------  -----------------  -----------------  -----------------
         O            0.312366641185    -0.693807899771     1.068297646893    15.994914619570
         N           -0.690555358815     0.780889100229    -0.347017353107    14.003074004430
         C           -2.031751358815     0.443305100229     0.094458646893    12.000000000000
         C            1.736928641185     0.566353100229    -0.450929353107    12.000000000000
         C            0.397892341185     0.155413400229     0.156943146893    12.000000000000
         C           -2.570690358815    -0.832561899771    -0.552720353107    12.000000000000
         C            2.882067641185    -0.323336899771     0.027378646893    12.000000000000
         H           -1.989651358815     0.325252100229     1.184767646893     1.007825032230
         H           -2.681498358815     1.298751100229    -0.117916353107     1.007825032230
         H            1.626381041185     0.534164200229    -1.543570553107     1.007825032230
         H            1.921242641185     1.620038100229    -0.189318353107     1.007825032230
         H           -0.574547358815     1.384928100229    -1.154064353107     1.007825032230
         H           -2.606731358815    -0.728370899771    -1.645026353107     1.007825032230
         H           -1.919320358815    -1.675818899771    -0.295426353107     1.007825032230
         H           -3.582619358815    -1.056512899771    -0.194053353107     1.007825032230
         H            2.711951641185    -1.368913899771    -0.250198353107     1.007825032230
         H            3.829480641185     0.005244100229    -0.415927353107     1.007825032230
         H            2.967896641185    -0.286691899771     1.118549646893     1.007825032230

  Basis Set: AUG-CC-PVTZ
    Blend: AUG-CC-PVTZ
  Basis Set: (AUG-CC-PVTZ AUX)
    Blend: AUG-CC-PVTZ-JKFIT
	 Reference Energy          =    -325.1974141514609187 [Eh]
	 Singles Energy            =      -0.0000000000000000 [Eh]
	 Same-Spin Energy          =      -0.3320810408338150 [Eh]
	 Opposite-Spin Energy      =      -1.1198797081681640 [Eh]
	 Correlation Energy        =      -1.4519607490019788 [Eh]
	 Total Energy              =    -326.6493749004628739 [Eh]

	 ================> DF-SCS-MP2 Energies <==================
	-----------------------------------------------------------
	 SCS Same-Spin Scale       =       0.3333333333333333 [-]
	 SCS Opposite-Spin Scale   =       1.2000000000000000 [-]
	 SCS Same-Spin Energy      =      -0.1106936802779383 [Eh]
	 SCS Opposite-Spin Energy  =      -1.3438556498017966 [Eh]
	 SCS Correlation Energy    =      -1.4545493300797350 [Eh]
	 SCS Total Energy          =    -326.6519634815406334 [Eh]
	-----------------------------------------------------------

  Dipole Moment: [D]
     X:    -0.8077      Y:     2.3088      Z:    -2.6619     Total:     3.6150

*** Psi4 exiting successfully. Buy a developer a beer!
