                               Psi4 1.3.2 release

  ==> Input File <==

--------------------------------------------------------------------------
#psi4
#
memory 32 gb

molecule  {
0 1
  O        0.3109550    -0.6942360     1.0654250
  N       -0.6919670     0.7804610    -0.3498900
  C       -2.0331630     0.4428770     0.0915860
  C        1.7355170     0.5659250    -0.4538020
  C        0.4068390     0.1581200     0.1784230
  C       -2.5721020    -0.8329900    -0.5555930
  C        2.8806560    -0.3237650     0.0245060
  H       -1.9910630     0.3248240     1.1818950
  H       -2.6829100     1.2983230    -0.1207890
  H        1.6432190     0.5393270    -1.5482860
  H        1.9198310     1.6196100    -0.1921910
  H       -0.5988241     1.2654441    -0.9978682
  H       -2.6081430    -0.7287990    -1.6478990
  H       -1.9207320    -1.6762470    -0.2982990
  H       -3.5840310    -1.0569410    -0.1969260
  H        2.7105400    -1.3693420    -0.2530710
  H        3.8280690     0.0048160    -0.4188000
  H        2.9664850    -0.2871200     1.1156770
units angstrom
no_reorient  #important for SAPT in psi4, default
symmetry c1  #important for SAPT in psi4, default
}

set PROPERTIES_ORIGIN ["COM"]
properties('MP2/aug-cc-pvtz', properties = ['dipole'])
--------------------------------------------------------------------------

    Molecular point group: c1
  Charge       = 0
  Multiplicity = 1
  Basis Set: AUG-CC-PVTZ
    Blend: AUG-CC-PVTZ
  Basis Set: (AUG-CC-PVTZ AUX)
    Blend: AUG-CC-PVTZ-JKFIT

    Orbital Energies [Eh]
    ---------------------

    Doubly Occupied:

       1A    -20.515234     2A    -15.559358     3A    -11.346840
       4A    -11.262371     5A    -11.243639     6A    -11.216943
       7A    -11.215572     8A     -1.372169     9A     -1.256522
      10A     -1.055579    11A     -1.012997    12A     -0.897473
      13A     -0.847516    14A     -0.817295    15A     -0.696091
      16A     -0.651937    17A     -0.635106    18A     -0.605658
      19A     -0.593733    20A     -0.577872    21A     -0.535497
      22A     -0.516014    23A     -0.514244    24A     -0.513951
      25A     -0.496209    26A     -0.483308    27A     -0.420039
      28A     -0.390356

  @DF-RHF Final Energy:  -325.15574515742406

   => Energetics <=

    Nuclear Repulsion Energy =            315.0299943396169624
    One-Electron Energy =               -1065.8724291661574171
    Two-Electron Energy =                 425.6866896691164470
    Total Energy =                       -325.1557451574240645
  Basis Set: (AUG-CC-PVTZ AUX)
    Blend: AUG-CC-PVTZ-RI
    Molecular point group: c1

    Geometry (in Angstrom), charge = 0, multiplicity = 1:

       Center              X                  Y                   Z               Mass
    ------------   -----------------  -----------------  -----------------  -----------------
         O            0.311182992854    -0.693048764609     1.063839117222    15.994914619570
         N           -0.691739007146     0.781648235391    -0.351475882778    14.003074004430
         C           -2.032935007146     0.444064235391     0.090000117222    12.000000000000
         C            1.735744992854     0.567112235391    -0.455387882778    12.000000000000
         C            0.407066992854     0.159307235391     0.176837117222    12.000000000000
         C           -2.571874007146    -0.831802764609    -0.557178882778    12.000000000000
         C            2.880883992854    -0.322577764609     0.022920117222    12.000000000000
         H           -1.990835007146     0.326011235391     1.180309117222     1.007825032230
         H           -2.682682007146     1.299510235391    -0.122374882778     1.007825032230
         H            1.643446992854     0.540514235391    -1.549871882778     1.007825032230
         H            1.920058992854     1.620797235391    -0.193776882778     1.007825032230
         H           -0.598596107146     1.266631335391    -0.999454082778     1.007825032230
         H           -2.607915007146    -0.727611764609    -1.649484882778     1.007825032230
         H           -1.920504007146    -1.675059764609    -0.299884882778     1.007825032230
         H           -3.583803007146    -1.055753764609    -0.198511882778     1.007825032230
         H            2.710767992854    -1.368154764609    -0.254656882778     1.007825032230
         H            3.828296992854     0.006003235391    -0.420385882778     1.007825032230
         H            2.966712992854    -0.285932764609     1.114091117222     1.007825032230

  Basis Set: AUG-CC-PVTZ
    Blend: AUG-CC-PVTZ
  Basis Set: (AUG-CC-PVTZ AUX)
    Blend: AUG-CC-PVTZ-JKFIT
	 Reference Energy          =    -325.1557451574240645 [Eh]
	 Singles Energy            =      -0.0000000000000000 [Eh]
	 Same-Spin Energy          =      -0.3305248672275194 [Eh]
	 Opposite-Spin Energy      =      -1.1167286556389528 [Eh]
	 Correlation Energy        =      -1.4472535228664722 [Eh]
	 Total Energy              =    -326.6029986802905114 [Eh]

	 ================> DF-SCS-MP2 Energies <==================
	-----------------------------------------------------------
	 SCS Same-Spin Scale       =       0.3333333333333333 [-]
	 SCS Opposite-Spin Scale   =       1.2000000000000000 [-]
	 SCS Same-Spin Energy      =      -0.1101749557425065 [Eh]
	 SCS Opposite-Spin Energy  =      -1.3400743867667433 [Eh]
	 SCS Correlation Energy    =      -1.4502493425092498 [Eh]
	 SCS Total Energy          =    -326.6059944999333311 [Eh]
	-----------------------------------------------------------

  Dipole Moment: [D]
     X:    -0.6683      Y:     2.1461      Z:    -2.4636     Total:     3.3349

*** Psi4 exiting successfully. Buy a developer a beer!
