                               Psi4 1.4a3.dev225

  ==> Input File <==

--------------------------------------------------------------------------
#psi4
#
memory 32 gb

molecule  {
0 1
  O        0.3358460     1.2965490    -0.1579670
  N       -0.6355700    -0.7573960    -0.3171250
  C       -1.9537600    -0.2153280    -0.6135720
  C        1.6888930    -0.6226540     0.4213110
  C        0.4166970     0.0697910    -0.0414380
  C       -2.7106350     0.2148780     0.6378230
  C        2.9315370     0.1212560    -0.0546130
  H       -1.8024690     0.6408050    -1.2743770
  H       -2.5093410    -0.9768490    -1.1692540
  H        1.6661620    -0.6499400     1.5181760
  H        1.7013640    -1.6638910     0.0787670
  H       -0.5520631    -1.7582653    -0.0813512
  H       -2.8566760    -0.6308240     1.3159630
  H       -2.1451200     0.9906390     1.1579850
  H       -3.6935760     0.6181720     0.3752940
  H        2.8830370     1.1639450     0.2613510
  H        3.8370830    -0.3350390     0.3539010
  H        2.9990550     0.1035600    -1.1453320
units angstrom
no_reorient  #important for SAPT in psi4, default
symmetry c1  #important for SAPT in psi4, default
}

set PROPERTIES_ORIGIN ["COM"]
properties('MP2/aug-cc-pvtz', properties = ['dipole'])
--------------------------------------------------------------------------

    Molecular point group: c1
  Charge       = 0
  Multiplicity = 1
  Basis Set: AUG-CC-PVTZ
    Blend: AUG-CC-PVTZ
  Basis Set: (AUG-CC-PVTZ AUX)
    Blend: AUG-CC-PVTZ-JKFIT

    Orbital Energies [Eh]
    ---------------------

    Doubly Occupied:

       1A    -20.512055     2A    -15.584926     3A    -11.345184
       4A    -11.261830     5A    -11.240445     6A    -11.215994
       7A    -11.215019     8A     -1.367568     9A     -1.224311
      10A     -1.056694    11A     -1.008678    12A     -0.895177
      13A     -0.838103    14A     -0.774402    15A     -0.692045
      16A     -0.655715    17A     -0.620705    18A     -0.605574
      19A     -0.591586    20A     -0.581113    21A     -0.531463
      22A     -0.527617    23A     -0.514567    24A     -0.504812
      25A     -0.495870    26A     -0.482671    27A     -0.416918
      28A     -0.388245

  @DF-RHF Final Energy:  -325.19841706129085

   => Energetics <=

    Nuclear Repulsion Energy =            313.8861429303476029
    One-Electron Energy =               -1063.8705473959764731
    Two-Electron Energy =                 424.7859874043379591
    Total Energy =                       -325.1984170612908542
  Basis Set: (AUG-CC-PVTZ AUX)
    Blend: AUG-CC-PVTZ-RI
    Molecular point group: c1

    Geometry (in Angstrom), charge = 0, multiplicity = 1:

       Center              X                  Y                   Z               Mass
    ------------   -----------------  -----------------  -----------------  -----------------
         O            0.331211871146     1.272505620291    -0.144401527000    15.994914619570
         N           -0.640204128854    -0.781439379709    -0.303559527000    14.003074004430
         C           -1.958394128854    -0.239371379709    -0.600006527000    12.000000000000
         C            1.684258871146    -0.646697379709     0.434876473000    12.000000000000
         C            0.412062871146     0.045747620291    -0.027872527000    12.000000000000
         C           -2.715269128854     0.190834620291     0.651388473000    12.000000000000
         C            2.926902871146     0.097212620291    -0.041047527000    12.000000000000
         H           -1.807103128854     0.616761620291    -1.260811527000     1.007825032230
         H           -2.513975128854    -1.000892379709    -1.155688527000     1.007825032230
         H            1.661527871146    -0.673983379709     1.531741473000     1.007825032230
         H            1.696729871146    -1.687934379709     0.092332473000     1.007825032230
         H           -0.556697228854    -1.782308679709    -0.067785727000     1.007825032230
         H           -2.861310128854    -0.654867379709     1.329528473000     1.007825032230
         H           -2.149754128854     0.966595620291     1.171550473000     1.007825032230
         H           -3.698210128854     0.594128620291     0.388859473000     1.007825032230
         H            2.878402871146     1.139901620291     0.274916473000     1.007825032230
         H            3.832448871146    -0.359082379709     0.367466473000     1.007825032230
         H            2.994420871146     0.079516620291    -1.131766527000     1.007825032230

  Basis Set: AUG-CC-PVTZ
    Blend: AUG-CC-PVTZ
  Basis Set: (AUG-CC-PVTZ AUX)
    Blend: AUG-CC-PVTZ-JKFIT
	 Reference Energy          =    -325.1984170612908542 [Eh]
	 Singles Energy            =      -0.0000000000000000 [Eh]
	 Same-Spin Energy          =      -0.3321246094475828 [Eh]
	 Opposite-Spin Energy      =      -1.1197070262164064 [Eh]
	 Correlation Energy        =      -1.4518316356639893 [Eh]
	 Total Energy              =    -326.6502486969548613 [Eh]

	 ================> DF-SCS-MP2 Energies <==================
	-----------------------------------------------------------
	 SCS Same-Spin Scale       =       0.3333333333333333 [-]
	 SCS Opposite-Spin Scale   =       1.2000000000000000 [-]
	 SCS Same-Spin Energy      =      -0.1107082031491943 [Eh]
	 SCS Opposite-Spin Energy  =      -1.3436484314596877 [Eh]
	 SCS Correlation Energy    =      -1.4543566346088819 [Eh]
	 SCS Total Energy          =    -326.6527736958997252 [Eh]
	-----------------------------------------------------------

  Dipole Moment: [D]
     X:    -0.8235      Y:    -3.3981      Z:     0.3946     Total:     3.5186

*** Psi4 exiting successfully. Buy a developer a beer!
