                               Psi4 1.3.2 release

  ==> Input File <==

--------------------------------------------------------------------------
#psi4
#
memory 32 gb

molecule  {
0 1
  O        0.3109550    -0.6942360     1.0654250
  N       -0.6919670     0.7804610    -0.3498900
  C       -2.0600898     0.4944505     0.0426769
  C        1.7355170     0.5659250    -0.4538020
  C        0.4478637     0.1982043     0.1354559
  C       -2.5721020    -0.8329900    -0.5555930
  C        2.8806560    -0.3237650     0.0245060
  H       -1.9910630     0.3248240     1.1818950
  H       -2.6829100     1.2983230    -0.1207890
  H        1.6432190     0.5393270    -1.5482860
  H        1.9198310     1.6196100    -0.1921910
  H       -0.5759590     1.3845000    -1.1569370
  H       -2.6081430    -0.7287990    -1.6478990
  H       -1.9207320    -1.6762470    -0.2982990
  H       -3.5840310    -1.0569410    -0.1969260
  H        2.7105400    -1.3693420    -0.2530710
  H        3.8280690     0.0048160    -0.4188000
  H        2.9664850    -0.2871200     1.1156770
units angstrom
no_reorient  #important for SAPT in psi4, default
symmetry c1  #important for SAPT in psi4, default
}

set PROPERTIES_ORIGIN ["COM"]
properties('MP2/aug-cc-pvtz', properties = ['dipole'])
--------------------------------------------------------------------------

    Molecular point group: c1
  Charge       = 0
  Multiplicity = 1
  Basis Set: AUG-CC-PVTZ
    Blend: AUG-CC-PVTZ
  Basis Set: (AUG-CC-PVTZ AUX)
    Blend: AUG-CC-PVTZ-JKFIT

    Orbital Energies [Eh]
    ---------------------

    Doubly Occupied:

       1A    -20.505541     2A    -15.586302     3A    -11.351835
       4A    -11.264294     5A    -11.246243     6A    -11.219428
       7A    -11.215734     8A     -1.335438     9A     -1.217920
      10A     -1.067655    11A     -1.007243    12A     -0.904150
      13A     -0.844817    14A     -0.769086    15A     -0.698397
      16A     -0.651729    17A     -0.640093    18A     -0.601457
      19A     -0.579548    20A     -0.562889    21A     -0.536844
      22A     -0.520458    23A     -0.513199    24A     -0.512061
      25A     -0.493504    26A     -0.465248    27A     -0.417461
      28A     -0.379504

  @DF-RHF Final Energy:  -325.17758061318142

   => Energetics <=

    Nuclear Repulsion Energy =            312.7870197390644194
    One-Electron Energy =               -1061.7130369888370751
    Two-Electron Energy =                 423.7484366365912933
    Total Energy =                       -325.1775806131814193
  Basis Set: (AUG-CC-PVTZ AUX)
    Blend: AUG-CC-PVTZ-RI
    Molecular point group: c1

    Geometry (in Angstrom), charge = 0, multiplicity = 1:

       Center              X                  Y                   Z               Mass
    ------------   -----------------  -----------------  -----------------  -----------------
         O            0.309281418931    -0.705116751077     1.076331965934    15.994914619570
         N           -0.693640581069     0.769580248923    -0.338983034066    14.003074004430
         C           -2.061763381069     0.483569748923     0.053583865934    12.000000000000
         C            1.733843418931     0.555044248923    -0.442895034066    12.000000000000
         C            0.446190118931     0.187323548923     0.146362865934    12.000000000000
         C           -2.573775581069    -0.843870751077    -0.544686034066    12.000000000000
         C            2.878982418931    -0.334645751077     0.035412965934    12.000000000000
         H           -1.992736581069     0.313943248923     1.192801965934     1.007825032230
         H           -2.684583581069     1.287442248923    -0.109882034066     1.007825032230
         H            1.641545418931     0.528446248923    -1.537379034066     1.007825032230
         H            1.918157418931     1.608729248923    -0.181284034066     1.007825032230
         H           -0.577632581069     1.373619248923    -1.146030034066     1.007825032230
         H           -2.609816581069    -0.739679751077    -1.636992034066     1.007825032230
         H           -1.922405581069    -1.687127751077    -0.287392034066     1.007825032230
         H           -3.585704581069    -1.067821751077    -0.186019034066     1.007825032230
         H            2.708866418931    -1.380222751077    -0.242164034066     1.007825032230
         H            3.826395418931    -0.006064751077    -0.407893034066     1.007825032230
         H            2.964811418931    -0.298000751077     1.126583965934     1.007825032230

  Basis Set: AUG-CC-PVTZ
    Blend: AUG-CC-PVTZ
  Basis Set: (AUG-CC-PVTZ AUX)
    Blend: AUG-CC-PVTZ-JKFIT
	 Reference Energy          =    -325.1775806131814193 [Eh]
	 Singles Energy            =      -0.0000000000000000 [Eh]
	 Same-Spin Energy          =      -0.3337169034787750 [Eh]
	 Opposite-Spin Energy      =      -1.1232762927528401 [Eh]
	 Correlation Energy        =      -1.4569931962316152 [Eh]
	 Total Energy              =    -326.6345738094130411 [Eh]

	 ================> DF-SCS-MP2 Energies <==================
	-----------------------------------------------------------
	 SCS Same-Spin Scale       =       0.3333333333333333 [-]
	 SCS Opposite-Spin Scale   =       1.2000000000000000 [-]
	 SCS Same-Spin Energy      =      -0.1112389678262583 [Eh]
	 SCS Opposite-Spin Energy  =      -1.3479315513034080 [Eh]
	 SCS Correlation Energy    =      -1.4591705191296664 [Eh]
	 SCS Total Energy          =    -326.6367511323110762 [Eh]
	-----------------------------------------------------------

  Dipole Moment: [D]
     X:    -0.5810      Y:     2.4645      Z:    -2.8251     Total:     3.7938

*** Psi4 exiting successfully. Buy a developer a beer!
