                               Psi4 1.3.2 release

  ==> Input File <==

--------------------------------------------------------------------------
#psi4
#
memory 32 gb

molecule  {
0 1
  O        0.3109550    -0.6942360     1.0654250
  N       -0.6919670     0.7804610    -0.3498900
  C       -2.0331630     0.4428770     0.0915860
  C        1.7355170     0.5659250    -0.4538020
  C        0.4337333     0.1789627     0.1448788
  C       -2.5721020    -0.8329900    -0.5555930
  C        2.8806560    -0.3237650     0.0245060
  H       -1.9910630     0.3248240     1.1818950
  H       -2.6829100     1.2983230    -0.1207890
  H        1.6432190     0.5393270    -1.5482860
  H        1.9198310     1.6196100    -0.1921910
  H       -0.5412568     1.3774293    -1.1564637
  H       -2.6081430    -0.7287990    -1.6478990
  H       -1.9207320    -1.6762470    -0.2982990
  H       -3.5840310    -1.0569410    -0.1969260
  H        2.7105400    -1.3693420    -0.2530710
  H        3.8280690     0.0048160    -0.4188000
  H        2.9664850    -0.2871200     1.1156770
units angstrom
no_reorient  #important for SAPT in psi4, default
symmetry c1  #important for SAPT in psi4, default
}

set PROPERTIES_ORIGIN ["COM"]
properties('MP2/aug-cc-pvtz', properties = ['dipole'])
--------------------------------------------------------------------------

    Molecular point group: c1
  Charge       = 0
  Multiplicity = 1
  Basis Set: AUG-CC-PVTZ
    Blend: AUG-CC-PVTZ
  Basis Set: (AUG-CC-PVTZ AUX)
    Blend: AUG-CC-PVTZ-JKFIT

    Orbital Energies [Eh]
    ---------------------

    Doubly Occupied:

       1A    -20.508031     2A    -15.584060     3A    -11.348207
       4A    -11.264113     5A    -11.245170     6A    -11.218367
       7A    -11.214964     8A     -1.346029     9A     -1.220630
      10A     -1.063311    11A     -1.008311    12A     -0.900150
      13A     -0.840139    14A     -0.771144    15A     -0.693753
      16A     -0.649677    17A     -0.637835    18A     -0.602569
      19A     -0.582044    20A     -0.570000    21A     -0.535878
      22A     -0.514521    23A     -0.513041    24A     -0.512031
      25A     -0.494670    26A     -0.476343    27A     -0.418349
      28A     -0.383043

  @DF-RHF Final Energy:  -325.19151860841271

   => Energetics <=

    Nuclear Repulsion Energy =            313.4135849958262838
    One-Electron Energy =               -1062.9774466607989325
    Two-Electron Energy =                 424.3723430565598846
    Total Energy =                       -325.1915186084127072
  Basis Set: (AUG-CC-PVTZ AUX)
    Blend: AUG-CC-PVTZ-RI
    Molecular point group: c1

    Geometry (in Angstrom), charge = 0, multiplicity = 1:

       Center              X                  Y                   Z               Mass
    ------------   -----------------  -----------------  -----------------  -----------------
         O            0.307416332206    -0.696639576786     1.069402476002    15.994914619570
         N           -0.695505667794     0.778057423214    -0.345912523998    14.003074004430
         C           -2.036701667794     0.440473423214     0.095563476002    12.000000000000
         C            1.731978332206     0.563521423214    -0.449824523998    12.000000000000
         C            0.430194632206     0.176559123214     0.148856276002    12.000000000000
         C           -2.575640667794    -0.835393576786    -0.551615523998    12.000000000000
         C            2.877117332206    -0.326168576786     0.028483476002    12.000000000000
         H           -1.994601667794     0.322420423214     1.185872476002     1.007825032230
         H           -2.686448667794     1.295919423214    -0.116811523998     1.007825032230
         H            1.639680332206     0.536923423214    -1.544308523998     1.007825032230
         H            1.916292332206     1.617206423214    -0.188213523998     1.007825032230
         H           -0.544795467794     1.375025723214    -1.152486223998     1.007825032230
         H           -2.611681667794    -0.731202576786    -1.643921523998     1.007825032230
         H           -1.924270667794    -1.678650576786    -0.294321523998     1.007825032230
         H           -3.587569667794    -1.059344576786    -0.192948523998     1.007825032230
         H            2.707001332206    -1.371745576786    -0.249093523998     1.007825032230
         H            3.824530332206     0.002412423214    -0.414822523998     1.007825032230
         H            2.962946332206    -0.289523576786     1.119654476002     1.007825032230

  Basis Set: AUG-CC-PVTZ
    Blend: AUG-CC-PVTZ
  Basis Set: (AUG-CC-PVTZ AUX)
    Blend: AUG-CC-PVTZ-JKFIT
	 Reference Energy          =    -325.1915186084127072 [Eh]
	 Singles Energy            =      -0.0000000000000000 [Eh]
	 Same-Spin Energy          =      -0.3329420693246684 [Eh]
	 Opposite-Spin Energy      =      -1.1215395676838169 [Eh]
	 Correlation Energy        =      -1.4544816370084852 [Eh]
	 Total Energy              =    -326.6460002454211917 [Eh]

	 ================> DF-SCS-MP2 Energies <==================
	-----------------------------------------------------------
	 SCS Same-Spin Scale       =       0.3333333333333333 [-]
	 SCS Opposite-Spin Scale   =       1.2000000000000000 [-]
	 SCS Same-Spin Energy      =      -0.1109806897748895 [Eh]
	 SCS Opposite-Spin Energy  =      -1.3458474812205803 [Eh]
	 SCS Correlation Energy    =      -1.4568281709954698 [Eh]
	 SCS Total Energy          =    -326.6483467794082003 [Eh]
	-----------------------------------------------------------

  Dipole Moment: [D]
     X:    -0.5987      Y:     2.3540      Z:    -2.7256     Total:     3.6509

*** Psi4 exiting successfully. Buy a developer a beer!
