                               Psi4 1.3.2 release

  ==> Input File <==

--------------------------------------------------------------------------
#psi4
#
memory 32 gb

molecule  {
0 1
  O        0.3109550    -0.6942360     1.0654250
  N       -0.7194338     0.7560692    -0.3193359
  C       -2.0331630     0.4428770     0.0915860
  C        1.7604845     0.5324832    -0.4206551
  C        0.4068390     0.1581200     0.1784230
  C       -2.5721020    -0.8329900    -0.5555930
  C        2.8806560    -0.3237650     0.0245060
  H       -1.9910630     0.3248240     1.1818950
  H       -2.6829100     1.2983230    -0.1207890
  H        1.6432190     0.5393270    -1.5482860
  H        1.9198310     1.6196100    -0.1921910
  H       -0.5759590     1.3845000    -1.1569370
  H       -2.6081430    -0.7287990    -1.6478990
  H       -1.9207320    -1.6762470    -0.2982990
  H       -3.5840310    -1.0569410    -0.1969260
  H        2.7105400    -1.3693420    -0.2530710
  H        3.8280690     0.0048160    -0.4188000
  H        2.9664850    -0.2871200     1.1156770
units angstrom
no_reorient  #important for SAPT in psi4, default
symmetry c1  #important for SAPT in psi4, default
}

set PROPERTIES_ORIGIN ["COM"]
properties('MP2/aug-cc-pvtz', properties = ['dipole'])
--------------------------------------------------------------------------

    Molecular point group: c1
  Charge       = 0
  Multiplicity = 1
  Basis Set: AUG-CC-PVTZ
    Blend: AUG-CC-PVTZ
  Basis Set: (AUG-CC-PVTZ AUX)
    Blend: AUG-CC-PVTZ-JKFIT

    Orbital Energies [Eh]
    ---------------------

    Doubly Occupied:

       1A    -20.511308     2A    -15.583814     3A    -11.345761
       4A    -11.259340     5A    -11.248397     6A    -11.215640
       7A    -11.213387     8A     -1.369674     9A     -1.227860
      10A     -1.061646    11A     -1.007648    12A     -0.897565
      13A     -0.837094    14A     -0.764495    15A     -0.692927
      16A     -0.654582    17A     -0.632255    18A     -0.606709
      19A     -0.586309    20A     -0.572613    21A     -0.545414
      22A     -0.520494    23A     -0.513175    24A     -0.512352
      25A     -0.491413    26A     -0.474718    27A     -0.417278
      28A     -0.382434

  @DF-RHF Final Energy:  -325.19061876018810

   => Energetics <=

    Nuclear Repulsion Energy =            314.4365944250516236
    One-Electron Energy =               -1064.9618250704550064
    Two-Electron Energy =                 425.3346118852152244
    Total Energy =                       -325.1906187601881015
  Basis Set: (AUG-CC-PVTZ AUX)
    Blend: AUG-CC-PVTZ-RI
    Molecular point group: c1

    Geometry (in Angstrom), charge = 0, multiplicity = 1:

       Center              X                  Y                   Z               Mass
    ------------   -----------------  -----------------  -----------------  -----------------
         O            0.311796003555    -0.686886821373     1.057257460541    15.994914619570
         N           -0.718592796445     0.763418378627    -0.327503439459    14.003074004430
         C           -2.032321996445     0.450226178627     0.083418460541    12.000000000000
         C            1.761325503555     0.539832378627    -0.428822639459    12.000000000000
         C            0.407680003555     0.165469178627     0.170255460541    12.000000000000
         C           -2.571260996445    -0.825640821373    -0.563760539459    12.000000000000
         C            2.881497003555    -0.316415821373     0.016338460541    12.000000000000
         H           -1.990221996445     0.332173178627     1.173727460541     1.007825032230
         H           -2.682068996445     1.305672178627    -0.128956539459     1.007825032230
         H            1.644060003555     0.546676178627    -1.556453539459     1.007825032230
         H            1.920672003555     1.626959178627    -0.200358539459     1.007825032230
         H           -0.575117996445     1.391849178627    -1.165104539459     1.007825032230
         H           -2.607301996445    -0.721449821373    -1.656066539459     1.007825032230
         H           -1.919890996445    -1.668897821373    -0.306466539459     1.007825032230
         H           -3.583189996445    -1.049591821373    -0.205093539459     1.007825032230
         H            2.711381003555    -1.361992821373    -0.261238539459     1.007825032230
         H            3.828910003555     0.012165178627    -0.426967539459     1.007825032230
         H            2.967326003555    -0.279770821373     1.107509460541     1.007825032230

  Basis Set: AUG-CC-PVTZ
    Blend: AUG-CC-PVTZ
  Basis Set: (AUG-CC-PVTZ AUX)
    Blend: AUG-CC-PVTZ-JKFIT
	 Reference Energy          =    -325.1906187601881015 [Eh]
	 Singles Energy            =      -0.0000000000000000 [Eh]
	 Same-Spin Energy          =      -0.3326568502904093 [Eh]
	 Opposite-Spin Energy      =      -1.1203401144562686 [Eh]
	 Correlation Energy        =      -1.4529969647466778 [Eh]
	 Total Energy              =    -326.6436157249347616 [Eh]

	 ================> DF-SCS-MP2 Energies <==================
	-----------------------------------------------------------
	 SCS Same-Spin Scale       =       0.3333333333333333 [-]
	 SCS Opposite-Spin Scale   =       1.2000000000000000 [-]
	 SCS Same-Spin Energy      =      -0.1108856167634698 [Eh]
	 SCS Opposite-Spin Energy  =      -1.3444081373475223 [Eh]
	 SCS Correlation Energy    =      -1.4552937541109920 [Eh]
	 SCS Total Energy          =    -326.6459125142990843 [Eh]
	-----------------------------------------------------------

  Dipole Moment: [D]
     X:    -0.5623      Y:     2.2802      Z:    -2.6022     Total:     3.5053

*** Psi4 exiting successfully. Buy a developer a beer!
