                               Psi4 1.3.2 release

  ==> Input File <==

--------------------------------------------------------------------------
#psi4
#
memory 32 gb

molecule  {
0 1
  O        0.3109550    -0.6942360     1.0654250
  N       -0.6919670     0.7804610    -0.3498900
  C       -2.1255457     0.4196239     0.1219953
  C        1.7355170     0.5659250    -0.4538020
  C        0.4068390     0.1581200     0.1784230
  C       -2.5721020    -0.8329900    -0.5555930
  C        2.8806560    -0.3237650     0.0245060
  H       -1.9910630     0.3248240     1.1818950
  H       -2.6829100     1.2983230    -0.1207890
  H        1.6432190     0.5393270    -1.5482860
  H        1.9198310     1.6196100    -0.1921910
  H       -0.5759590     1.3845000    -1.1569370
  H       -2.6081430    -0.7287990    -1.6478990
  H       -1.9207320    -1.6762470    -0.2982990
  H       -3.5840310    -1.0569410    -0.1969260
  H        2.7105400    -1.3693420    -0.2530710
  H        3.8280690     0.0048160    -0.4188000
  H        2.9664850    -0.2871200     1.1156770
units angstrom
no_reorient  #important for SAPT in psi4, default
symmetry c1  #important for SAPT in psi4, default
}

set PROPERTIES_ORIGIN ["COM"]
properties('MP2/aug-cc-pvtz', properties = ['dipole'])
--------------------------------------------------------------------------

    Molecular point group: c1
  Charge       = 0
  Multiplicity = 1
  Basis Set: AUG-CC-PVTZ
    Blend: AUG-CC-PVTZ
  Basis Set: (AUG-CC-PVTZ AUX)
    Blend: AUG-CC-PVTZ-JKFIT

    Orbital Energies [Eh]
    ---------------------

    Doubly Occupied:

       1A    -20.509598     2A    -15.575179     3A    -11.341663
       4A    -11.266696     5A    -11.239466     6A    -11.217927
       7A    -11.213877     8A     -1.362890     9A     -1.204511
      10A     -1.052850    11A     -1.015743    12A     -0.888169
      13A     -0.838594    14A     -0.767588    15A     -0.687931
      16A     -0.635346    17A     -0.628639    18A     -0.613577
      19A     -0.588024    20A     -0.569885    21A     -0.535654
      22A     -0.523670    23A     -0.511550    24A     -0.504402
      25A     -0.498102    26A     -0.483415    27A     -0.413014
      28A     -0.385957

  @DF-RHF Final Energy:  -325.19102316320982

   => Energetics <=

    Nuclear Repulsion Energy =            312.4247741824349305
    One-Electron Energy =               -1061.0837638888688161
    Two-Electron Energy =                 423.4679665432240654
    Total Energy =                       -325.1910231632098203
  Basis Set: (AUG-CC-PVTZ AUX)
    Blend: AUG-CC-PVTZ-RI
    Molecular point group: c1

    Geometry (in Angstrom), charge = 0, multiplicity = 1:

       Center              X                  Y                   Z               Mass
    ------------   -----------------  -----------------  -----------------  -----------------
         O            0.321922058313    -0.691475324865     1.061815078284    15.994914619570
         N           -0.680999941687     0.783221675135    -0.353499921716    14.003074004430
         C           -2.114578641687     0.422384575135     0.118385378284    12.000000000000
         C            1.746484058313     0.568685675135    -0.457411921716    12.000000000000
         C            0.417806058313     0.160880675135     0.174813078284    12.000000000000
         C           -2.561134941687    -0.830229324865    -0.559202921716    12.000000000000
         C            2.891623058313    -0.321004324865     0.020896078284    12.000000000000
         H           -1.980095941687     0.327584675135     1.178285078284     1.007825032230
         H           -2.671942941687     1.301083675135    -0.124398921716     1.007825032230
         H            1.654186058313     0.542087675135    -1.551895921716     1.007825032230
         H            1.930798058313     1.622370675135    -0.195800921716     1.007825032230
         H           -0.564991941687     1.387260675135    -1.160546921716     1.007825032230
         H           -2.597175941687    -0.726038324865    -1.651508921716     1.007825032230
         H           -1.909764941687    -1.673486324865    -0.301908921716     1.007825032230
         H           -3.573063941687    -1.054180324865    -0.200535921716     1.007825032230
         H            2.721507058313    -1.366581324865    -0.256680921716     1.007825032230
         H            3.839036058313     0.007576675135    -0.422409921716     1.007825032230
         H            2.977452058313    -0.284359324865     1.112067078284     1.007825032230

  Basis Set: AUG-CC-PVTZ
    Blend: AUG-CC-PVTZ
  Basis Set: (AUG-CC-PVTZ AUX)
    Blend: AUG-CC-PVTZ-JKFIT
	 Reference Energy          =    -325.1910231632098203 [Eh]
	 Singles Energy            =      -0.0000000000000000 [Eh]
	 Same-Spin Energy          =      -0.3317708274030058 [Eh]
	 Opposite-Spin Energy      =      -1.1199770476979789 [Eh]
	 Correlation Energy        =      -1.4517478751009847 [Eh]
	 Total Energy              =    -326.6427710383107978 [Eh]

	 ================> DF-SCS-MP2 Energies <==================
	-----------------------------------------------------------
	 SCS Same-Spin Scale       =       0.3333333333333333 [-]
	 SCS Opposite-Spin Scale   =       1.2000000000000000 [-]
	 SCS Same-Spin Energy      =      -0.1105902758010019 [Eh]
	 SCS Opposite-Spin Energy  =      -1.3439724572375746 [Eh]
	 SCS Correlation Energy    =      -1.4545627330385766 [Eh]
	 SCS Total Energy          =    -326.6455858962484058 [Eh]
	-----------------------------------------------------------

  Dipole Moment: [D]
     X:    -1.0309      Y:     2.1721      Z:    -2.5753     Total:     3.5232

*** Psi4 exiting successfully. Buy a developer a beer!
