                               Psi4 1.3.2 release

  ==> Input File <==

--------------------------------------------------------------------------
#psi4
#
memory 32 gb

molecule  {
0 1
  O        0.3109550    -0.6942360     1.0654250
  N       -0.6919670     0.7804610    -0.3498900
  C       -2.0331630     0.4428770     0.0915860
  C        1.7355170     0.5659250    -0.4538020
  C        0.4068390     0.1581200     0.1784230
  C       -2.5721020    -0.8329900    -0.5555930
  C        2.8806560    -0.3237650     0.0245060
  H       -1.9910630     0.3248240     1.1818950
  H       -2.6829100     1.2983230    -0.1207890
  H        1.6432190     0.5393270    -1.5482860
  H        1.9198310     1.6196100    -0.1921910
  H       -0.5759590     1.3845000    -1.1569370
  H       -2.6081430    -0.7287990    -1.6478990
  H       -1.9207320    -1.6762470    -0.2982990
  H       -3.5840310    -1.0569410    -0.1969260
  H        2.7105400    -1.3693420    -0.2530710
  H        3.8280690     0.0048160    -0.4188000
  H        2.9664850    -0.2871200     1.1156770
units angstrom
no_reorient  #important for SAPT in psi4, default
symmetry c1  #important for SAPT in psi4, default
}

set PROPERTIES_ORIGIN ["COM"]
properties('MP2/aug-cc-pvtz', properties = ['dipole'])
--------------------------------------------------------------------------

    Molecular point group: c1
  Charge       = 0
  Multiplicity = 1
  Basis Set: AUG-CC-PVTZ
    Blend: AUG-CC-PVTZ
  Basis Set: (AUG-CC-PVTZ AUX)
    Blend: AUG-CC-PVTZ-JKFIT

    Orbital Energies [Eh]
    ---------------------

    Doubly Occupied:

       1A    -20.514295     2A    -15.580961     3A    -11.346069
       4A    -11.262182     5A    -11.242601     6A    -11.216119
       7A    -11.214986     8A     -1.368843     9A     -1.225071
      10A     -1.054484    11A     -1.006262    12A     -0.894214
      13A     -0.836079    14A     -0.776370    15A     -0.692315
      16A     -0.648446    17A     -0.633887    18A     -0.604956
      19A     -0.587297    20A     -0.573707    21A     -0.534824
      22A     -0.514723    23A     -0.513495    24A     -0.511375
      25A     -0.495224    26A     -0.482342    27A     -0.418553
      28A     -0.386454

  @DF-RHF Final Energy:  -325.19841820922233

   => Energetics <=

    Nuclear Repulsion Energy =            313.6754516945741784
    One-Electron Energy =               -1063.4754722419370410
    Two-Electron Energy =                 424.6016023381405944
    Total Energy =                       -325.1984182092223250
  Basis Set: (AUG-CC-PVTZ AUX)
    Blend: AUG-CC-PVTZ-RI
    Molecular point group: c1

    Geometry (in Angstrom), charge = 0, multiplicity = 1:

       Center              X                  Y                   Z               Mass
    ------------   -----------------  -----------------  -----------------  -----------------
         O            0.310955023981    -0.694235771853     1.065425059775    15.994914619570
         N           -0.691966976019     0.780461228147    -0.349889940225    14.003074004430
         C           -2.033162976019     0.442877228147     0.091586059775    12.000000000000
         C            1.735517023981     0.565925228147    -0.453801940225    12.000000000000
         C            0.406839023981     0.158120228147     0.178423059775    12.000000000000
         C           -2.572101976019    -0.832989771853    -0.555592940225    12.000000000000
         C            2.880656023981    -0.323764771853     0.024506059775    12.000000000000
         H           -1.991062976019     0.324824228147     1.181895059775     1.007825032230
         H           -2.682909976019     1.298323228147    -0.120788940225     1.007825032230
         H            1.643219023981     0.539327228147    -1.548285940225     1.007825032230
         H            1.919831023981     1.619610228147    -0.192190940225     1.007825032230
         H           -0.575958976019     1.384500228147    -1.156936940225     1.007825032230
         H           -2.608142976019    -0.728798771853    -1.647898940225     1.007825032230
         H           -1.920731976019    -1.676246771853    -0.298298940225     1.007825032230
         H           -3.584030976019    -1.056940771853    -0.196925940225     1.007825032230
         H            2.710540023981    -1.369341771853    -0.253070940225     1.007825032230
         H            3.828069023981     0.004816228147    -0.418799940225     1.007825032230
         H            2.966485023981    -0.287119771853     1.115677059775     1.007825032230

  Basis Set: AUG-CC-PVTZ
    Blend: AUG-CC-PVTZ
  Basis Set: (AUG-CC-PVTZ AUX)
    Blend: AUG-CC-PVTZ-JKFIT
	 Reference Energy          =    -325.1984182092223250 [Eh]
	 Singles Energy            =      -0.0000000000000000 [Eh]
	 Same-Spin Energy          =      -0.3318336040116241 [Eh]
	 Opposite-Spin Energy      =      -1.1194368403086434 [Eh]
	 Correlation Energy        =      -1.4512704443202675 [Eh]
	 Total Energy              =    -326.6496886535425688 [Eh]

	 ================> DF-SCS-MP2 Energies <==================
	-----------------------------------------------------------
	 SCS Same-Spin Scale       =       0.3333333333333333 [-]
	 SCS Opposite-Spin Scale   =       1.2000000000000000 [-]
	 SCS Same-Spin Energy      =      -0.1106112013372080 [Eh]
	 SCS Opposite-Spin Energy  =      -1.3433242083703720 [Eh]
	 SCS Correlation Energy    =      -1.4539354097075801 [Eh]
	 SCS Total Energy          =    -326.6523536189299080 [Eh]
	-----------------------------------------------------------

  Dipole Moment: [D]
     X:    -0.7011      Y:     2.2452      Z:    -2.5801     Total:     3.4913

*** Psi4 exiting successfully. Buy a developer a beer!
