                               Psi4 1.3.2 release

  ==> Input File <==

--------------------------------------------------------------------------
#psi4
#
memory 32 gb

molecule  {
0 1
  O        0.3109550    -0.6942360     1.0654250
  N       -0.6960951     0.7809745    -0.3618567
  C       -2.0331630     0.4428770     0.0915860
  C        1.7355170     0.5659250    -0.4538020
  C        0.4068390     0.1581200     0.1784230
  C       -2.5721020    -0.8329900    -0.5555930
  C        2.8806560    -0.3237650     0.0245060
  H       -2.0004266     0.3228144     1.1819969
  H       -2.6829100     1.2983230    -0.1207890
  H        1.6432190     0.5393270    -1.5482860
  H        1.9198310     1.6196100    -0.1921910
  H       -0.5759590     1.3845000    -1.1569370
  H       -2.6081430    -0.7287990    -1.6478990
  H       -1.9207320    -1.6762470    -0.2982990
  H       -3.5840310    -1.0569410    -0.1969260
  H        2.7105400    -1.3693420    -0.2530710
  H        3.8280690     0.0048160    -0.4188000
  H        2.9664850    -0.2871200     1.1156770
units angstrom
no_reorient  #important for SAPT in psi4, default
symmetry c1  #important for SAPT in psi4, default
}

set PROPERTIES_ORIGIN ["COM"]
properties('MP2/aug-cc-pvtz', properties = ['dipole'])
--------------------------------------------------------------------------

    Molecular point group: c1
  Charge       = 0
  Multiplicity = 1
  Basis Set: AUG-CC-PVTZ
    Blend: AUG-CC-PVTZ
  Basis Set: (AUG-CC-PVTZ AUX)
    Blend: AUG-CC-PVTZ-JKFIT

    Orbital Energies [Eh]
    ---------------------

    Doubly Occupied:

       1A    -20.515869     2A    -15.580037     3A    -11.347371
       4A    -11.261887     5A    -11.242806     6A    -11.216333
       7A    -11.214444     8A     -1.368936     9A     -1.224564
      10A     -1.054492    11A     -1.005761    12A     -0.893840
      13A     -0.835701    14A     -0.777452    15A     -0.692471
      16A     -0.648869    17A     -0.633800    18A     -0.604844
      19A     -0.587555    20A     -0.573603    21A     -0.534595
      22A     -0.515008    23A     -0.513597    24A     -0.511759
      25A     -0.494929    26A     -0.482227    27A     -0.418995
      28A     -0.386430

  @DF-RHF Final Energy:  -325.19823516573211

   => Energetics <=

    Nuclear Repulsion Energy =            313.5317571504236298
    One-Electron Energy =               -1063.1836400748049982
    Two-Electron Energy =                 424.4536477586493106
    Total Energy =                       -325.1982351657321146
  Basis Set: (AUG-CC-PVTZ AUX)
    Blend: AUG-CC-PVTZ-RI
    Molecular point group: c1

    Geometry (in Angstrom), charge = 0, multiplicity = 1:

       Center              X                  Y                   Z               Mass
    ------------   -----------------  -----------------  -----------------  -----------------
         O            0.311620242193    -0.694286870445     1.067081778764    15.994914619570
         N           -0.695429857807     0.780923629555    -0.360199921236    14.003074004430
         C           -2.032497757807     0.442826129555     0.093242778764    12.000000000000
         C            1.736182242193     0.565874129555    -0.452145221236    12.000000000000
         C            0.407504242193     0.158069129555     0.180079778764    12.000000000000
         C           -2.571436757807    -0.833040870445    -0.553936221236    12.000000000000
         C            2.881321242193    -0.323815870445     0.026162778764    12.000000000000
         H           -1.999761357807     0.322763529555     1.183653678764     1.007825032230
         H           -2.682244757807     1.298272129555    -0.119132221236     1.007825032230
         H            1.643884242193     0.539276129555    -1.546629221236     1.007825032230
         H            1.920496242193     1.619559129555    -0.190534221236     1.007825032230
         H           -0.575293757807     1.384449129555    -1.155280221236     1.007825032230
         H           -2.607477757807    -0.728849870445    -1.646242221236     1.007825032230
         H           -1.920066757807    -1.676297870445    -0.296642221236     1.007825032230
         H           -3.583365757807    -1.056991870445    -0.195269221236     1.007825032230
         H            2.711205242193    -1.369392870445    -0.251414221236     1.007825032230
         H            3.828734242193     0.004765129555    -0.417143221236     1.007825032230
         H            2.967150242193    -0.287170870445     1.117333778764     1.007825032230

  Basis Set: AUG-CC-PVTZ
    Blend: AUG-CC-PVTZ
  Basis Set: (AUG-CC-PVTZ AUX)
    Blend: AUG-CC-PVTZ-JKFIT
	 Reference Energy          =    -325.1982351657321146 [Eh]
	 Singles Energy            =      -0.0000000000000000 [Eh]
	 Same-Spin Energy          =      -0.3318059067016994 [Eh]
	 Opposite-Spin Energy      =      -1.1194428683884350 [Eh]
	 Correlation Energy        =      -1.4512487750901344 [Eh]
	 Total Energy              =    -326.6494839408222219 [Eh]

	 ================> DF-SCS-MP2 Energies <==================
	-----------------------------------------------------------
	 SCS Same-Spin Scale       =       0.3333333333333333 [-]
	 SCS Opposite-Spin Scale   =       1.2000000000000000 [-]
	 SCS Same-Spin Energy      =      -0.1106019689005665 [Eh]
	 SCS Opposite-Spin Energy  =      -1.3433314420661220 [Eh]
	 SCS Correlation Energy    =      -1.4539334109666884 [Eh]
	 SCS Total Energy          =    -326.6521685766987844 [Eh]
	-----------------------------------------------------------

  Dipole Moment: [D]
     X:    -0.6662      Y:     2.2374      Z:    -2.5476     Total:     3.4554

*** Psi4 exiting successfully. Buy a developer a beer!
