                               Psi4 1.3.2 release

  ==> Input File <==

--------------------------------------------------------------------------
#psi4
#
memory 32 gb

molecule  {
0 1
  O        0.3109550    -0.6942360     1.0654250
  N       -0.6919670     0.7804610    -0.3498900
  C       -2.0331630     0.4428770     0.0915860
  C        1.7355170     0.5659250    -0.4538020
  C        0.3865303     0.1519758     0.1295328
  C       -2.5721020    -0.8329900    -0.5555930
  C        2.8806560    -0.3237650     0.0245060
  H       -1.9910630     0.3248240     1.1818950
  H       -2.6829100     1.2983230    -0.1207890
  H        1.6067535     0.5281551    -1.5442675
  H        1.9198310     1.6196100    -0.1921910
  H       -0.5759590     1.3845000    -1.1569370
  H       -2.6081430    -0.7287990    -1.6478990
  H       -1.9207320    -1.6762470    -0.2982990
  H       -3.5840310    -1.0569410    -0.1969260
  H        2.7105400    -1.3693420    -0.2530710
  H        3.8280690     0.0048160    -0.4188000
  H        2.9664850    -0.2871200     1.1156770
units angstrom
no_reorient  #important for SAPT in psi4, default
symmetry c1  #important for SAPT in psi4, default
}

set PROPERTIES_ORIGIN ["COM"]
properties('MP2/aug-cc-pvtz', properties = ['dipole'])
--------------------------------------------------------------------------

    Molecular point group: c1
  Charge       = 0
  Multiplicity = 1
  Basis Set: AUG-CC-PVTZ
    Blend: AUG-CC-PVTZ
  Basis Set: (AUG-CC-PVTZ AUX)
    Blend: AUG-CC-PVTZ-JKFIT

    Orbital Energies [Eh]
    ---------------------

    Doubly Occupied:

       1A    -20.506030     2A    -15.587844     3A    -11.344359
       4A    -11.265573     5A    -11.243024     6A    -11.217263
       7A    -11.215635     8A     -1.352199     9A     -1.231748
      10A     -1.054717    11A     -1.010394    12A     -0.897058
      13A     -0.839926    14A     -0.782616    15A     -0.688942
      16A     -0.650460    17A     -0.634863    18A     -0.601920
      19A     -0.585269    20A     -0.572765    21A     -0.536215
      22A     -0.513775    23A     -0.512574    24A     -0.508905
      25A     -0.496749    26A     -0.478647    27A     -0.413299
      28A     -0.387734

  @DF-RHF Final Energy:  -325.19481601381636

   => Energetics <=

    Nuclear Repulsion Energy =            313.7472026570651451
    One-Electron Energy =               -1063.6230323772706470
    Two-Electron Energy =                 424.6810137063891375
    Total Energy =                       -325.1948160138163644
  Basis Set: (AUG-CC-PVTZ AUX)
    Blend: AUG-CC-PVTZ-RI
    Molecular point group: c1

    Geometry (in Angstrom), charge = 0, multiplicity = 1:

       Center              X                  Y                   Z               Mass
    ------------   -----------------  -----------------  -----------------  -----------------
         O            0.313729499331    -0.693394989270     1.071188900603    15.994914619570
         N           -0.689192500669     0.781302010730    -0.344126099397    14.003074004430
         C           -2.030388500669     0.443718010730     0.097349900603    12.000000000000
         C            1.738291499331     0.566766010730    -0.448038099397    12.000000000000
         C            0.389304799331     0.152816810730     0.135296700603    12.000000000000
         C           -2.569327500669    -0.832148989270    -0.549829099397    12.000000000000
         C            2.883430499331    -0.322923989270     0.030269900603    12.000000000000
         H           -1.988288500669     0.325665010730     1.187658900603     1.007825032230
         H           -2.680135500669     1.299164010730    -0.115025099397     1.007825032230
         H            1.609527999331     0.528996110730    -1.538503599397     1.007825032230
         H            1.922605499331     1.620451010730    -0.186427099397     1.007825032230
         H           -0.573184500669     1.385341010730    -1.151173099397     1.007825032230
         H           -2.605368500669    -0.727957989270    -1.642135099397     1.007825032230
         H           -1.917957500669    -1.675405989270    -0.292535099397     1.007825032230
         H           -3.581256500669    -1.056099989270    -0.191162099397     1.007825032230
         H            2.713314499331    -1.368500989270    -0.247307099397     1.007825032230
         H            3.830843499331     0.005657010730    -0.413036099397     1.007825032230
         H            2.969259499331    -0.286278989270     1.121440900603     1.007825032230

  Basis Set: AUG-CC-PVTZ
    Blend: AUG-CC-PVTZ
  Basis Set: (AUG-CC-PVTZ AUX)
    Blend: AUG-CC-PVTZ-JKFIT
	 Reference Energy          =    -325.1948160138163644 [Eh]
	 Singles Energy            =      -0.0000000000000000 [Eh]
	 Same-Spin Energy          =      -0.3323741859866747 [Eh]
	 Opposite-Spin Energy      =      -1.1204294338893286 [Eh]
	 Correlation Energy        =      -1.4528036198760033 [Eh]
	 Total Energy              =    -326.6476196336923863 [Eh]

	 ================> DF-SCS-MP2 Energies <==================
	-----------------------------------------------------------
	 SCS Same-Spin Scale       =       0.3333333333333333 [-]
	 SCS Opposite-Spin Scale   =       1.2000000000000000 [-]
	 SCS Same-Spin Energy      =      -0.1107913953288916 [Eh]
	 SCS Opposite-Spin Energy  =      -1.3445153206671943 [Eh]
	 SCS Correlation Energy    =      -1.4553067159960857 [Eh]
	 SCS Total Energy          =    -326.6501227298124377 [Eh]
	-----------------------------------------------------------

  Dipole Moment: [D]
     X:    -0.9098      Y:     2.3721      Z:    -2.7406     Total:     3.7370

*** Psi4 exiting successfully. Buy a developer a beer!
