                               Psi4 1.3.2 release

  ==> Input File <==

--------------------------------------------------------------------------
#psi4
#
memory 32 gb

molecule  {
0 1
  O        0.3109550    -0.6942360     1.0654250
  N       -0.7058699     0.7683581    -0.3346911
  C       -2.0331630     0.4428770     0.0915860
  C        1.7482051     0.5492637    -0.4373223
  C        0.4068390     0.1581200     0.1784230
  C       -2.5721020    -0.8329900    -0.5555930
  C        2.8806560    -0.3237650     0.0245060
  H       -1.9910630     0.3248240     1.1818950
  H       -2.6829100     1.2983230    -0.1207890
  H        1.6432190     0.5393270    -1.5482860
  H        1.9198310     1.6196100    -0.1921910
  H       -0.5759590     1.3845000    -1.1569370
  H       -2.6081430    -0.7287990    -1.6478990
  H       -1.9207320    -1.6762470    -0.2982990
  H       -3.5840310    -1.0569410    -0.1969260
  H        2.7105400    -1.3693420    -0.2530710
  H        3.8280690     0.0048160    -0.4188000
  H        2.9664850    -0.2871200     1.1156770
units angstrom
no_reorient  #important for SAPT in psi4, default
symmetry c1  #important for SAPT in psi4, default
}

set PROPERTIES_ORIGIN ["COM"]
properties('MP2/aug-cc-pvtz', properties = ['dipole'])
--------------------------------------------------------------------------

    Molecular point group: c1
  Charge       = 0
  Multiplicity = 1
  Basis Set: AUG-CC-PVTZ
    Blend: AUG-CC-PVTZ
  Basis Set: (AUG-CC-PVTZ AUX)
    Blend: AUG-CC-PVTZ-JKFIT

    Orbital Energies [Eh]
    ---------------------

    Doubly Occupied:

       1A    -20.512770     2A    -15.582383     3A    -11.345807
       4A    -11.260749     5A    -11.245393     6A    -11.215884
       7A    -11.214185     8A     -1.369181     9A     -1.226240
      10A     -1.057857    11A     -1.006986    12A     -0.895833
      13A     -0.836534    14A     -0.770279    15A     -0.692593
      16A     -0.651438    17A     -0.632895    18A     -0.605857
      19A     -0.586113    20A     -0.573845    21A     -0.539013
      22A     -0.517208    23A     -0.513758    24A     -0.513007
      25A     -0.493310    26A     -0.478888    27A     -0.418013
      28A     -0.384458

  @DF-RHF Final Energy:  -325.19619758220426

   => Energetics <=

    Nuclear Repulsion Energy =            314.0472767491813784
    One-Electron Energy =               -1064.2060022237963040
    Two-Electron Energy =                 424.9625278924106624
    Total Energy =                       -325.1961975822042632
  Basis Set: (AUG-CC-PVTZ AUX)
    Blend: AUG-CC-PVTZ-RI
    Molecular point group: c1

    Geometry (in Angstrom), charge = 0, multiplicity = 1:

       Center              X                  Y                   Z               Mass
    ------------   -----------------  -----------------  -----------------  -----------------
         O            0.311374735417    -0.690581255109     1.061363215550    15.994914619570
         N           -0.705450164583     0.772012844891    -0.338752884450    14.003074004430
         C           -2.032743264583     0.446531744891     0.087524215550    12.000000000000
         C            1.748624835417     0.552918444891    -0.441384084450    12.000000000000
         C            0.407258735417     0.161774744891     0.174361215550    12.000000000000
         C           -2.571682264583    -0.829335255109    -0.559654784450    12.000000000000
         C            2.881075735417    -0.320110255109     0.020444215550    12.000000000000
         H           -1.990643264583     0.328478744891     1.177833215550     1.007825032230
         H           -2.682490264583     1.301977744891    -0.124850784450     1.007825032230
         H            1.643638735417     0.542981744891    -1.552347784450     1.007825032230
         H            1.920250735417     1.623264744891    -0.196252784450     1.007825032230
         H           -0.575539264583     1.388154744891    -1.160998784450     1.007825032230
         H           -2.607723264583    -0.725144255109    -1.651960784450     1.007825032230
         H           -1.920312264583    -1.672592255109    -0.302360784450     1.007825032230
         H           -3.583611264583    -1.053286255109    -0.200987784450     1.007825032230
         H            2.710959735417    -1.365687255109    -0.257132784450     1.007825032230
         H            3.828488735417     0.008470744891    -0.422861784450     1.007825032230
         H            2.966904735417    -0.283465255109     1.111615215550     1.007825032230

  Basis Set: AUG-CC-PVTZ
    Blend: AUG-CC-PVTZ
  Basis Set: (AUG-CC-PVTZ AUX)
    Blend: AUG-CC-PVTZ-JKFIT
	 Reference Energy          =    -325.1961975822042632 [Eh]
	 Singles Energy            =      -0.0000000000000000 [Eh]
	 Same-Spin Energy          =      -0.3321942349355218 [Eh]
	 Opposite-Spin Energy      =      -1.1197764011541089 [Eh]
	 Correlation Energy        =      -1.4519706360896307 [Eh]
	 Total Energy              =    -326.6481682182939039 [Eh]

	 ================> DF-SCS-MP2 Energies <==================
	-----------------------------------------------------------
	 SCS Same-Spin Scale       =       0.3333333333333333 [-]
	 SCS Opposite-Spin Scale   =       1.2000000000000000 [-]
	 SCS Same-Spin Energy      =      -0.1107314116451739 [Eh]
	 SCS Opposite-Spin Energy  =      -1.3437316813849307 [Eh]
	 SCS Correlation Energy    =      -1.4544630930301046 [Eh]
	 SCS Total Energy          =    -326.6506606752343487 [Eh]
	-----------------------------------------------------------

  Dipole Moment: [D]
     X:    -0.6324      Y:     2.2640      Z:    -2.5929     Total:     3.4999

*** Psi4 exiting successfully. Buy a developer a beer!
