                               Psi4 1.4a3.dev225

  ==> Input File <==

--------------------------------------------------------------------------
#psi4
#
memory 32 gb

molecule  {
0 1
  O        0.3358460     1.2965490    -0.1579670
  N       -0.6355700    -0.7573960    -0.3171250
  C       -1.9537600    -0.2153280    -0.6135720
  C        1.6888930    -0.6226540     0.4213110
  C        0.4012969     0.0576849    -0.0454727
  C       -2.7106350     0.2148780     0.6378230
  C        2.9315370     0.1212560    -0.0546130
  H       -1.8024690     0.6408050    -1.2743770
  H       -2.5093410    -0.9768490    -1.1692540
  H        1.6661620    -0.6499400     1.5181760
  H        1.7013640    -1.6638910     0.0787670
  H       -0.5536820    -1.7388620    -0.0859220
  H       -2.8566760    -0.6308240     1.3159630
  H       -2.1451200     0.9906390     1.1579850
  H       -3.6935760     0.6181720     0.3752940
  H        2.8830370     1.1639450     0.2613510
  H        3.8370830    -0.3350390     0.3539010
  H        2.9990550     0.1035600    -1.1453320
units angstrom
no_reorient  #important for SAPT in psi4, default
symmetry c1  #important for SAPT in psi4, default
}

set PROPERTIES_ORIGIN ["COM"]
properties('MP2/aug-cc-pvtz', properties = ['dipole'])
--------------------------------------------------------------------------

    Molecular point group: c1
  Charge       = 0
  Multiplicity = 1
  Basis Set: AUG-CC-PVTZ
    Blend: AUG-CC-PVTZ
  Basis Set: (AUG-CC-PVTZ AUX)
    Blend: AUG-CC-PVTZ-JKFIT

    Orbital Energies [Eh]
    ---------------------

    Doubly Occupied:

       1A    -20.508358     2A    -15.586691     3A    -11.344105
       4A    -11.263714     5A    -11.240193     6A    -11.216387
       7A    -11.215146     8A     -1.361534     9A     -1.231896
      10A     -1.055147    11A     -1.011470    12A     -0.895602
      13A     -0.839797    14A     -0.783640    15A     -0.691194
      16A     -0.656384    17A     -0.620755    18A     -0.604444
      19A     -0.592850    20A     -0.580906    21A     -0.532282
      22A     -0.527191    23A     -0.512516    24A     -0.504349
      25A     -0.497175    26A     -0.481503    27A     -0.414171
      28A     -0.389887

  @DF-RHF Final Energy:  -325.19861804236768

   => Energetics <=

    Nuclear Repulsion Energy =            314.0385845897239960
    One-Electron Energy =               -1064.1558325750486347
    Two-Electron Energy =                 424.9186299429569544
    Total Energy =                       -325.1986180423676842
  Basis Set: (AUG-CC-PVTZ AUX)
    Blend: AUG-CC-PVTZ-RI
    Molecular point group: c1

    Geometry (in Angstrom), charge = 0, multiplicity = 1:

       Center              X                  Y                   Z               Mass
    ------------   -----------------  -----------------  -----------------  -----------------
         O            0.333056205066     1.273749318492    -0.143876983718    15.994914619570
         N           -0.638359794934    -0.780195681508    -0.303034983718    14.003074004430
         C           -1.956549794934    -0.238127681508    -0.599481983718    12.000000000000
         C            1.686103205066    -0.645453681508     0.435401016282    12.000000000000
         C            0.398507105066     0.034885218492    -0.031382683718    12.000000000000
         C           -2.713424794934     0.192078318492     0.651913016282    12.000000000000
         C            2.928747205066     0.098456318492    -0.040522983718    12.000000000000
         H           -1.805258794934     0.618005318492    -1.260286983718     1.007825032230
         H           -2.512130794934    -0.999648681508    -1.155163983718     1.007825032230
         H            1.663372205066    -0.672739681508     1.532266016282     1.007825032230
         H            1.698574205066    -1.686690681508     0.092857016282     1.007825032230
         H           -0.556471794934    -1.761661681508    -0.071831983718     1.007825032230
         H           -2.859465794934    -0.653623681508     1.330053016282     1.007825032230
         H           -2.147909794934     0.967839318492     1.172075016282     1.007825032230
         H           -3.696365794934     0.595372318492     0.389384016282     1.007825032230
         H            2.880247205066     1.141145318492     0.275441016282     1.007825032230
         H            3.834293205066    -0.357838681508     0.367991016282     1.007825032230
         H            2.996265205066     0.080760318492    -1.131241983718     1.007825032230

  Basis Set: AUG-CC-PVTZ
    Blend: AUG-CC-PVTZ
  Basis Set: (AUG-CC-PVTZ AUX)
    Blend: AUG-CC-PVTZ-JKFIT
	 Reference Energy          =    -325.1986180423676842 [Eh]
	 Singles Energy            =      -0.0000000000000000 [Eh]
	 Same-Spin Energy          =      -0.3320777360436014 [Eh]
	 Opposite-Spin Energy      =      -1.1195344799794746 [Eh]
	 Correlation Energy        =      -1.4516122160230760 [Eh]
	 Total Energy              =    -326.6502302583907635 [Eh]

	 ================> DF-SCS-MP2 Energies <==================
	-----------------------------------------------------------
	 SCS Same-Spin Scale       =       0.3333333333333333 [-]
	 SCS Opposite-Spin Scale   =       1.2000000000000000 [-]
	 SCS Same-Spin Energy      =      -0.1106925786812004 [Eh]
	 SCS Opposite-Spin Energy  =      -1.3434413759753696 [Eh]
	 SCS Correlation Energy    =      -1.4541339546565701 [Eh]
	 SCS Total Energy          =    -326.6527519970242679 [Eh]
	-----------------------------------------------------------

  Dipole Moment: [D]
     X:    -0.9610      Y:    -3.4831      Z:     0.3676     Total:     3.6319

*** Psi4 exiting successfully. Buy a developer a beer!
