                               Psi4 1.3.2 release

  ==> Input File <==

--------------------------------------------------------------------------
#psi4
#
memory 32 gb

molecule  {
0 1
  O        0.3109550    -0.6942360     1.0654250
  N       -0.6777294     0.7923744    -0.3649280
  C       -2.0331630     0.4428770     0.0915860
  C        1.7224242     0.5824621    -0.4700891
  C        0.4068390     0.1581200     0.1784230
  C       -2.5721020    -0.8329900    -0.5555930
  C        2.8806560    -0.3237650     0.0245060
  H       -1.9910630     0.3248240     1.1818950
  H       -2.6829100     1.2983230    -0.1207890
  H        1.6432190     0.5393270    -1.5482860
  H        1.9198310     1.6196100    -0.1921910
  H       -0.5759590     1.3845000    -1.1569370
  H       -2.6081430    -0.7287990    -1.6478990
  H       -1.9207320    -1.6762470    -0.2982990
  H       -3.5840310    -1.0569410    -0.1969260
  H        2.7105400    -1.3693420    -0.2530710
  H        3.8280690     0.0048160    -0.4188000
  H        2.9664850    -0.2871200     1.1156770
units angstrom
no_reorient  #important for SAPT in psi4, default
symmetry c1  #important for SAPT in psi4, default
}

set PROPERTIES_ORIGIN ["COM"]
properties('MP2/aug-cc-pvtz', properties = ['dipole'])
--------------------------------------------------------------------------

    Molecular point group: c1
  Charge       = 0
  Multiplicity = 1
  Basis Set: AUG-CC-PVTZ
    Blend: AUG-CC-PVTZ
  Basis Set: (AUG-CC-PVTZ AUX)
    Blend: AUG-CC-PVTZ-JKFIT

    Orbital Energies [Eh]
    ---------------------

    Doubly Occupied:

       1A    -20.515882     2A    -15.579554     3A    -11.346543
       4A    -11.263627     5A    -11.240038     6A    -11.216336
       7A    -11.215785     8A     -1.368653     9A     -1.224361
      10A     -1.051502    11A     -1.005491    12A     -0.892735
      13A     -0.835730    14A     -0.782706    15A     -0.692086
      16A     -0.645727    17A     -0.635171    18A     -0.603985
      19A     -0.589471    20A     -0.572527    21A     -0.532506
      22A     -0.515220    23A     -0.513847    24A     -0.504502
      25A     -0.497177    26A     -0.484792    27A     -0.418855
      28A     -0.388420

  @DF-RHF Final Energy:  -325.19730622735233

   => Energetics <=

    Nuclear Repulsion Energy =            313.3214158009657240
    One-Electron Energy =               -1062.7709896416743049
    Two-Electron Energy =                 424.2522676133562527
    Total Energy =                       -325.1973062273523283
  Basis Set: (AUG-CC-PVTZ AUX)
    Blend: AUG-CC-PVTZ-RI
    Molecular point group: c1

    Geometry (in Angstrom), charge = 0, multiplicity = 1:

       Center              X                  Y                   Z               Mass
    ------------   -----------------  -----------------  -----------------  -----------------
         O            0.310536990072    -0.697849293189     1.069441750546    15.994914619570
         N           -0.678147409928     0.788761106811    -0.360911249454    14.003074004430
         C           -2.033581009928     0.439263706811     0.095602750546    12.000000000000
         C            1.722006190072     0.578848806811    -0.466072349454    12.000000000000
         C            0.406420990072     0.154506706811     0.182439750546    12.000000000000
         C           -2.572520009928    -0.836603293189    -0.551576249454    12.000000000000
         C            2.880237990072    -0.327378293189     0.028522750546    12.000000000000
         H           -1.991481009928     0.321210706811     1.185911750546     1.007825032230
         H           -2.683328009928     1.294709706811    -0.116772249454     1.007825032230
         H            1.642800990072     0.535713706811    -1.544269249454     1.007825032230
         H            1.919412990072     1.615996706811    -0.188174249454     1.007825032230
         H           -0.576377009928     1.380886706811    -1.152920249454     1.007825032230
         H           -2.608561009928    -0.732412293189    -1.643882249454     1.007825032230
         H           -1.921150009928    -1.679860293189    -0.294282249454     1.007825032230
         H           -3.584449009928    -1.060554293189    -0.192909249454     1.007825032230
         H            2.710121990072    -1.372955293189    -0.249054249454     1.007825032230
         H            3.827650990072     0.001202706811    -0.414783249454     1.007825032230
         H            2.966066990072    -0.290733293189     1.119693750546     1.007825032230

  Basis Set: AUG-CC-PVTZ
    Blend: AUG-CC-PVTZ
  Basis Set: (AUG-CC-PVTZ AUX)
    Blend: AUG-CC-PVTZ-JKFIT
	 Reference Energy          =    -325.1973062273523283 [Eh]
	 Singles Energy            =      -0.0000000000000000 [Eh]
	 Same-Spin Energy          =      -0.3315763536160110 [Eh]
	 Opposite-Spin Energy      =      -1.1193251349021218 [Eh]
	 Correlation Energy        =      -1.4509014885181328 [Eh]
	 Total Energy              =    -326.6482077158704556 [Eh]

	 ================> DF-SCS-MP2 Energies <==================
	-----------------------------------------------------------
	 SCS Same-Spin Scale       =       0.3333333333333333 [-]
	 SCS Opposite-Spin Scale   =       1.2000000000000000 [-]
	 SCS Same-Spin Energy      =      -0.1105254512053370 [Eh]
	 SCS Opposite-Spin Energy  =      -1.3431901618825461 [Eh]
	 SCS Correlation Energy    =      -1.4537156130878832 [Eh]
	 SCS Total Energy          =    -326.6510218404401940 [Eh]
	-----------------------------------------------------------

  Dipole Moment: [D]
     X:    -0.7683      Y:     2.2240      Z:    -2.5642     Total:     3.4802

*** Psi4 exiting successfully. Buy a developer a beer!
