                               Psi4 1.3.2 release

  ==> Input File <==

--------------------------------------------------------------------------
#psi4
#
memory 32 gb

molecule  {
0 1
  O        0.3538363    -0.6982396     1.0651676
  N       -0.6630100     0.8054296    -0.3785430
  C       -2.0331630     0.4428770     0.0915860
  C        1.7355170     0.5659250    -0.4538020
  C        0.4068390     0.1581200     0.1784230
  C       -2.5721020    -0.8329900    -0.5555930
  C        2.8806560    -0.3237650     0.0245060
  H       -1.9910630     0.3248240     1.1818950
  H       -2.6829100     1.2983230    -0.1207890
  H        1.6432190     0.5393270    -1.5482860
  H        1.9198310     1.6196100    -0.1921910
  H       -0.5759590     1.3845000    -1.1569370
  H       -2.6081430    -0.7287990    -1.6478990
  H       -1.9207320    -1.6762470    -0.2982990
  H       -3.5840310    -1.0569410    -0.1969260
  H        2.7105400    -1.3693420    -0.2530710
  H        3.8280690     0.0048160    -0.4188000
  H        2.9664850    -0.2871200     1.1156770
units angstrom
no_reorient  #important for SAPT in psi4, default
symmetry c1  #important for SAPT in psi4, default
}

set PROPERTIES_ORIGIN ["COM"]
properties('MP2/aug-cc-pvtz', properties = ['dipole'])
--------------------------------------------------------------------------

    Molecular point group: c1
  Charge       = 0
  Multiplicity = 1
  Basis Set: AUG-CC-PVTZ
    Blend: AUG-CC-PVTZ
  Basis Set: (AUG-CC-PVTZ AUX)
    Blend: AUG-CC-PVTZ-JKFIT

    Orbital Energies [Eh]
    ---------------------

    Doubly Occupied:

       1A    -20.516767     2A    -15.580937     3A    -11.346833
       4A    -11.267172     5A    -11.237753     6A    -11.217899
       7A    -11.213049     8A     -1.368032     9A     -1.226247
      10A     -1.051005    11A     -1.008146    12A     -0.891479
      13A     -0.834949    14A     -0.789400    15A     -0.689867
      16A     -0.644434    17A     -0.631798    18A     -0.603933
      19A     -0.593295    20A     -0.572152    21A     -0.534933
      22A     -0.514561    23A     -0.511516    24A     -0.507949
      25A     -0.496114    26A     -0.482538    27A     -0.416862
      28A     -0.392043

  @DF-RHF Final Energy:  -325.19551962040521

   => Energetics <=

    Nuclear Repulsion Energy =            313.1244497148903179
    One-Electron Energy =               -1062.3566125516013017
    Two-Electron Energy =                 424.0366432163058334
    Total Energy =                       -325.1955196204052072
  Basis Set: (AUG-CC-PVTZ AUX)
    Blend: AUG-CC-PVTZ-RI
    Molecular point group: c1

    Geometry (in Angstrom), charge = 0, multiplicity = 1:

       Center              X                  Y                   Z               Mass
    ------------   -----------------  -----------------  -----------------  -----------------
         O            0.343039669165    -0.701064742166     1.069177660506    15.994914619570
         N           -0.673806630835     0.802604457834    -0.374532939494    14.003074004430
         C           -2.043959630835     0.440051857834     0.095596060506    12.000000000000
         C            1.724720369165     0.563099857834    -0.449791939494    12.000000000000
         C            0.396042369165     0.155294857834     0.182433060506    12.000000000000
         C           -2.582898630835    -0.835815142166    -0.551582939494    12.000000000000
         C            2.869859369165    -0.326590142166     0.028516060506    12.000000000000
         H           -2.001859630835     0.321998857834     1.185905060506     1.007825032230
         H           -2.693706630835     1.295497857834    -0.116778939494     1.007825032230
         H            1.632422369165     0.536501857834    -1.544275939494     1.007825032230
         H            1.909034369165     1.616784857834    -0.188180939494     1.007825032230
         H           -0.586755630835     1.381674857834    -1.152926939494     1.007825032230
         H           -2.618939630835    -0.731624142166    -1.643888939494     1.007825032230
         H           -1.931528630835    -1.679072142166    -0.294288939494     1.007825032230
         H           -3.594827630835    -1.059766142166    -0.192915939494     1.007825032230
         H            2.699743369165    -1.372167142166    -0.249060939494     1.007825032230
         H            3.817272369165     0.001990857834    -0.414789939494     1.007825032230
         H            2.955688369165    -0.289945142166     1.119687060506     1.007825032230

  Basis Set: AUG-CC-PVTZ
    Blend: AUG-CC-PVTZ
  Basis Set: (AUG-CC-PVTZ AUX)
    Blend: AUG-CC-PVTZ-JKFIT
	 Reference Energy          =    -325.1955196204052072 [Eh]
	 Singles Energy            =      -0.0000000000000000 [Eh]
	 Same-Spin Energy          =      -0.3314775710835071 [Eh]
	 Opposite-Spin Energy      =      -1.1192515567992793 [Eh]
	 Correlation Energy        =      -1.4507291278827865 [Eh]
	 Total Energy              =    -326.6462487482879737 [Eh]

	 ================> DF-SCS-MP2 Energies <==================
	-----------------------------------------------------------
	 SCS Same-Spin Scale       =       0.3333333333333333 [-]
	 SCS Opposite-Spin Scale   =       1.2000000000000000 [-]
	 SCS Same-Spin Energy      =      -0.1104925236945024 [Eh]
	 SCS Opposite-Spin Energy  =      -1.3431018681591351 [Eh]
	 SCS Correlation Energy    =      -1.4535943918536374 [Eh]
	 SCS Total Energy          =    -326.6491140122588490 [Eh]
	-----------------------------------------------------------

  Dipole Moment: [D]
     X:    -0.9610      Y:     2.1925      Z:    -2.5356     Total:     3.4871

*** Psi4 exiting successfully. Buy a developer a beer!
