                               Psi4 1.3.2 release

  ==> Input File <==

--------------------------------------------------------------------------
#psi4
#
memory 32 gb

molecule  {
0 1
  O        0.0787650     2.1311770    -0.2164080
  N        0.1294694    -0.1843018    -0.2566791
  C        1.5484140    -0.1005230    -0.5118890
  C        2.4562500     0.4082890     0.5600040
  C        2.4806620    -1.0501060     0.1884540
  C       -0.5399690     1.0666720    -0.0960400
  C       -0.5048870    -1.3883940    -0.2151950
  C       -1.9528000     0.9321040     0.1889810
  C       -1.8475120    -1.4809310     0.0203080
  C       -2.5801750    -0.2831070     0.2328620
  H        1.7757480     0.1884380    -1.5349100
  H        1.9894860     0.6779030     1.5004770
  H        3.2759230     1.0506550     0.2582410
  H        3.3211070    -1.4385120    -0.3773670
  H        2.0523810    -1.7508080     0.8974130
  H        0.1298880    -2.2506920    -0.3908910
  H       -2.4932330     1.8615660     0.3382590
  H       -2.3266410    -2.4532080     0.0346430
  H       -3.6480090    -0.3319380     0.4347920
units angstrom
no_reorient  #important for SAPT in psi4, default
symmetry c1  #important for SAPT in psi4, default
}

set PROPERTIES_ORIGIN ["COM"]
properties('MP2/aug-cc-pvtz', properties = ['dipole'])
--------------------------------------------------------------------------

    Molecular point group: c1
  Charge       = 0
  Multiplicity = 1
  Basis Set: AUG-CC-PVTZ
    Blend: AUG-CC-PVTZ
  Basis Set: (AUG-CC-PVTZ AUX)
    Blend: AUG-CC-PVTZ-JKFIT

    Orbital Energies [Eh]
    ---------------------

    Doubly Occupied:

       1A    -20.508264     2A    -15.627749     3A    -11.351001
       4A    -11.306607     5A    -11.279587     6A    -11.270326
       7A    -11.243445     8A    -11.238216     9A    -11.236319
      10A    -11.234918    11A     -1.369999    12A     -1.284740
      13A     -1.156356    14A     -1.095861    15A     -1.024135
      16A     -0.902111    17A     -0.868643    18A     -0.829610
      19A     -0.811847    20A     -0.725786    21A     -0.696853
      22A     -0.682532    23A     -0.664278    24A     -0.640337
      25A     -0.606158    26A     -0.594692    27A     -0.576972
      28A     -0.546149    29A     -0.534881    30A     -0.526723
      31A     -0.481845    32A     -0.456167    33A     -0.440274
      34A     -0.420413    35A     -0.400323    36A     -0.307779

  @DF-RHF Final Energy:  -437.61038493523836

   => Energetics <=

    Nuclear Repulsion Energy =            508.1152324823137292
    One-Electron Energy =               -1601.5674444382636921
    Two-Electron Energy =                 655.8418270207115484
    Total Energy =                       -437.6103849352383577
  Basis Set: (AUG-CC-PVTZ AUX)
    Blend: AUG-CC-PVTZ-RI
    Molecular point group: c1

    Geometry (in Angstrom), charge = 0, multiplicity = 1:

       Center              X                  Y                   Z               Mass
    ------------   -----------------  -----------------  -----------------  -----------------
         O            0.109111436477     2.099534815652    -0.205478984885    15.994914619570
         N            0.159815836477    -0.215943984348    -0.245750084885    14.003074004430
         C            1.578760436477    -0.132165184348    -0.500959984885    12.000000000000
         C            2.486596436477     0.376646815652     0.570933015115    12.000000000000
         C            2.511008436477    -1.081748184348     0.199383015115    12.000000000000
         C           -0.509622563523     1.035029815652    -0.085110984885    12.000000000000
         C           -0.474540563523    -1.420036184348    -0.204265984885    12.000000000000
         C           -1.922453563523     0.900461815652     0.199910015115    12.000000000000
         C           -1.817165563523    -1.512573184348     0.031237015115    12.000000000000
         C           -2.549828563523    -0.314749184348     0.243791015115    12.000000000000
         H            1.806094436477     0.156795815652    -1.523980984885     1.007825032230
         H            2.019832436477     0.646260815652     1.511406015115     1.007825032230
         H            3.306269436477     1.019012815652     0.269170015115     1.007825032230
         H            3.351453436477    -1.470154184348    -0.366437984885     1.007825032230
         H            2.082727436477    -1.782450184348     0.908342015115     1.007825032230
         H            0.160234436477    -2.282334184348    -0.379961984885     1.007825032230
         H           -2.462886563523     1.829923815652     0.349188015115     1.007825032230
         H           -2.296294563523    -2.484850184348     0.045572015115     1.007825032230
         H           -3.617662563523    -0.363580184348     0.445721015115     1.007825032230

  Basis Set: AUG-CC-PVTZ
    Blend: AUG-CC-PVTZ
  Basis Set: (AUG-CC-PVTZ AUX)
    Blend: AUG-CC-PVTZ-JKFIT
	 Reference Energy          =    -437.6103849352383577 [Eh]
	 Singles Energy            =      -0.0000000000000000 [Eh]
	 Same-Spin Energy          =      -0.4678685129301506 [Eh]
	 Opposite-Spin Energy      =      -1.4646640430767739 [Eh]
	 Correlation Energy        =      -1.9325325560069246 [Eh]
	 Total Energy              =    -439.5429174912453050 [Eh]

	 ================> DF-SCS-MP2 Energies <==================
	-----------------------------------------------------------
	 SCS Same-Spin Scale       =       0.3333333333333333 [-]
	 SCS Opposite-Spin Scale   =       1.2000000000000000 [-]
	 SCS Same-Spin Energy      =      -0.1559561709767169 [Eh]
	 SCS Opposite-Spin Energy  =      -1.7575968516921285 [Eh]
	 SCS Correlation Energy    =      -1.9135530226688453 [Eh]
	 SCS Total Energy          =    -439.5239379579072079 [Eh]
	-----------------------------------------------------------

  Dipole Moment: [D]
     X:     0.0275      Y:    -3.7625      Z:     0.1682     Total:     3.7664

*** Psi4 exiting successfully. Buy a developer a beer!
