                               Psi4 1.3.2 release

  ==> Input File <==

--------------------------------------------------------------------------
#psi4
#
memory 32 gb

molecule  {
0 1
  O        0.0787650     2.1311770    -0.2164080
  N        0.1333340    -0.1752640    -0.2334700
  C        1.5484140    -0.1005230    -0.5118890
  C        2.4562500     0.4082890     0.5600040
  C        2.4806620    -1.0501060     0.1884540
  C       -0.5399690     1.0666720    -0.0960400
  C       -0.5514422    -1.4768860    -0.2138619
  C       -1.9528000     0.9321040     0.1889810
  C       -1.8475120    -1.4809310     0.0203080
  C       -2.5801750    -0.2831070     0.2328620
  H        1.7757480     0.1884380    -1.5349100
  H        1.9894860     0.6779030     1.5004770
  H        3.2759230     1.0506550     0.2582410
  H        3.3211070    -1.4385120    -0.3773670
  H        2.0523810    -1.7508080     0.8974130
  H        0.1298880    -2.2506920    -0.3908910
  H       -2.4932330     1.8615660     0.3382590
  H       -2.3266410    -2.4532080     0.0346430
  H       -3.6480090    -0.3319380     0.4347920
units angstrom
no_reorient  #important for SAPT in psi4, default
symmetry c1  #important for SAPT in psi4, default
}

set PROPERTIES_ORIGIN ["COM"]
properties('MP2/aug-cc-pvtz', properties = ['dipole'])
--------------------------------------------------------------------------

    Molecular point group: c1
  Charge       = 0
  Multiplicity = 1
  Basis Set: AUG-CC-PVTZ
    Blend: AUG-CC-PVTZ
  Basis Set: (AUG-CC-PVTZ AUX)
    Blend: AUG-CC-PVTZ-JKFIT

    Orbital Energies [Eh]
    ---------------------

    Doubly Occupied:

       1A    -20.507541     2A    -15.615761     3A    -11.348958
       4A    -11.302046     5A    -11.273620     6A    -11.273261
       7A    -11.244737     8A    -11.242193     9A    -11.238948
      10A    -11.229480    11A     -1.364607    12A     -1.259662
      13A     -1.153120    14A     -1.094048    15A     -1.035330
      16A     -0.900837    17A     -0.860659    18A     -0.826417
      19A     -0.803020    20A     -0.720306    21A     -0.695440
      22A     -0.683712    23A     -0.664883    24A     -0.638460
      25A     -0.612991    26A     -0.585803    27A     -0.574457
      28A     -0.545383    29A     -0.535243    30A     -0.522558
      31A     -0.478036    32A     -0.454289    33A     -0.434270
      34A     -0.419134    35A     -0.392176    36A     -0.322194

  @DF-RHF Final Energy:  -437.59988928812174

   => Energetics <=

    Nuclear Repulsion Energy =            506.6163967435849713
    One-Electron Energy =               -1598.7254146161956214
    Two-Electron Energy =                 654.5091285844888489
    Total Energy =                       -437.5998892881217444
  Basis Set: (AUG-CC-PVTZ AUX)
    Blend: AUG-CC-PVTZ-RI
    Molecular point group: c1

    Geometry (in Angstrom), charge = 0, multiplicity = 1:

       Center              X                  Y                   Z               Mass
    ------------   -----------------  -----------------  -----------------  -----------------
         O            0.112846922114     2.106459802706    -0.208003601374    15.994914619570
         N            0.167415922114    -0.199981197294    -0.225065601374    14.003074004430
         C            1.582495922114    -0.125240197294    -0.503484601374    12.000000000000
         C            2.490331922114     0.383571802706     0.568408398626    12.000000000000
         C            2.514743922114    -1.074823197294     0.196858398626    12.000000000000
         C           -0.505887077886     1.041954802706    -0.087635601374    12.000000000000
         C           -0.517360277886    -1.501603197294    -0.205457501374    12.000000000000
         C           -1.918718077886     0.907386802706     0.197385398626    12.000000000000
         C           -1.813430077886    -1.505648197294     0.028712398626    12.000000000000
         C           -2.546093077886    -0.307824197294     0.241266398626    12.000000000000
         H            1.809829922114     0.163720802706    -1.526505601374     1.007825032230
         H            2.023567922114     0.653185802706     1.508881398626     1.007825032230
         H            3.310004922114     1.025937802706     0.266645398626     1.007825032230
         H            3.355188922114    -1.463229197294    -0.368962601374     1.007825032230
         H            2.086462922114    -1.775525197294     0.905817398626     1.007825032230
         H            0.163969922114    -2.275409197294    -0.382486601374     1.007825032230
         H           -2.459151077886     1.836848802706     0.346663398626     1.007825032230
         H           -2.292559077886    -2.477925197294     0.043047398626     1.007825032230
         H           -3.613927077886    -0.356655197294     0.443196398626     1.007825032230

  Basis Set: AUG-CC-PVTZ
    Blend: AUG-CC-PVTZ
  Basis Set: (AUG-CC-PVTZ AUX)
    Blend: AUG-CC-PVTZ-JKFIT
	 Reference Energy          =    -437.5998892881217444 [Eh]
	 Singles Energy            =      -0.0000000000000000 [Eh]
	 Same-Spin Energy          =      -0.4666956874893611 [Eh]
	 Opposite-Spin Energy      =      -1.4652145147427325 [Eh]
	 Correlation Energy        =      -1.9319102022320935 [Eh]
	 Total Energy              =    -439.5317994903538192 [Eh]

	 ================> DF-SCS-MP2 Energies <==================
	-----------------------------------------------------------
	 SCS Same-Spin Scale       =       0.3333333333333333 [-]
	 SCS Opposite-Spin Scale   =       1.2000000000000000 [-]
	 SCS Same-Spin Energy      =      -0.1555652291631203 [Eh]
	 SCS Opposite-Spin Energy  =      -1.7582574176912789 [Eh]
	 SCS Correlation Energy    =      -1.9138226468543993 [Eh]
	 SCS Total Energy          =    -439.5137119349761292 [Eh]
	-----------------------------------------------------------

  Dipole Moment: [D]
     X:    -0.3675      Y:    -3.8745      Z:     0.1798     Total:     3.8960

*** Psi4 exiting successfully. Buy a developer a beer!
