                               Psi4 1.3.2 release

  ==> Input File <==

--------------------------------------------------------------------------
#psi4
#
memory 32 gb

molecule  {
0 1
  O        0.0787650     2.1311770    -0.2164080
  N        0.1333340    -0.1752640    -0.2334700
  C        1.7443888    -0.0901721    -0.5504473
  C        2.4562500     0.4082890     0.5600040
  C        2.4806620    -1.0501060     0.1884540
  C       -0.5399690     1.0666720    -0.0960400
  C       -0.5048870    -1.3883940    -0.2151950
  C       -1.9528000     0.9321040     0.1889810
  C       -1.8475120    -1.4809310     0.0203080
  C       -2.5801750    -0.2831070     0.2328620
  H        1.7757480     0.1884380    -1.5349100
  H        1.9894860     0.6779030     1.5004770
  H        3.2759230     1.0506550     0.2582410
  H        3.3211070    -1.4385120    -0.3773670
  H        2.0523810    -1.7508080     0.8974130
  H        0.1298880    -2.2506920    -0.3908910
  H       -2.4932330     1.8615660     0.3382590
  H       -2.3266410    -2.4532080     0.0346430
  H       -3.6480090    -0.3319380     0.4347920
units angstrom
no_reorient  #important for SAPT in psi4, default
symmetry c1  #important for SAPT in psi4, default
}

set PROPERTIES_ORIGIN ["COM"]
properties('MP2/aug-cc-pvtz', properties = ['dipole'])
--------------------------------------------------------------------------

    Molecular point group: c1
  Charge       = 0
  Multiplicity = 1
  Basis Set: AUG-CC-PVTZ
    Blend: AUG-CC-PVTZ
  Basis Set: (AUG-CC-PVTZ AUX)
    Blend: AUG-CC-PVTZ-JKFIT

    Orbital Energies [Eh]
    ---------------------

    Doubly Occupied:

       1A    -20.498754     2A    -15.615785     3A    -11.342106
       4A    -11.300559     5A    -11.291224     6A    -11.264075
       7A    -11.245764     8A    -11.237166     9A    -11.232055
      10A    -11.230123    11A     -1.356855    12A     -1.260474
      13A     -1.189981    14A     -1.088354    15A     -1.015750
      16A     -0.883013    17A     -0.861978    18A     -0.838150
      19A     -0.818753    20A     -0.721345    21A     -0.700092
      22A     -0.678698    23A     -0.666824    24A     -0.640383
      25A     -0.599764    26A     -0.584352    27A     -0.575357
      28A     -0.542151    29A     -0.535405    30A     -0.509638
      31A     -0.476039    32A     -0.472043    33A     -0.453937
      34A     -0.411100    35A     -0.400051    36A     -0.301665

  @DF-RHF Final Energy:  -437.57669045510880

   => Energetics <=

    Nuclear Repulsion Energy =            505.9949017249421672
    One-Electron Energy =               -1597.4636561238744434
    Two-Electron Energy =                 653.8920639438234730
    Total Energy =                       -437.5766904551088601
  Basis Set: (AUG-CC-PVTZ AUX)
    Blend: AUG-CC-PVTZ-RI
    Molecular point group: c1

    Geometry (in Angstrom), charge = 0, multiplicity = 1:

       Center              X                  Y                   Z               Mass
    ------------   -----------------  -----------------  -----------------  -----------------
         O            0.091299619412     2.097678217392    -0.204459495197    15.994914619570
         N            0.145868619412    -0.208762782608    -0.221521495197    14.003074004430
         C            1.756923419412    -0.123670882608    -0.538498795197    12.000000000000
         C            2.468784619412     0.374790217392     0.571952504803    12.000000000000
         C            2.493196619412    -1.083604782608     0.200402504803    12.000000000000
         C           -0.527434380588     1.033173217392    -0.084091495197    12.000000000000
         C           -0.492352380588    -1.421892782608    -0.203246495197    12.000000000000
         C           -1.940265380588     0.898605217392     0.200929504803    12.000000000000
         C           -1.834977380588    -1.514429782608     0.032256504803    12.000000000000
         C           -2.567640380588    -0.316605782608     0.244810504803    12.000000000000
         H            1.788282619412     0.154939217392    -1.522961495197     1.007825032230
         H            2.002020619412     0.644404217392     1.512425504803     1.007825032230
         H            3.288457619412     1.017156217392     0.270189504803     1.007825032230
         H            3.333641619412    -1.472010782608    -0.365418495197     1.007825032230
         H            2.064915619412    -1.784306782608     0.909361504803     1.007825032230
         H            0.142422619412    -2.284190782608    -0.378942495197     1.007825032230
         H           -2.480698380588     1.828067217392     0.350207504803     1.007825032230
         H           -2.314106380588    -2.486706782608     0.046591504803     1.007825032230
         H           -3.635474380588    -0.365436782608     0.446740504803     1.007825032230

  Basis Set: AUG-CC-PVTZ
    Blend: AUG-CC-PVTZ
  Basis Set: (AUG-CC-PVTZ AUX)
    Blend: AUG-CC-PVTZ-JKFIT
	 Reference Energy          =    -437.5766904551088032 [Eh]
	 Singles Energy            =      -0.0000000000000000 [Eh]
	 Same-Spin Energy          =      -0.4684971166930880 [Eh]
	 Opposite-Spin Energy      =      -1.4652107690129161 [Eh]
	 Correlation Energy        =      -1.9337078857060042 [Eh]
	 Total Energy              =    -439.5103983408147883 [Eh]

	 ================> DF-SCS-MP2 Energies <==================
	-----------------------------------------------------------
	 SCS Same-Spin Scale       =       0.3333333333333333 [-]
	 SCS Opposite-Spin Scale   =       1.2000000000000000 [-]
	 SCS Same-Spin Energy      =      -0.1561657055643627 [Eh]
	 SCS Opposite-Spin Energy  =      -1.7582529228154993 [Eh]
	 SCS Correlation Energy    =      -1.9144186283798619 [Eh]
	 SCS Total Energy          =    -439.4911090834886522 [Eh]
	-----------------------------------------------------------

  Dipole Moment: [D]
     X:     0.6616      Y:    -3.8700      Z:     0.0888     Total:     3.9272

*** Psi4 exiting successfully. Buy a developer a beer!
