                               Psi4 1.3.2 release

  ==> Input File <==

--------------------------------------------------------------------------
#psi4
#
memory 32 gb

molecule  {
0 1
  O        0.0787650     2.1311770    -0.2164080
  N        0.1376297    -0.1662034    -0.2103457
  C        1.5484140    -0.1005230    -0.5118890
  C        2.4562500     0.4082890     0.5600040
  C        2.4806620    -1.0501060     0.1884540
  C       -0.5399690     1.0666720    -0.0960400
  C       -0.5048870    -1.3883940    -0.2151950
  C       -1.9528000     0.9321040     0.1889810
  C       -1.8475120    -1.4809310     0.0203080
  C       -2.5801750    -0.2831070     0.2328620
  H        1.7757480     0.1884380    -1.5349100
  H        1.9894860     0.6779030     1.5004770
  H        3.2759230     1.0506550     0.2582410
  H        3.3211070    -1.4385120    -0.3773670
  H        2.0523810    -1.7508080     0.8974130
  H        0.1298880    -2.2506920    -0.3908910
  H       -2.4932330     1.8615660     0.3382590
  H       -2.3266410    -2.4532080     0.0346430
  H       -3.6480090    -0.3319380     0.4347920
units angstrom
no_reorient  #important for SAPT in psi4, default
symmetry c1  #important for SAPT in psi4, default
}

set PROPERTIES_ORIGIN ["COM"]
properties('MP2/aug-cc-pvtz', properties = ['dipole'])
--------------------------------------------------------------------------

    Molecular point group: c1
  Charge       = 0
  Multiplicity = 1
  Basis Set: AUG-CC-PVTZ
    Blend: AUG-CC-PVTZ
  Basis Set: (AUG-CC-PVTZ AUX)
    Blend: AUG-CC-PVTZ-JKFIT

    Orbital Energies [Eh]
    ---------------------

    Doubly Occupied:

       1A    -20.506310     2A    -15.626855     3A    -11.349045
       4A    -11.307515     5A    -11.278937     6A    -11.270573
       7A    -11.242963     8A    -11.240475     9A    -11.237637
      10A    -11.233229    11A     -1.370219    12A     -1.281276
      13A     -1.155866    14A     -1.095842    15A     -1.024997
      16A     -0.901306    17A     -0.868991    18A     -0.829360
      19A     -0.809707    20A     -0.725945    21A     -0.698366
      22A     -0.681775    23A     -0.663354    24A     -0.640389
      25A     -0.606291    26A     -0.593480    27A     -0.577466
      28A     -0.546075    29A     -0.535885    30A     -0.525672
      31A     -0.479464    32A     -0.454699    33A     -0.439885
      34A     -0.420723    35A     -0.399232    36A     -0.309920

  @DF-RHF Final Energy:  -437.61058599254346

   => Energetics <=

    Nuclear Repulsion Energy =            508.2818597692237859
    One-Electron Energy =               -1601.9254380796608075
    Two-Electron Energy =                 656.0329923178936724
    Total Energy =                       -437.6105859925434061
  Basis Set: (AUG-CC-PVTZ AUX)
    Blend: AUG-CC-PVTZ-RI
    Molecular point group: c1

    Geometry (in Angstrom), charge = 0, multiplicity = 1:

       Center              X                  Y                   Z               Mass
    ------------   -----------------  -----------------  -----------------  -----------------
         O            0.108265426062     2.097658483302    -0.210282550798    15.994914619570
         N            0.167130126062    -0.199721916698    -0.204220250798    14.003074004430
         C            1.577914426062    -0.134041516698    -0.505763550798    12.000000000000
         C            2.485750426062     0.374770483302     0.566129449202    12.000000000000
         C            2.510162426062    -1.083624516698     0.194579449202    12.000000000000
         C           -0.510468573938     1.033153483302    -0.089914550798    12.000000000000
         C           -0.475386573938    -1.421912516698    -0.209069550798    12.000000000000
         C           -1.923299573938     0.898585483302     0.195106449202    12.000000000000
         C           -1.818011573938    -1.514449516698     0.026433449202    12.000000000000
         C           -2.550674573938    -0.316625516698     0.238987449202    12.000000000000
         H            1.805248426062     0.154919483302    -1.528784550798     1.007825032230
         H            2.018986426062     0.644384483302     1.506602449202     1.007825032230
         H            3.305423426062     1.017136483302     0.264366449202     1.007825032230
         H            3.350607426062    -1.472030516698    -0.371241550798     1.007825032230
         H            2.081881426062    -1.784326516698     0.903538449202     1.007825032230
         H            0.159388426062    -2.284210516698    -0.384765550798     1.007825032230
         H           -2.463732573938     1.828047483302     0.344384449202     1.007825032230
         H           -2.297140573938    -2.486726516698     0.040768449202     1.007825032230
         H           -3.618508573938    -0.365456516698     0.440917449202     1.007825032230

  Basis Set: AUG-CC-PVTZ
    Blend: AUG-CC-PVTZ
  Basis Set: (AUG-CC-PVTZ AUX)
    Blend: AUG-CC-PVTZ-JKFIT
	 Reference Energy          =    -437.6105859925434629 [Eh]
	 Singles Energy            =      -0.0000000000000000 [Eh]
	 Same-Spin Energy          =      -0.4676201174982518 [Eh]
	 Opposite-Spin Energy      =      -1.4646367169202428 [Eh]
	 Correlation Energy        =      -1.9322568344184945 [Eh]
	 Total Energy              =    -439.5428428269619303 [Eh]

	 ================> DF-SCS-MP2 Energies <==================
	-----------------------------------------------------------
	 SCS Same-Spin Scale       =       0.3333333333333333 [-]
	 SCS Opposite-Spin Scale   =       1.2000000000000000 [-]
	 SCS Same-Spin Energy      =      -0.1558733724994173 [Eh]
	 SCS Opposite-Spin Energy  =      -1.7575640603042912 [Eh]
	 SCS Correlation Energy    =      -1.9134374328037085 [Eh]
	 SCS Total Energy          =    -439.5240234253471954 [Eh]
	-----------------------------------------------------------

  Dipole Moment: [D]
     X:    -0.0569      Y:    -3.8203      Z:     0.1451     Total:     3.8235

*** Psi4 exiting successfully. Buy a developer a beer!
