                               Psi4 1.3.2 release

  ==> Input File <==

--------------------------------------------------------------------------
#psi4
#
memory 32 gb

molecule  {
0 1
  O        0.0787650     2.1311770    -0.2164080
  N        0.1333340    -0.1752640    -0.2334700
  C        1.5482165    -0.2516833    -0.5124366
  C        2.4562500     0.4082890     0.5600040
  C        2.4806620    -1.0501060     0.1884540
  C       -0.5399690     1.0666720    -0.0960400
  C       -0.5048870    -1.3883940    -0.2151950
  C       -1.9528000     0.9321040     0.1889810
  C       -1.8475120    -1.4809310     0.0203080
  C       -2.5801750    -0.2831070     0.2328620
  H        1.7757480     0.1884380    -1.5349100
  H        1.9894860     0.6779030     1.5004770
  H        3.2759230     1.0506550     0.2582410
  H        3.3211070    -1.4385120    -0.3773670
  H        2.0523810    -1.7508080     0.8974130
  H        0.1298880    -2.2506920    -0.3908910
  H       -2.4932330     1.8615660     0.3382590
  H       -2.3266410    -2.4532080     0.0346430
  H       -3.6480090    -0.3319380     0.4347920
units angstrom
no_reorient  #important for SAPT in psi4, default
symmetry c1  #important for SAPT in psi4, default
}

set PROPERTIES_ORIGIN ["COM"]
properties('MP2/aug-cc-pvtz', properties = ['dipole'])
--------------------------------------------------------------------------

    Molecular point group: c1
  Charge       = 0
  Multiplicity = 1
  Basis Set: AUG-CC-PVTZ
    Blend: AUG-CC-PVTZ
  Basis Set: (AUG-CC-PVTZ AUX)
    Blend: AUG-CC-PVTZ-JKFIT

    Orbital Energies [Eh]
    ---------------------

    Doubly Occupied:

       1A    -20.507159     2A    -15.628895     3A    -11.352460
       4A    -11.305764     5A    -11.283255     6A    -11.270740
       7A    -11.246553     8A    -11.238811     9A    -11.238101
      10A    -11.231432    11A     -1.369232    12A     -1.286235
      13A     -1.163076    14A     -1.098267    15A     -1.024644
      16A     -0.899145    17A     -0.874484    18A     -0.831531
      19A     -0.806566    20A     -0.722814    21A     -0.699451
      22A     -0.682560    23A     -0.667100    24A     -0.641913
      25A     -0.606401    26A     -0.595309    27A     -0.572242
      28A     -0.541176    29A     -0.533678    30A     -0.527369
      31A     -0.483117    32A     -0.478335    33A     -0.435520
      34A     -0.420868    35A     -0.382608    36A     -0.308265

  @DF-RHF Final Energy:  -437.59418913939118

   => Energetics <=

    Nuclear Repulsion Energy =            508.1236132579203399
    One-Electron Energy =               -1601.5254577729465382
    Two-Electron Energy =                 655.8076553756350222
    Total Energy =                       -437.5941891393911192
  Basis Set: (AUG-CC-PVTZ AUX)
    Blend: AUG-CC-PVTZ-RI
    Molecular point group: c1

    Geometry (in Angstrom), charge = 0, multiplicity = 1:

       Center              X                  Y                   Z               Mass
    ------------   -----------------  -----------------  -----------------  -----------------
         O            0.108728324850     2.112027496723    -0.207836512716    15.994914619570
         N            0.163297324850    -0.194413503277    -0.224898512716    14.003074004430
         C            1.578179824850    -0.270832803277    -0.503865112716    12.000000000000
         C            2.486213324850     0.389139496723     0.568575487284    12.000000000000
         C            2.510625324850    -1.069255503277     0.197025487284    12.000000000000
         C           -0.510005675150     1.047522496723    -0.087468512716    12.000000000000
         C           -0.474923675150    -1.407543503277    -0.206623512716    12.000000000000
         C           -1.922836675150     0.912954496723     0.197552487284    12.000000000000
         C           -1.817548675150    -1.500080503277     0.028879487284    12.000000000000
         C           -2.550211675150    -0.302256503277     0.241433487284    12.000000000000
         H            1.805711324850     0.169288496723    -1.526338512716     1.007825032230
         H            2.019449324850     0.658753496723     1.509048487284     1.007825032230
         H            3.305886324850     1.031505496723     0.266812487284     1.007825032230
         H            3.351070324850    -1.457661503277    -0.368795512716     1.007825032230
         H            2.082344324850    -1.769957503277     0.905984487284     1.007825032230
         H            0.159851324850    -2.269841503277    -0.382319512716     1.007825032230
         H           -2.463269675150     1.842416496723     0.346830487284     1.007825032230
         H           -2.296677675150    -2.472357503277     0.043214487284     1.007825032230
         H           -3.618045675150    -0.351087503277     0.443363487284     1.007825032230

  Basis Set: AUG-CC-PVTZ
    Blend: AUG-CC-PVTZ
  Basis Set: (AUG-CC-PVTZ AUX)
    Blend: AUG-CC-PVTZ-JKFIT
	 Reference Energy          =    -437.5941891393911760 [Eh]
	 Singles Energy            =      -0.0000000000000000 [Eh]
	 Same-Spin Energy          =      -0.4688018551730068 [Eh]
	 Opposite-Spin Energy      =      -1.4663631635823320 [Eh]
	 Correlation Energy        =      -1.9351650187553386 [Eh]
	 Total Energy              =    -439.5293541581465320 [Eh]

	 ================> DF-SCS-MP2 Energies <==================
	-----------------------------------------------------------
	 SCS Same-Spin Scale       =       0.3333333333333333 [-]
	 SCS Opposite-Spin Scale   =       1.2000000000000000 [-]
	 SCS Same-Spin Energy      =      -0.1562672850576689 [Eh]
	 SCS Opposite-Spin Energy  =      -1.7596357962987983 [Eh]
	 SCS Correlation Energy    =      -1.9159030813564673 [Eh]
	 SCS Total Energy          =    -439.5100922207476515 [Eh]
	-----------------------------------------------------------

  Dipole Moment: [D]
     X:    -0.0060      Y:    -3.8976      Z:     0.1535     Total:     3.9007

*** Psi4 exiting successfully. Buy a developer a beer!
