                               Psi4 1.3.2 release

  ==> Input File <==

--------------------------------------------------------------------------
#psi4
#
memory 32 gb

molecule  {
0 1
  O        0.0787650     2.1311770    -0.2164080
  N        0.1241363    -0.1617392    -0.2811503
  C        1.5484140    -0.1005230    -0.5118890
  C        2.4562500     0.4082890     0.5600040
  C        2.4806620    -1.0501060     0.1884540
  C       -0.5399690     1.0666720    -0.0960400
  C       -0.5048870    -1.3883940    -0.2151950
  C       -1.9528000     0.9321040     0.1889810
  C       -1.8475120    -1.4809310     0.0203080
  C       -2.5801750    -0.2831070     0.2328620
  H        1.7757480     0.1884380    -1.5349100
  H        1.9894860     0.6779030     1.5004770
  H        3.2759230     1.0506550     0.2582410
  H        3.3211070    -1.4385120    -0.3773670
  H        2.0523810    -1.7508080     0.8974130
  H        0.1298880    -2.2506920    -0.3908910
  H       -2.4932330     1.8615660     0.3382590
  H       -2.3266410    -2.4532080     0.0346430
  H       -3.6480090    -0.3319380     0.4347920
units angstrom
no_reorient  #important for SAPT in psi4, default
symmetry c1  #important for SAPT in psi4, default
}

set PROPERTIES_ORIGIN ["COM"]
properties('MP2/aug-cc-pvtz', properties = ['dipole'])
--------------------------------------------------------------------------

    Molecular point group: c1
  Charge       = 0
  Multiplicity = 1
  Basis Set: AUG-CC-PVTZ
    Blend: AUG-CC-PVTZ
  Basis Set: (AUG-CC-PVTZ AUX)
    Blend: AUG-CC-PVTZ-JKFIT

    Orbital Energies [Eh]
    ---------------------

    Doubly Occupied:

       1A    -20.505166     2A    -15.627058     3A    -11.348421
       4A    -11.307569     5A    -11.278942     6A    -11.270380
       7A    -11.243958     8A    -11.240399     9A    -11.237499
      10A    -11.234567    11A     -1.370004    12A     -1.280917
      13A     -1.155843    14A     -1.096598    15A     -1.025095
      16A     -0.902433    17A     -0.869660    18A     -0.830280
      19A     -0.809978    20A     -0.724058    21A     -0.697981
      22A     -0.681961    23A     -0.665516    24A     -0.640199
      25A     -0.605800    26A     -0.595613    27A     -0.576109
      28A     -0.544154    29A     -0.535516    30A     -0.526432
      31A     -0.478690    32A     -0.456776    33A     -0.440264
      34A     -0.419537    35A     -0.399634    36A     -0.309536

  @DF-RHF Final Energy:  -437.61040003216044

   => Energetics <=

    Nuclear Repulsion Energy =            508.1145808259082060
    One-Electron Energy =               -1601.5848750491463761
    Two-Electron Energy =                 655.8598941910777285
    Total Energy =                       -437.6104000321604417
  Basis Set: (AUG-CC-PVTZ AUX)
    Blend: AUG-CC-PVTZ-RI
    Molecular point group: c1

    Geometry (in Angstrom), charge = 0, multiplicity = 1:

       Center              X                  Y                   Z               Mass
    ------------   -----------------  -----------------  -----------------  -----------------
         O            0.109664339941     2.097195662120    -0.202941959279    15.994914619570
         N            0.155035639941    -0.195720537880    -0.267684259279    14.003074004430
         C            1.579313339941    -0.134504337880    -0.498422959279    12.000000000000
         C            2.487149339941     0.374307662120     0.573470040721    12.000000000000
         C            2.511561339941    -1.084087337880     0.201920040721    12.000000000000
         C           -0.509069660059     1.032690662120    -0.082573959279    12.000000000000
         C           -0.473987660059    -1.422375337880    -0.201728959279    12.000000000000
         C           -1.921900660059     0.898122662120     0.202447040721    12.000000000000
         C           -1.816612660059    -1.514912337880     0.033774040721    12.000000000000
         C           -2.549275660059    -0.317088337880     0.246328040721    12.000000000000
         H            1.806647339941     0.154456662120    -1.521443959279     1.007825032230
         H            2.020385339941     0.643921662120     1.513943040721     1.007825032230
         H            3.306822339941     1.016673662120     0.271707040721     1.007825032230
         H            3.352006339941    -1.472493337880    -0.363900959279     1.007825032230
         H            2.083280339941    -1.784789337880     0.910879040721     1.007825032230
         H            0.160787339941    -2.284673337880    -0.377424959279     1.007825032230
         H           -2.462333660059     1.827584662120     0.351725040721     1.007825032230
         H           -2.295741660059    -2.487189337880     0.048109040721     1.007825032230
         H           -3.617109660059    -0.365919337880     0.448258040721     1.007825032230

  Basis Set: AUG-CC-PVTZ
    Blend: AUG-CC-PVTZ
  Basis Set: (AUG-CC-PVTZ AUX)
    Blend: AUG-CC-PVTZ-JKFIT
	 Reference Energy          =    -437.6104000321604417 [Eh]
	 Singles Energy            =      -0.0000000000000000 [Eh]
	 Same-Spin Energy          =      -0.4675511591822407 [Eh]
	 Opposite-Spin Energy      =      -1.4644711102754639 [Eh]
	 Correlation Energy        =      -1.9320222694577047 [Eh]
	 Total Energy              =    -439.5424223016181600 [Eh]

	 ================> DF-SCS-MP2 Energies <==================
	-----------------------------------------------------------
	 SCS Same-Spin Scale       =       0.3333333333333333 [-]
	 SCS Opposite-Spin Scale   =       1.2000000000000000 [-]
	 SCS Same-Spin Energy      =      -0.1558503863940802 [Eh]
	 SCS Opposite-Spin Energy  =      -1.7573653323305567 [Eh]
	 SCS Correlation Energy    =      -1.9132157187246368 [Eh]
	 SCS Total Energy          =    -439.5236157508850852 [Eh]
	-----------------------------------------------------------

  Dipole Moment: [D]
     X:    -0.0193      Y:    -3.8505      Z:     0.1953     Total:     3.8555

*** Psi4 exiting successfully. Buy a developer a beer!
