                               Psi4 1.3.2 release

  ==> Input File <==

--------------------------------------------------------------------------
#psi4
#
memory 32 gb

molecule  {
0 1
  O        0.0787650     2.1311770    -0.2164080
  N        0.1333340    -0.1752640    -0.2334700
  C        1.5484140    -0.1005230    -0.5118890
  C        2.4562500     0.4082890     0.5600040
  C        2.4806620    -1.0501060     0.1884540
  C       -0.4450959     0.8916746    -0.1154048
  C       -0.5048870    -1.3883940    -0.2151950
  C       -1.9528000     0.9321040     0.1889810
  C       -1.8475120    -1.4809310     0.0203080
  C       -2.5801750    -0.2831070     0.2328620
  H        1.7757480     0.1884380    -1.5349100
  H        1.9894860     0.6779030     1.5004770
  H        3.2759230     1.0506550     0.2582410
  H        3.3211070    -1.4385120    -0.3773670
  H        2.0523810    -1.7508080     0.8974130
  H        0.1298880    -2.2506920    -0.3908910
  H       -2.4932330     1.8615660     0.3382590
  H       -2.3266410    -2.4532080     0.0346430
  H       -3.6480090    -0.3319380     0.4347920
units angstrom
no_reorient  #important for SAPT in psi4, default
symmetry c1  #important for SAPT in psi4, default
}

set PROPERTIES_ORIGIN ["COM"]
properties('MP2/aug-cc-pvtz', properties = ['dipole'])
--------------------------------------------------------------------------

    Molecular point group: c1
  Charge       = 0
  Multiplicity = 1
  Basis Set: AUG-CC-PVTZ
    Blend: AUG-CC-PVTZ
  Basis Set: (AUG-CC-PVTZ AUX)
    Blend: AUG-CC-PVTZ-JKFIT

    Orbital Energies [Eh]
    ---------------------

    Doubly Occupied:

       1A    -20.475546     2A    -15.643804     3A    -11.339400
       4A    -11.307833     5A    -11.288528     6A    -11.261976
       7A    -11.256913     8A    -11.253648     9A    -11.248880
      10A    -11.239500    11A     -1.392455    12A     -1.242306
      13A     -1.166147    14A     -1.110991    15A     -1.032113
      16A     -0.910560    17A     -0.906852    18A     -0.838251
      19A     -0.805660    20A     -0.740927    21A     -0.708147
      22A     -0.683318    23A     -0.667656    24A     -0.648247
      25A     -0.617405    26A     -0.588603    27A     -0.579357
      28A     -0.546421    29A     -0.531294    30A     -0.506675
      31A     -0.460715    32A     -0.449636    33A     -0.441953
      34A     -0.411902    35A     -0.385150    36A     -0.313989

  @DF-RHF Final Energy:  -437.55841484888475

   => Energetics <=

    Nuclear Repulsion Energy =            510.3751957296345836
    One-Electron Energy =               -1605.8617079528673912
    Two-Electron Energy =                 657.9280973743479990
    Total Energy =                       -437.5584148488846949
  Basis Set: (AUG-CC-PVTZ AUX)
    Blend: AUG-CC-PVTZ-RI
    Molecular point group: c1

    Geometry (in Angstrom), charge = 0, multiplicity = 1:

       Center              X                  Y                   Z               Mass
    ------------   -----------------  -----------------  -----------------  -----------------
         O            0.100281885250     2.114145276829    -0.206164719930    15.994914619570
         N            0.154850885250    -0.192295723171    -0.223226719930    14.003074004430
         C            1.569930885250    -0.117554723171    -0.501645719930    12.000000000000
         C            2.477766885250     0.391257276829     0.570247280070    12.000000000000
         C            2.502178885250    -1.067137723171     0.198697280070    12.000000000000
         C           -0.423579014750     0.874642876829    -0.105161519930    12.000000000000
         C           -0.483370114750    -1.405425723171    -0.204951719930    12.000000000000
         C           -1.931283114750     0.915072276829     0.199224280070    12.000000000000
         C           -1.825995114750    -1.497962723171     0.030551280070    12.000000000000
         C           -2.558658114750    -0.300138723171     0.243105280070    12.000000000000
         H            1.797264885250     0.171406276829    -1.524666719930     1.007825032230
         H            2.011002885250     0.660871276829     1.510720280070     1.007825032230
         H            3.297439885250     1.033623276829     0.268484280070     1.007825032230
         H            3.342623885250    -1.455543723171    -0.367123719930     1.007825032230
         H            2.073897885250    -1.767839723171     0.907656280070     1.007825032230
         H            0.151404885250    -2.267723723171    -0.380647719930     1.007825032230
         H           -2.471716114750     1.844534276829     0.348502280070     1.007825032230
         H           -2.305124114750    -2.470239723171     0.044886280070     1.007825032230
         H           -3.626492114750    -0.348969723171     0.445035280070     1.007825032230

  Basis Set: AUG-CC-PVTZ
    Blend: AUG-CC-PVTZ
  Basis Set: (AUG-CC-PVTZ AUX)
    Blend: AUG-CC-PVTZ-JKFIT
	 Reference Energy          =    -437.5584148488847518 [Eh]
	 Singles Energy            =      -0.0000000000000000 [Eh]
	 Same-Spin Energy          =      -0.4678015234198243 [Eh]
	 Opposite-Spin Energy      =      -1.4670613091095976 [Eh]
	 Correlation Energy        =      -1.9348628325294219 [Eh]
	 Total Energy              =    -439.4932776814141562 [Eh]

	 ================> DF-SCS-MP2 Energies <==================
	-----------------------------------------------------------
	 SCS Same-Spin Scale       =       0.3333333333333333 [-]
	 SCS Opposite-Spin Scale   =       1.2000000000000000 [-]
	 SCS Same-Spin Energy      =      -0.1559338411399414 [Eh]
	 SCS Opposite-Spin Energy  =      -1.7604735709315171 [Eh]
	 SCS Correlation Energy    =      -1.9164074120714585 [Eh]
	 SCS Total Energy          =    -439.4748222609562163 [Eh]
	-----------------------------------------------------------

  Dipole Moment: [D]
     X:    -0.0484      Y:    -4.8760      Z:     0.2282     Total:     4.8816

*** Psi4 exiting successfully. Buy a developer a beer!
