                               Psi4 1.3.2 release

  ==> Input File <==

--------------------------------------------------------------------------
#psi4
#
memory 32 gb

molecule  {
0 1
  O        0.0787650     2.1311770    -0.2164080
  N        0.1568883    -0.2020240    -0.1391847
  C        1.5484140    -0.1005230    -0.5118890
  C        2.4562500     0.4082890     0.5600040
  C        2.4806620    -1.0501060     0.1884540
  C       -0.5399690     1.0666720    -0.0960400
  C       -0.5048870    -1.3883940    -0.2151950
  C       -1.9528000     0.9321040     0.1889810
  C       -1.8475120    -1.4809310     0.0203080
  C       -2.5801750    -0.2831070     0.2328620
  H        1.7757480     0.1884380    -1.5349100
  H        1.9894860     0.6779030     1.5004770
  H        3.2759230     1.0506550     0.2582410
  H        3.3211070    -1.4385120    -0.3773670
  H        2.0523810    -1.7508080     0.8974130
  H        0.1298880    -2.2506920    -0.3908910
  H       -2.4932330     1.8615660     0.3382590
  H       -2.3266410    -2.4532080     0.0346430
  H       -3.6480090    -0.3319380     0.4347920
units angstrom
no_reorient  #important for SAPT in psi4, default
symmetry c1  #important for SAPT in psi4, default
}

set PROPERTIES_ORIGIN ["COM"]
properties('MP2/aug-cc-pvtz', properties = ['dipole'])
--------------------------------------------------------------------------

    Molecular point group: c1
  Charge       = 0
  Multiplicity = 1
  Basis Set: AUG-CC-PVTZ
    Blend: AUG-CC-PVTZ
  Basis Set: (AUG-CC-PVTZ AUX)
    Blend: AUG-CC-PVTZ-JKFIT

    Orbital Energies [Eh]
    ---------------------

    Doubly Occupied:

       1A    -20.512991     2A    -15.626858     3A    -11.353980
       4A    -11.306039     5A    -11.279106     6A    -11.271253
       7A    -11.241132     8A    -11.237861     9A    -11.236590
      10A    -11.232539    11A     -1.370358    12A     -1.285348
      13A     -1.155984    14A     -1.094461    15A     -1.022755
      16A     -0.899874    17A     -0.865317    18A     -0.826963
      19A     -0.811565    20A     -0.728854    21A     -0.695616
      22A     -0.682870    23A     -0.660141    24A     -0.640759
      25A     -0.607338    26A     -0.589784    27A     -0.579003
      28A     -0.550084    29A     -0.534838    30A     -0.525188
      31A     -0.484562    32A     -0.452524    33A     -0.439113
      34A     -0.422762    35A     -0.400131    36A     -0.308197

  @DF-RHF Final Energy:  -437.60641934359217

   => Energetics <=

    Nuclear Repulsion Energy =            508.1521086422592930
    One-Electron Energy =               -1601.6515804644768650
    Two-Electron Energy =                 655.8930524786254637
    Total Energy =                       -437.6064193435921652
  Basis Set: (AUG-CC-PVTZ AUX)
    Blend: AUG-CC-PVTZ-RI
    Molecular point group: c1

    Geometry (in Angstrom), charge = 0, multiplicity = 1:

       Center              X                  Y                   Z               Mass
    ------------   -----------------  -----------------  -----------------  -----------------
         O            0.106268811212     2.101372145868    -0.217660091708    15.994914619570
         N            0.184392111212    -0.231828854132    -0.140436791708    14.003074004430
         C            1.575917811212    -0.130327854132    -0.513141091708    12.000000000000
         C            2.483753811212     0.378484145868     0.558751908292    12.000000000000
         C            2.508165811212    -1.079910854132     0.187201908292    12.000000000000
         C           -0.512465188788     1.036867145868    -0.097292091708    12.000000000000
         C           -0.477383188788    -1.418198854132    -0.216447091708    12.000000000000
         C           -1.925296188788     0.902299145868     0.187728908292    12.000000000000
         C           -1.820008188788    -1.510735854132     0.019055908292    12.000000000000
         C           -2.552671188788    -0.312911854132     0.231609908292    12.000000000000
         H            1.803251811212     0.158633145868    -1.536162091708     1.007825032230
         H            2.016989811212     0.648098145868     1.499224908292     1.007825032230
         H            3.303426811212     1.020850145868     0.256988908292     1.007825032230
         H            3.348610811212    -1.468316854132    -0.378619091708     1.007825032230
         H            2.079884811212    -1.780612854132     0.896160908292     1.007825032230
         H            0.157391811212    -2.280496854132    -0.392143091708     1.007825032230
         H           -2.465729188788     1.831761145868     0.337006908292     1.007825032230
         H           -2.299137188788    -2.483012854132     0.033390908292     1.007825032230
         H           -3.620505188788    -0.361742854132     0.433539908292     1.007825032230

  Basis Set: AUG-CC-PVTZ
    Blend: AUG-CC-PVTZ
  Basis Set: (AUG-CC-PVTZ AUX)
    Blend: AUG-CC-PVTZ-JKFIT
	 Reference Energy          =    -437.6064193435921652 [Eh]
	 Singles Energy            =      -0.0000000000000000 [Eh]
	 Same-Spin Energy          =      -0.4681643289629611 [Eh]
	 Opposite-Spin Energy      =      -1.4654819105044550 [Eh]
	 Correlation Energy        =      -1.9336462394674161 [Eh]
	 Total Energy              =    -439.5400655830595724 [Eh]

	 ================> DF-SCS-MP2 Energies <==================
	-----------------------------------------------------------
	 SCS Same-Spin Scale       =       0.3333333333333333 [-]
	 SCS Opposite-Spin Scale   =       1.2000000000000000 [-]
	 SCS Same-Spin Energy      =      -0.1560547763209870 [Eh]
	 SCS Opposite-Spin Energy  =      -1.7585782926053459 [Eh]
	 SCS Correlation Energy    =      -1.9146330689263329 [Eh]
	 SCS Total Energy          =    -439.5210524125184861 [Eh]
	-----------------------------------------------------------

  Dipole Moment: [D]
     X:    -0.0609      Y:    -3.6315      Z:     0.0820     Total:     3.6330

*** Psi4 exiting successfully. Buy a developer a beer!
