                               Psi4 1.3.2 release

  ==> Input File <==

--------------------------------------------------------------------------
#psi4
#
memory 32 gb

molecule  {
0 1
  O        0.0787650     2.1311770    -0.2164080
  N        0.1333340    -0.1752640    -0.2334700
  C        1.5484140    -0.1005230    -0.5118890
  C        2.4562500     0.4082890     0.5600040
  C        2.4806620    -1.0501060     0.1884540
  C       -0.6399963     0.8945794    -0.0765808
  C       -0.5048870    -1.3883940    -0.2151950
  C       -1.9528000     0.9321040     0.1889810
  C       -1.8475120    -1.4809310     0.0203080
  C       -2.5801750    -0.2831070     0.2328620
  H        1.7757480     0.1884380    -1.5349100
  H        1.9894860     0.6779030     1.5004770
  H        3.2759230     1.0506550     0.2582410
  H        3.3211070    -1.4385120    -0.3773670
  H        2.0523810    -1.7508080     0.8974130
  H        0.1298880    -2.2506920    -0.3908910
  H       -2.4932330     1.8615660     0.3382590
  H       -2.3266410    -2.4532080     0.0346430
  H       -3.6480090    -0.3319380     0.4347920
units angstrom
no_reorient  #important for SAPT in psi4, default
symmetry c1  #important for SAPT in psi4, default
}

set PROPERTIES_ORIGIN ["COM"]
properties('MP2/aug-cc-pvtz', properties = ['dipole'])
--------------------------------------------------------------------------

    Molecular point group: c1
  Charge       = 0
  Multiplicity = 1
  Basis Set: AUG-CC-PVTZ
    Blend: AUG-CC-PVTZ
  Basis Set: (AUG-CC-PVTZ AUX)
    Blend: AUG-CC-PVTZ-JKFIT

    Orbital Energies [Eh]
    ---------------------

    Doubly Occupied:

       1A    -20.459353     2A    -15.651343     3A    -11.333364
       4A    -11.318840     5A    -11.287204     6A    -11.284671
       7A    -11.256901     8A    -11.247291     9A    -11.240418
      10A    -11.235141    11A     -1.357162    12A     -1.200685
      13A     -1.167444    14A     -1.116824    15A     -1.041532
      16A     -0.920821    17A     -0.891461    18A     -0.836892
      19A     -0.822875    20A     -0.736609    21A     -0.714028
      22A     -0.688221    23A     -0.669973    24A     -0.658909
      25A     -0.605969    26A     -0.594248    27A     -0.572966
      28A     -0.550783    29A     -0.527581    30A     -0.484120
      31A     -0.459978    32A     -0.446933    33A     -0.428593
      34A     -0.413036    35A     -0.373673    36A     -0.313392

  @DF-RHF Final Energy:  -437.55008362665933

   => Energetics <=

    Nuclear Repulsion Energy =            509.0808859773492827
    One-Electron Energy =               -1603.4434744227007741
    Two-Electron Energy =                 656.8125048186922186
    Total Energy =                       -437.5500836266593296
  Basis Set: (AUG-CC-PVTZ AUX)
    Blend: AUG-CC-PVTZ-RI
    Molecular point group: c1

    Geometry (in Angstrom), charge = 0, multiplicity = 1:

       Center              X                  Y                   Z               Mass
    ------------   -----------------  -----------------  -----------------  -----------------
         O            0.117597590174     2.113887203169    -0.209613994164    15.994914619570
         N            0.172166590174    -0.192553796831    -0.226675994164    14.003074004430
         C            1.587246590174    -0.117812796831    -0.505094994164    12.000000000000
         C            2.495082590174     0.390999203169     0.566798005836    12.000000000000
         C            2.519494590174    -1.067395796831     0.195248005836    12.000000000000
         C           -0.601163709826     0.877289603169    -0.069786794164    12.000000000000
         C           -0.466054409826    -1.405683796831    -0.208400994164    12.000000000000
         C           -1.913967409826     0.914814203169     0.195775005836    12.000000000000
         C           -1.808679409826    -1.498220796831     0.027102005836    12.000000000000
         C           -2.541342409826    -0.300396796831     0.239656005836    12.000000000000
         H            1.814580590174     0.171148203169    -1.528115994164     1.007825032230
         H            2.028318590174     0.660613203169     1.507271005836     1.007825032230
         H            3.314755590174     1.033365203169     0.265035005836     1.007825032230
         H            3.359939590174    -1.455801796831    -0.370572994164     1.007825032230
         H            2.091213590174    -1.768097796831     0.904207005836     1.007825032230
         H            0.168720590174    -2.267981796831    -0.384096994164     1.007825032230
         H           -2.454400409826     1.844276203169     0.345053005836     1.007825032230
         H           -2.287808409826    -2.470497796831     0.041437005836     1.007825032230
         H           -3.609176409826    -0.349227796831     0.441586005836     1.007825032230

  Basis Set: AUG-CC-PVTZ
    Blend: AUG-CC-PVTZ
  Basis Set: (AUG-CC-PVTZ AUX)
    Blend: AUG-CC-PVTZ-JKFIT
	 Reference Energy          =    -437.5500836266593296 [Eh]
	 Singles Energy            =      -0.0000000000000000 [Eh]
	 Same-Spin Energy          =      -0.4716800739732371 [Eh]
	 Opposite-Spin Energy      =      -1.4711029215911171 [Eh]
	 Correlation Energy        =      -1.9427829955643543 [Eh]
	 Total Energy              =    -439.4928666222236870 [Eh]

	 ================> DF-SCS-MP2 Energies <==================
	-----------------------------------------------------------
	 SCS Same-Spin Scale       =       0.3333333333333333 [-]
	 SCS Opposite-Spin Scale   =       1.2000000000000000 [-]
	 SCS Same-Spin Energy      =      -0.1572266913244124 [Eh]
	 SCS Opposite-Spin Energy  =      -1.7653235059093404 [Eh]
	 SCS Correlation Energy    =      -1.9225501972337526 [Eh]
	 SCS Total Energy          =    -439.4726338238930907 [Eh]
	-----------------------------------------------------------

  Dipole Moment: [D]
     X:    -0.5618      Y:    -5.2592      Z:     0.3319     Total:     5.2995

*** Psi4 exiting successfully. Buy a developer a beer!
