                               Psi4 1.3.2 release

  ==> Input File <==

--------------------------------------------------------------------------
#psi4
#
memory 32 gb

molecule  {
0 1
  O        0.0787650     2.1311770    -0.2164080
  N        0.1109558    -0.1344825    -0.3772958
  C        1.5484140    -0.1005230    -0.5118890
  C        2.4562500     0.4082890     0.5600040
  C        2.4806620    -1.0501060     0.1884540
  C       -0.5399690     1.0666720    -0.0960400
  C       -0.5048870    -1.3883940    -0.2151950
  C       -1.9528000     0.9321040     0.1889810
  C       -1.8475120    -1.4809310     0.0203080
  C       -2.5801750    -0.2831070     0.2328620
  H        1.7757480     0.1884380    -1.5349100
  H        1.9894860     0.6779030     1.5004770
  H        3.2759230     1.0506550     0.2582410
  H        3.3211070    -1.4385120    -0.3773670
  H        2.0523810    -1.7508080     0.8974130
  H        0.1298880    -2.2506920    -0.3908910
  H       -2.4932330     1.8615660     0.3382590
  H       -2.3266410    -2.4532080     0.0346430
  H       -3.6480090    -0.3319380     0.4347920
units angstrom
no_reorient  #important for SAPT in psi4, default
symmetry c1  #important for SAPT in psi4, default
}

set PROPERTIES_ORIGIN ["COM"]
properties('MP2/aug-cc-pvtz', properties = ['dipole'])
--------------------------------------------------------------------------

    Molecular point group: c1
  Charge       = 0
  Multiplicity = 1
  Basis Set: AUG-CC-PVTZ
    Blend: AUG-CC-PVTZ
  Basis Set: (AUG-CC-PVTZ AUX)
    Blend: AUG-CC-PVTZ-JKFIT

    Orbital Energies [Eh]
    ---------------------

    Doubly Occupied:

       1A    -20.502969     2A    -15.625550     3A    -11.346344
       4A    -11.308419     5A    -11.277447     6A    -11.270995
       7A    -11.244831     8A    -11.243000     9A    -11.239171
      10A    -11.234984    11A     -1.369830    12A     -1.275050
      13A     -1.154632    14A     -1.098182    15A     -1.025138
      16A     -0.903547    17A     -0.868914    18A     -0.831037
      19A     -0.807322    20A     -0.719791    21A     -0.697429
      22A     -0.681671    23A     -0.668405    24A     -0.640039
      25A     -0.605520    26A     -0.596922    27A     -0.573778
      28A     -0.541805    29A     -0.533804    30A     -0.526232
      31A     -0.475061    32A     -0.459136    33A     -0.439441
      34A     -0.418222    35A     -0.399437    36A     -0.311637

  @DF-RHF Final Energy:  -437.60459391350804

   => Energetics <=

    Nuclear Repulsion Energy =            507.6868652141071721
    One-Electron Energy =               -1600.7515297175959859
    Two-Electron Energy =                 655.4600705899806599
    Total Energy =                       -437.6045939135080971
  Basis Set: (AUG-CC-PVTZ AUX)
    Blend: AUG-CC-PVTZ-RI
    Molecular point group: c1

    Geometry (in Angstrom), charge = 0, multiplicity = 1:

       Center              X                  Y                   Z               Mass
    ------------   -----------------  -----------------  -----------------  -----------------
         O            0.111030814245     2.094369852768    -0.192974176934    15.994914619570
         N            0.143221614245    -0.171289647232    -0.353861976934    14.003074004430
         C            1.580679814245    -0.137330147232    -0.488455176934    12.000000000000
         C            2.488515814245     0.371481852768     0.583437823066    12.000000000000
         C            2.512927814245    -1.086913147232     0.211887823066    12.000000000000
         C           -0.507703185755     1.029864852768    -0.072606176934    12.000000000000
         C           -0.472621185755    -1.425201147232    -0.191761176934    12.000000000000
         C           -1.920534185755     0.895296852768     0.212414823066    12.000000000000
         C           -1.815246185755    -1.517738147232     0.043741823066    12.000000000000
         C           -2.547909185755    -0.319914147232     0.256295823066    12.000000000000
         H            1.808013814245     0.151630852768    -1.511476176934     1.007825032230
         H            2.021751814245     0.641095852768     1.523910823066     1.007825032230
         H            3.308188814245     1.013847852768     0.281674823066     1.007825032230
         H            3.353372814245    -1.475319147232    -0.353933176934     1.007825032230
         H            2.084646814245    -1.787615147232     0.920846823066     1.007825032230
         H            0.162153814245    -2.287499147232    -0.367457176934     1.007825032230
         H           -2.460967185755     1.824758852768     0.361692823066     1.007825032230
         H           -2.294375185755    -2.490015147232     0.058076823066     1.007825032230
         H           -3.615743185755    -0.368745147232     0.458225823066     1.007825032230

  Basis Set: AUG-CC-PVTZ
    Blend: AUG-CC-PVTZ
  Basis Set: (AUG-CC-PVTZ AUX)
    Blend: AUG-CC-PVTZ-JKFIT
	 Reference Energy          =    -437.6045939135080403 [Eh]
	 Singles Energy            =      -0.0000000000000000 [Eh]
	 Same-Spin Energy          =      -0.4672042594693681 [Eh]
	 Opposite-Spin Energy      =      -1.4647122475036412 [Eh]
	 Correlation Energy        =      -1.9319165069730091 [Eh]
	 Total Energy              =    -439.5365104204810223 [Eh]

	 ================> DF-SCS-MP2 Energies <==================
	-----------------------------------------------------------
	 SCS Same-Spin Scale       =       0.3333333333333333 [-]
	 SCS Opposite-Spin Scale   =       1.2000000000000000 [-]
	 SCS Same-Spin Energy      =      -0.1557347531564560 [Eh]
	 SCS Opposite-Spin Energy  =      -1.7576546970043694 [Eh]
	 SCS Correlation Energy    =      -1.9133894501608255 [Eh]
	 SCS Total Energy          =    -439.5179833636688613 [Eh]
	-----------------------------------------------------------

  Dipole Moment: [D]
     X:    -0.0853      Y:    -3.9140      Z:     0.2785     Total:     3.9248

*** Psi4 exiting successfully. Buy a developer a beer!
