                               Psi4 1.3.2 release

  ==> Input File <==

--------------------------------------------------------------------------
#psi4
#
memory 32 gb

molecule  {
0 1
  O        0.0787650     2.1311770    -0.2164080
  N        0.1333340    -0.1752640    -0.2334700
  C        1.5416014    -0.0005004    -0.5014165
  C        2.4562500     0.4082890     0.5600040
  C        2.4806620    -1.0501060     0.1884540
  C       -0.5399690     1.0666720    -0.0960400
  C       -0.5048870    -1.3883940    -0.2151950
  C       -1.9528000     0.9321040     0.1889810
  C       -1.8475120    -1.4809310     0.0203080
  C       -2.5801750    -0.2831070     0.2328620
  H        1.7757480     0.1884380    -1.5349100
  H        1.9894860     0.6779030     1.5004770
  H        3.2759230     1.0506550     0.2582410
  H        3.3211070    -1.4385120    -0.3773670
  H        2.0523810    -1.7508080     0.8974130
  H        0.1298880    -2.2506920    -0.3908910
  H       -2.4932330     1.8615660     0.3382590
  H       -2.3266410    -2.4532080     0.0346430
  H       -3.6480090    -0.3319380     0.4347920
units angstrom
no_reorient  #important for SAPT in psi4, default
symmetry c1  #important for SAPT in psi4, default
}

set PROPERTIES_ORIGIN ["COM"]
properties('MP2/aug-cc-pvtz', properties = ['dipole'])
--------------------------------------------------------------------------

    Molecular point group: c1
  Charge       = 0
  Multiplicity = 1
  Basis Set: AUG-CC-PVTZ
    Blend: AUG-CC-PVTZ
  Basis Set: (AUG-CC-PVTZ AUX)
    Blend: AUG-CC-PVTZ-JKFIT

    Orbital Energies [Eh]
    ---------------------

    Doubly Occupied:

       1A    -20.508026     2A    -15.627599     3A    -11.349170
       4A    -11.308505     5A    -11.281304     6A    -11.270627
       7A    -11.240426     8A    -11.240146     9A    -11.236729
      10A    -11.236357    11A     -1.371844    12A     -1.282133
      13A     -1.153267    14A     -1.094944    15A     -1.025230
      16A     -0.904029    17A     -0.866140    18A     -0.829752
      19A     -0.811943    20A     -0.727369    21A     -0.696757
      22A     -0.682744    23A     -0.661609    24A     -0.639295
      25A     -0.606774    26A     -0.594040    27A     -0.578569
      28A     -0.548765    29A     -0.536043    30A     -0.525239
      31A     -0.482527    32A     -0.467177    33A     -0.421384
      34A     -0.417782    35A     -0.403019    36A     -0.309597

  @DF-RHF Final Energy:  -437.60444189226223

   => Energetics <=

    Nuclear Repulsion Energy =            508.3131903272782779
    One-Electron Energy =               -1601.9615466106497479
    Two-Electron Energy =                 656.0439143911091833
    Total Energy =                       -437.6044418922622299
  Basis Set: (AUG-CC-PVTZ AUX)
    Blend: AUG-CC-PVTZ-RI
    Molecular point group: c1

    Geometry (in Angstrom), charge = 0, multiplicity = 1:

       Center              X                  Y                   Z               Mass
    ------------   -----------------  -----------------  -----------------  -----------------
         O            0.109316035904     2.089711436938    -0.208815580998    15.994914619570
         N            0.163885035904    -0.216729563062    -0.225877580998    14.003074004430
         C            1.572152435904    -0.041965963062    -0.493824080998    12.000000000000
         C            2.486801035904     0.366823436938     0.567596419002    12.000000000000
         C            2.511213035904    -1.091571563062     0.196046419002    12.000000000000
         C           -0.509417964096     1.025206436938    -0.088447580998    12.000000000000
         C           -0.474335964096    -1.429859563062    -0.207602580998    12.000000000000
         C           -1.922248964096     0.890638436938     0.196573419002    12.000000000000
         C           -1.816960964096    -1.522396563062     0.027900419002    12.000000000000
         C           -2.549623964096    -0.324572563062     0.240454419002    12.000000000000
         H            1.806299035904     0.146972436938    -1.527317580998     1.007825032230
         H            2.020037035904     0.636437436938     1.508069419002     1.007825032230
         H            3.306474035904     1.009189436938     0.265833419002     1.007825032230
         H            3.351658035904    -1.479977563062    -0.369774580998     1.007825032230
         H            2.082932035904    -1.792273563062     0.905005419002     1.007825032230
         H            0.160439035904    -2.292157563062    -0.383298580998     1.007825032230
         H           -2.462681964096     1.820100436938     0.345851419002     1.007825032230
         H           -2.296089964096    -2.494673563062     0.042235419002     1.007825032230
         H           -3.617457964096    -0.373403563062     0.442384419002     1.007825032230

  Basis Set: AUG-CC-PVTZ
    Blend: AUG-CC-PVTZ
  Basis Set: (AUG-CC-PVTZ AUX)
    Blend: AUG-CC-PVTZ-JKFIT
	 Reference Energy          =    -437.6044418922622299 [Eh]
	 Singles Energy            =      -0.0000000000000000 [Eh]
	 Same-Spin Energy          =      -0.4680650932500306 [Eh]
	 Opposite-Spin Energy      =      -1.4654680262279558 [Eh]
	 Correlation Energy        =      -1.9335331194779863 [Eh]
	 Total Energy              =    -439.5379750117402295 [Eh]

	 ================> DF-SCS-MP2 Energies <==================
	-----------------------------------------------------------
	 SCS Same-Spin Scale       =       0.3333333333333333 [-]
	 SCS Opposite-Spin Scale   =       1.2000000000000000 [-]
	 SCS Same-Spin Energy      =      -0.1560216977500102 [Eh]
	 SCS Opposite-Spin Energy  =      -1.7585616314735468 [Eh]
	 SCS Correlation Energy    =      -1.9145833292235570 [Eh]
	 SCS Total Energy          =    -439.5190252214857765 [Eh]
	-----------------------------------------------------------

  Dipole Moment: [D]
     X:    -0.0650      Y:    -3.7068      Z:     0.1638     Total:     3.7110

*** Psi4 exiting successfully. Buy a developer a beer!
