                               Psi4 1.4a3.dev225

  ==> Input File <==

--------------------------------------------------------------------------
#psi4
#
memory 32 gb

molecule  {
0 1
  O        0.0787650     2.1311770    -0.2164080
  N        0.1333340    -0.1752640    -0.2334700
  C        1.5484140    -0.1005230    -0.5118890
  C        2.4562500     0.4082890     0.5600040
  C        2.4806620    -1.0501060     0.1884540
  C       -0.5649758     1.0236488    -0.0911752
  C       -0.5048870    -1.3883940    -0.2151950
  C       -1.9528000     0.9321040     0.1889810
  C       -1.8475120    -1.4809310     0.0203080
  C       -2.5801750    -0.2831070     0.2328620
  H        1.7757480     0.1884380    -1.5349100
  H        1.9894860     0.6779030     1.5004770
  H        3.2759230     1.0506550     0.2582410
  H        3.3211070    -1.4385120    -0.3773670
  H        2.0523810    -1.7508080     0.8974130
  H        0.1298880    -2.2506920    -0.3908910
  H       -2.4932330     1.8615660     0.3382590
  H       -2.3266410    -2.4532080     0.0346430
  H       -3.6480090    -0.3319380     0.4347920
units angstrom
no_reorient  #important for SAPT in psi4, default
symmetry c1  #important for SAPT in psi4, default
}

set PROPERTIES_ORIGIN ["COM"]
properties('MP2/aug-cc-pvtz', properties = ['dipole'])
--------------------------------------------------------------------------

    Molecular point group: c1
  Charge       = 0
  Multiplicity = 1
  Basis Set: AUG-CC-PVTZ
    Blend: AUG-CC-PVTZ
  Basis Set: (AUG-CC-PVTZ AUX)
    Blend: AUG-CC-PVTZ-JKFIT

    Orbital Energies [Eh]
    ---------------------

    Doubly Occupied:

       1A    -20.494553     2A    -15.633950     3A    -11.347038
       4A    -11.310284     5A    -11.281383     6A    -11.274108
       7A    -11.244342     8A    -11.244070     9A    -11.238130
      10A    -11.234381    11A     -1.352931    12A     -1.270490
      13A     -1.159282    14A     -1.101057    15A     -1.030165
      16A     -0.906985    17A     -0.874487    18A     -0.831366
      19A     -0.814292    20A     -0.728648    21A     -0.700712
      22A     -0.683398    23A     -0.664754    24A     -0.644701
      25A     -0.599098    26A     -0.593253    27A     -0.574679
      28A     -0.540299    29A     -0.537441    30A     -0.526360
      31A     -0.465049    32A     -0.456354    33A     -0.441778
      34A     -0.415116    35A     -0.400160    36A     -0.311181

  @DF-RHF Final Energy:  -437.60412177391521

   => Energetics <=

    Nuclear Repulsion Energy =            508.3463718435764918
    One-Electron Energy =               -1602.0484339156382703
    Two-Electron Energy =                 656.0979402981465682
    Total Energy =                       -437.6041217739152671
  Basis Set: (AUG-CC-PVTZ AUX)
    Blend: AUG-CC-PVTZ-RI
    Molecular point group: c1

    Geometry (in Angstrom), charge = 0, multiplicity = 1:

       Center              X                  Y                   Z               Mass
    ------------   -----------------  -----------------  -----------------  -----------------
         O            0.110932478962     2.102420178754    -0.208317371253    15.994914619570
         N            0.165501478962    -0.204020821246    -0.225379371253    14.003074004430
         C            1.580581478962    -0.129279821246    -0.503798371253    12.000000000000
         C            2.488417478962     0.379532178754     0.568094628747    12.000000000000
         C            2.512829478962    -1.078862821246     0.196544628747    12.000000000000
         C           -0.532808321038     0.994891978754    -0.083084571253    12.000000000000
         C           -0.472719521038    -1.417150821246    -0.207104371253    12.000000000000
         C           -1.920632521038     0.903347178754     0.197071628747    12.000000000000
         C           -1.815344521038    -1.509687821246     0.028398628747    12.000000000000
         C           -2.548007521038    -0.311863821246     0.240952628747    12.000000000000
         H            1.807915478962     0.159681178754    -1.526819371253     1.007825032230
         H            2.021653478962     0.649146178754     1.508567628747     1.007825032230
         H            3.308090478962     1.021898178754     0.266331628747     1.007825032230
         H            3.353274478962    -1.467268821246    -0.369276371253     1.007825032230
         H            2.084548478962    -1.779564821246     0.905503628747     1.007825032230
         H            0.162055478962    -2.279448821246    -0.382800371253     1.007825032230
         H           -2.461065521038     1.832809178754     0.346349628747     1.007825032230
         H           -2.294473521038    -2.481964821246     0.042733628747     1.007825032230
         H           -3.615841521038    -0.360694821246     0.442882628747     1.007825032230

  Basis Set: AUG-CC-PVTZ
    Blend: AUG-CC-PVTZ
  Basis Set: (AUG-CC-PVTZ AUX)
    Blend: AUG-CC-PVTZ-JKFIT
	 Reference Energy          =    -437.6041217739152103 [Eh]
	 Singles Energy            =      -0.0000000000000000 [Eh]
	 Same-Spin Energy          =      -0.4687961203030743 [Eh]
	 Opposite-Spin Energy      =      -1.4663016879368376 [Eh]
	 Correlation Energy        =      -1.9350978082399117 [Eh]
	 Total Energy              =    -439.5392195821551127 [Eh]

	 ================> DF-SCS-MP2 Energies <==================
	-----------------------------------------------------------
	 SCS Same-Spin Scale       =       0.3333333333333333 [-]
	 SCS Opposite-Spin Scale   =       1.2000000000000000 [-]
	 SCS Same-Spin Energy      =      -0.1562653734343581 [Eh]
	 SCS Opposite-Spin Energy  =      -1.7595620255242050 [Eh]
	 SCS Correlation Energy    =      -1.9158273989585630 [Eh]
	 SCS Total Energy          =    -439.5199491728737939 [Eh]
	-----------------------------------------------------------

  Dipole Moment: [D]
     X:    -0.1617      Y:    -4.1866      Z:     0.2029     Total:     4.1946

*** Psi4 exiting successfully. Buy a developer a beer!
