                               Psi4 1.4a3.dev225

  ==> Input File <==

--------------------------------------------------------------------------
#psi4
#
memory 32 gb

molecule  {
0 1
  O        0.0787650     2.1311770    -0.2164080
  N        0.1333340    -0.1752640    -0.2334700
  C        1.4994203    -0.1031107    -0.5022494
  C        2.4562500     0.4082890     0.5600040
  C        2.4806620    -1.0501060     0.1884540
  C       -0.5399690     1.0666720    -0.0960400
  C       -0.5048870    -1.3883940    -0.2151950
  C       -1.9528000     0.9321040     0.1889810
  C       -1.8475120    -1.4809310     0.0203080
  C       -2.5801750    -0.2831070     0.2328620
  H        1.7757480     0.1884380    -1.5349100
  H        1.9894860     0.6779030     1.5004770
  H        3.2759230     1.0506550     0.2582410
  H        3.3211070    -1.4385120    -0.3773670
  H        2.0523810    -1.7508080     0.8974130
  H        0.1298880    -2.2506920    -0.3908910
  H       -2.4932330     1.8615660     0.3382590
  H       -2.3266410    -2.4532080     0.0346430
  H       -3.6480090    -0.3319380     0.4347920
units angstrom
no_reorient  #important for SAPT in psi4, default
symmetry c1  #important for SAPT in psi4, default
}

set PROPERTIES_ORIGIN ["COM"]
properties('MP2/aug-cc-pvtz', properties = ['dipole'])
--------------------------------------------------------------------------

    Molecular point group: c1
  Charge       = 0
  Multiplicity = 1
  Basis Set: AUG-CC-PVTZ
    Blend: AUG-CC-PVTZ
  Basis Set: (AUG-CC-PVTZ AUX)
    Blend: AUG-CC-PVTZ-JKFIT

    Orbital Energies [Eh]
    ---------------------

    Doubly Occupied:

       1A    -20.509238     2A    -15.628222     3A    -11.351486
       4A    -11.308117     5A    -11.277757     6A    -11.271694
       7A    -11.243555     8A    -11.240885     9A    -11.238385
      10A    -11.234218    11A     -1.374358    12A     -1.290677
      13A     -1.149885    14A     -1.095679    15A     -1.026632
      16A     -0.908506    17A     -0.872147    18A     -0.826985
      19A     -0.810175    20A     -0.725620    21A     -0.699681
      22A     -0.682889    23A     -0.664869    24A     -0.640601
      25A     -0.607785    26A     -0.596996    27A     -0.574506
      28A     -0.548838    29A     -0.537793    30A     -0.525357
      31A     -0.482527    32A     -0.456016    33A     -0.430315
      34A     -0.422058    35A     -0.396575    36A     -0.310152

  @DF-RHF Final Energy:  -437.60723209819179

   => Energetics <=

    Nuclear Repulsion Energy =            508.8339111445484377
    One-Electron Energy =               -1602.9599281408361549
    Two-Electron Energy =                 656.5187848980958734
    Total Energy =                       -437.6072320981918438
  Basis Set: (AUG-CC-PVTZ AUX)
    Blend: AUG-CC-PVTZ-RI
    Molecular point group: c1

    Geometry (in Angstrom), charge = 0, multiplicity = 1:

       Center              X                  Y                   Z               Mass
    ------------   -----------------  -----------------  -----------------  -----------------
         O            0.113063567880     2.098827732631    -0.208741582942    15.994914619570
         N            0.167632567880    -0.207613267369    -0.225803582942    14.003074004430
         C            1.533718867880    -0.135459967369    -0.494582982942    12.000000000000
         C            2.490548567880     0.375939732631     0.567670417058    12.000000000000
         C            2.514960567880    -1.082455267369     0.196120417058    12.000000000000
         C           -0.505670432120     1.034322732631    -0.088373582942    12.000000000000
         C           -0.470588432120    -1.420743267369    -0.207528582942    12.000000000000
         C           -1.918501432120     0.899754732631     0.196647417058    12.000000000000
         C           -1.813213432120    -1.513280267369     0.027974417058    12.000000000000
         C           -2.545876432120    -0.315456267369     0.240528417058    12.000000000000
         H            1.810046567880     0.156088732631    -1.527243582942     1.007825032230
         H            2.023784567880     0.645553732631     1.508143417058     1.007825032230
         H            3.310221567880     1.018305732631     0.265907417058     1.007825032230
         H            3.355405567880    -1.470861267369    -0.369700582942     1.007825032230
         H            2.086679567880    -1.783157267369     0.905079417058     1.007825032230
         H            0.164186567880    -2.283041267369    -0.383224582942     1.007825032230
         H           -2.458934432120     1.829216732631     0.345925417058     1.007825032230
         H           -2.292342432120    -2.485557267369     0.042309417058     1.007825032230
         H           -3.613710432120    -0.364287267369     0.442458417058     1.007825032230

  Basis Set: AUG-CC-PVTZ
    Blend: AUG-CC-PVTZ
  Basis Set: (AUG-CC-PVTZ AUX)
    Blend: AUG-CC-PVTZ-JKFIT
	 Reference Energy          =    -437.6072320981917869 [Eh]
	 Singles Energy            =      -0.0000000000000000 [Eh]
	 Same-Spin Energy          =      -0.4681366572705224 [Eh]
	 Opposite-Spin Energy      =      -1.4653912032679628 [Eh]
	 Correlation Energy        =      -1.9335278605384851 [Eh]
	 Total Energy              =    -439.5407599587302911 [Eh]

	 ================> DF-SCS-MP2 Energies <==================
	-----------------------------------------------------------
	 SCS Same-Spin Scale       =       0.3333333333333333 [-]
	 SCS Opposite-Spin Scale   =       1.2000000000000000 [-]
	 SCS Same-Spin Energy      =      -0.1560455524235075 [Eh]
	 SCS Opposite-Spin Energy  =      -1.7584694439215554 [Eh]
	 SCS Correlation Energy    =      -1.9145149963450627 [Eh]
	 SCS Total Energy          =    -439.5217470945368632 [Eh]
	-----------------------------------------------------------

  Dipole Moment: [D]
     X:    -0.1567      Y:    -3.7741      Z:     0.1859     Total:     3.7819

*** Psi4 exiting successfully. Buy a developer a beer!
