                               Psi4 1.3.2 release

  ==> Input File <==

--------------------------------------------------------------------------
#psi4
#
memory 32 gb

molecule  {
0 1
  O        0.0787650     2.1311770    -0.2164080
  N        0.1333340    -0.1752640    -0.2334700
  C        1.5500742    -0.1509006    -0.5124115
  C        2.4562500     0.4082890     0.5600040
  C        2.4806620    -1.0501060     0.1884540
  C       -0.5399690     1.0666720    -0.0960400
  C       -0.5048870    -1.3883940    -0.2151950
  C       -1.9528000     0.9321040     0.1889810
  C       -1.8475120    -1.4809310     0.0203080
  C       -2.5801750    -0.2831070     0.2328620
  H        1.7757480     0.1884380    -1.5349100
  H        1.9894860     0.6779030     1.5004770
  H        3.2759230     1.0506550     0.2582410
  H        3.3211070    -1.4385120    -0.3773670
  H        2.0523810    -1.7508080     0.8974130
  H        0.1298880    -2.2506920    -0.3908910
  H       -2.4932330     1.8615660     0.3382590
  H       -2.3266410    -2.4532080     0.0346430
  H       -3.6480090    -0.3319380     0.4347920
units angstrom
no_reorient  #important for SAPT in psi4, default
symmetry c1  #important for SAPT in psi4, default
}

set PROPERTIES_ORIGIN ["COM"]
properties('MP2/aug-cc-pvtz', properties = ['dipole'])
--------------------------------------------------------------------------

    Molecular point group: c1
  Charge       = 0
  Multiplicity = 1
  Basis Set: AUG-CC-PVTZ
    Blend: AUG-CC-PVTZ
  Basis Set: (AUG-CC-PVTZ AUX)
    Blend: AUG-CC-PVTZ-JKFIT

    Orbital Energies [Eh]
    ---------------------

    Doubly Occupied:

       1A    -20.507078     2A    -15.627609     3A    -11.350682
       4A    -11.306538     5A    -11.279738     6A    -11.270459
       7A    -11.244365     8A    -11.239076     9A    -11.237247
      10A    -11.232997    11A     -1.369610    12A     -1.283912
      13A     -1.158415    14A     -1.096620    15A     -1.024508
      16A     -0.900692    17A     -0.870614    18A     -0.829904
      19A     -0.809577    20A     -0.724870    21A     -0.698216
      22A     -0.682131    23A     -0.665107    24A     -0.640903
      25A     -0.606157    26A     -0.594424    27A     -0.575671
      28A     -0.544322    29A     -0.534994    30A     -0.526671
      31A     -0.480264    32A     -0.459644    33A     -0.442898
      34A     -0.420565    35A     -0.395427    36A     -0.308577

  @DF-RHF Final Energy:  -437.60897118641765

   => Energetics <=

    Nuclear Repulsion Energy =            508.1872727036116544
    One-Electron Energy =               -1601.7115227102754034
    Two-Electron Energy =                 655.9152788202461579
    Total Energy =                       -437.6089711864176479
  Basis Set: (AUG-CC-PVTZ AUX)
    Blend: AUG-CC-PVTZ-RI
    Molecular point group: c1

    Geometry (in Angstrom), charge = 0, multiplicity = 1:

       Center              X                  Y                   Z               Mass
    ------------   -----------------  -----------------  -----------------  -----------------
         O            0.108563279601     2.103073572079    -0.207838742697    15.994914619570
         N            0.163132279601    -0.203367427921    -0.224900742697    14.003074004430
         C            1.579872479601    -0.179004027921    -0.503842242697    12.000000000000
         C            2.486048279601     0.380185572079     0.568573257303    12.000000000000
         C            2.510460279601    -1.078209427921     0.197023257303    12.000000000000
         C           -0.510170720399     1.038568572079    -0.087470742697    12.000000000000
         C           -0.475088720399    -1.416497427921    -0.206625742697    12.000000000000
         C           -1.923001720399     0.904000572079     0.197550257303    12.000000000000
         C           -1.817713720399    -1.509034427921     0.028877257303    12.000000000000
         C           -2.550376720399    -0.311210427921     0.241431257303    12.000000000000
         H            1.805546279601     0.160334572079    -1.526340742697     1.007825032230
         H            2.019284279601     0.649799572079     1.509046257303     1.007825032230
         H            3.305721279601     1.022551572079     0.266810257303     1.007825032230
         H            3.350905279601    -1.466615427921    -0.368797742697     1.007825032230
         H            2.082179279601    -1.778911427921     0.905982257303     1.007825032230
         H            0.159686279601    -2.278795427921    -0.382321742697     1.007825032230
         H           -2.463434720399     1.833462572079     0.346828257303     1.007825032230
         H           -2.296842720399    -2.481311427921     0.043212257303     1.007825032230
         H           -3.618210720399    -0.360041427921     0.443361257303     1.007825032230

  Basis Set: AUG-CC-PVTZ
    Blend: AUG-CC-PVTZ
  Basis Set: (AUG-CC-PVTZ AUX)
    Blend: AUG-CC-PVTZ-JKFIT
	 Reference Energy          =    -437.6089711864176479 [Eh]
	 Singles Energy            =      -0.0000000000000000 [Eh]
	 Same-Spin Energy          =      -0.4678963125087131 [Eh]
	 Opposite-Spin Energy      =      -1.4647922311671788 [Eh]
	 Correlation Energy        =      -1.9326885436758920 [Eh]
	 Total Energy              =    -439.5416597300935564 [Eh]

	 ================> DF-SCS-MP2 Energies <==================
	-----------------------------------------------------------
	 SCS Same-Spin Scale       =       0.3333333333333333 [-]
	 SCS Opposite-Spin Scale   =       1.2000000000000000 [-]
	 SCS Same-Spin Energy      =      -0.1559654375029044 [Eh]
	 SCS Opposite-Spin Energy  =      -1.7577506774006146 [Eh]
	 SCS Correlation Energy    =      -1.9137161149035191 [Eh]
	 SCS Total Energy          =    -439.5226873013211843 [Eh]
	-----------------------------------------------------------

  Dipole Moment: [D]
     X:    -0.0018      Y:    -3.8317      Z:     0.1548     Total:     3.8349

*** Psi4 exiting successfully. Buy a developer a beer!
