                               Psi4 1.3.2 release

  ==> Input File <==

--------------------------------------------------------------------------
#psi4
#
memory 32 gb

molecule  {
0 1
  O        0.0787650     2.1311770    -0.2164080
  N        0.1333340    -0.1752640    -0.2334700
  C        1.5500084    -0.2013078    -0.5125941
  C        2.4562500     0.4082890     0.5600040
  C        2.4806620    -1.0501060     0.1884540
  C       -0.5399690     1.0666720    -0.0960400
  C       -0.5048870    -1.3883940    -0.2151950
  C       -1.9528000     0.9321040     0.1889810
  C       -1.8475120    -1.4809310     0.0203080
  C       -2.5801750    -0.2831070     0.2328620
  H        1.7757480     0.1884380    -1.5349100
  H        1.9894860     0.6779030     1.5004770
  H        3.2759230     1.0506550     0.2582410
  H        3.3211070    -1.4385120    -0.3773670
  H        2.0523810    -1.7508080     0.8974130
  H        0.1298880    -2.2506920    -0.3908910
  H       -2.4932330     1.8615660     0.3382590
  H       -2.3266410    -2.4532080     0.0346430
  H       -3.6480090    -0.3319380     0.4347920
units angstrom
no_reorient  #important for SAPT in psi4, default
symmetry c1  #important for SAPT in psi4, default
}

set PROPERTIES_ORIGIN ["COM"]
properties('MP2/aug-cc-pvtz', properties = ['dipole'])
--------------------------------------------------------------------------

    Molecular point group: c1
  Charge       = 0
  Multiplicity = 1
  Basis Set: AUG-CC-PVTZ
    Blend: AUG-CC-PVTZ
  Basis Set: (AUG-CC-PVTZ AUX)
    Blend: AUG-CC-PVTZ-JKFIT

    Orbital Energies [Eh]
    ---------------------

    Doubly Occupied:

       1A    -20.507060     2A    -15.628132     3A    -11.351510
       4A    -11.306101     5A    -11.281082     6A    -11.270565
       7A    -11.245471     8A    -11.238903     9A    -11.237629
      10A    -11.232102    11A     -1.369328    12A     -1.284979
      13A     -1.160742    14A     -1.097427    15A     -1.024521
      16A     -0.899836    17A     -0.872480    18A     -0.830579
      19A     -0.808146    20A     -0.723835    21A     -0.698825
      22A     -0.682257    23A     -0.666204    24A     -0.641414
      25A     -0.606222    26A     -0.594817    27A     -0.573982
      28A     -0.542576    29A     -0.534456    30A     -0.527060
      31A     -0.480234    32A     -0.470435    33A     -0.439209
      34A     -0.420673    35A     -0.389653    36A     -0.308393

  @DF-RHF Final Energy:  -437.60348973727361

   => Energetics <=

    Nuclear Repulsion Energy =            508.1595585698760829
    One-Electron Energy =               -1601.6324191588826125
    Two-Electron Energy =                 655.8693708517330379
    Total Energy =                       -437.6034897372735486
  Basis Set: (AUG-CC-PVTZ AUX)
    Blend: AUG-CC-PVTZ-RI
    Molecular point group: c1

    Geometry (in Angstrom), charge = 0, multiplicity = 1:

       Center              X                  Y                   Z               Mass
    ------------   -----------------  -----------------  -----------------  -----------------
         O            0.108569125527     2.107551942576    -0.207822519807    15.994914619570
         N            0.163138125527    -0.198889057424    -0.224884519807    14.003074004430
         C            1.579812525527    -0.224932857424    -0.504008619807    12.000000000000
         C            2.486054125527     0.384663942576     0.568589480193    12.000000000000
         C            2.510466125527    -1.073731057424     0.197039480193    12.000000000000
         C           -0.510164874473     1.043046942576    -0.087454519807    12.000000000000
         C           -0.475082874473    -1.412019057424    -0.206609519807    12.000000000000
         C           -1.922995874473     0.908478942576     0.197566480193    12.000000000000
         C           -1.817707874473    -1.504556057424     0.028893480193    12.000000000000
         C           -2.550370874473    -0.306732057424     0.241447480193    12.000000000000
         H            1.805552125527     0.164812942576    -1.526324519807     1.007825032230
         H            2.019290125527     0.654277942576     1.509062480193     1.007825032230
         H            3.305727125527     1.027029942576     0.266826480193     1.007825032230
         H            3.350911125527    -1.462137057424    -0.368781519807     1.007825032230
         H            2.082185125527    -1.774433057424     0.905998480193     1.007825032230
         H            0.159692125527    -2.274317057424    -0.382305519807     1.007825032230
         H           -2.463428874473     1.837940942576     0.346844480193     1.007825032230
         H           -2.296836874473    -2.476833057424     0.043228480193     1.007825032230
         H           -3.618204874473    -0.355563057424     0.443377480193     1.007825032230

  Basis Set: AUG-CC-PVTZ
    Blend: AUG-CC-PVTZ
  Basis Set: (AUG-CC-PVTZ AUX)
    Blend: AUG-CC-PVTZ-JKFIT
	 Reference Energy          =    -437.6034897372736054 [Eh]
	 Singles Energy            =      -0.0000000000000000 [Eh]
	 Same-Spin Energy          =      -0.4682506994900202 [Eh]
	 Opposite-Spin Energy      =      -1.4653720842970750 [Eh]
	 Correlation Energy        =      -1.9336227837870952 [Eh]
	 Total Energy              =    -439.5371125210606920 [Eh]

	 ================> DF-SCS-MP2 Energies <==================
	-----------------------------------------------------------
	 SCS Same-Spin Scale       =       0.3333333333333333 [-]
	 SCS Opposite-Spin Scale   =       1.2000000000000000 [-]
	 SCS Same-Spin Energy      =      -0.1560835664966734 [Eh]
	 SCS Opposite-Spin Energy  =      -1.7584465011564900 [Eh]
	 SCS Correlation Energy    =      -1.9145300676531634 [Eh]
	 SCS Total Energy          =    -439.5180198049267801 [Eh]
	-----------------------------------------------------------

  Dipole Moment: [D]
     X:     0.0004      Y:    -3.8668      Z:     0.1534     Total:     3.8698

*** Psi4 exiting successfully. Buy a developer a beer!
