                               Psi4 1.3.2 release

  ==> Input File <==

--------------------------------------------------------------------------
#psi4
#
memory 32 gb

molecule  {
0 1
  O        0.0787650     2.1311770    -0.2164080
  N        0.1333340    -0.1752640    -0.2334700
  C        1.5457052    -0.2510869    -0.5250403
  C        2.4562500     0.4082890     0.5600040
  C        2.4806620    -1.0501060     0.1884540
  C       -0.5399690     1.0666720    -0.0960400
  C       -0.5048870    -1.3883940    -0.2151950
  C       -1.9528000     0.9321040     0.1889810
  C       -1.8475120    -1.4809310     0.0203080
  C       -2.5801750    -0.2831070     0.2328620
  H        1.7757480     0.1884380    -1.5349100
  H        1.9894860     0.6779030     1.5004770
  H        3.2759230     1.0506550     0.2582410
  H        3.3211070    -1.4385120    -0.3773670
  H        2.0523810    -1.7508080     0.8974130
  H        0.1298880    -2.2506920    -0.3908910
  H       -2.4932330     1.8615660     0.3382590
  H       -2.3266410    -2.4532080     0.0346430
  H       -3.6480090    -0.3319380     0.4347920
units angstrom
no_reorient  #important for SAPT in psi4, default
symmetry c1  #important for SAPT in psi4, default
}

set PROPERTIES_ORIGIN ["COM"]
properties('MP2/aug-cc-pvtz', properties = ['dipole'])
--------------------------------------------------------------------------

    Molecular point group: c1
  Charge       = 0
  Multiplicity = 1
  Basis Set: AUG-CC-PVTZ
    Blend: AUG-CC-PVTZ
  Basis Set: (AUG-CC-PVTZ AUX)
    Blend: AUG-CC-PVTZ-JKFIT

    Orbital Energies [Eh]
    ---------------------

    Doubly Occupied:

       1A    -20.507062     2A    -15.628744     3A    -11.352301
       4A    -11.305613     5A    -11.283034     6A    -11.270673
       7A    -11.247224     8A    -11.238697     9A    -11.238004
      10A    -11.231905    11A     -1.369096    12A     -1.285895
      13A     -1.160452    14A     -1.097545    15A     -1.024523
      16A     -0.899288    17A     -0.874154    18A     -0.830880
      19A     -0.807573    20A     -0.723040    21A     -0.699173
      22A     -0.681948    23A     -0.666179    24A     -0.641720
      25A     -0.606306    26A     -0.594936    27A     -0.573366
      28A     -0.541922    29A     -0.534152    30A     -0.527241
      31A     -0.482820    32A     -0.478158    33A     -0.434663
      34A     -0.420968    35A     -0.381758    36A     -0.308199

  @DF-RHF Final Energy:  -437.59515857685614

   => Energetics <=

    Nuclear Repulsion Energy =            507.9793834485174671
    One-Electron Energy =               -1601.2506614051148972
    Two-Electron Energy =                 655.6761193797412943
    Total Energy =                       -437.5951585768561927
  Basis Set: (AUG-CC-PVTZ AUX)
    Blend: AUG-CC-PVTZ-RI
    Molecular point group: c1

    Geometry (in Angstrom), charge = 0, multiplicity = 1:

       Center              X                  Y                   Z               Mass
    ------------   -----------------  -----------------  -----------------  -----------------
         O            0.108951438449     2.111974510242    -0.206716751288    15.994914619570
         N            0.163520438449    -0.194466489758    -0.223778751288    14.003074004430
         C            1.575891638449    -0.270289389758    -0.515349051288    12.000000000000
         C            2.486436438449     0.389086510242     0.569695248712    12.000000000000
         C            2.510848438449    -1.069308489758     0.198145248712    12.000000000000
         C           -0.509782561551     1.047469510242    -0.086348751288    12.000000000000
         C           -0.474700561551    -1.407596489758    -0.205503751288    12.000000000000
         C           -1.922613561551     0.912901510242     0.198672248712    12.000000000000
         C           -1.817325561551    -1.500133489758     0.029999248712    12.000000000000
         C           -2.549988561551    -0.302309489758     0.242553248712    12.000000000000
         H            1.805934438449     0.169235510242    -1.525218751288     1.007825032230
         H            2.019672438449     0.658700510242     1.510168248712     1.007825032230
         H            3.306109438449     1.031452510242     0.267932248712     1.007825032230
         H            3.351293438449    -1.457714489758    -0.367675751288     1.007825032230
         H            2.082567438449    -1.770010489758     0.907104248712     1.007825032230
         H            0.160074438449    -2.269894489758    -0.381199751288     1.007825032230
         H           -2.463046561551     1.842363510242     0.347950248712     1.007825032230
         H           -2.296454561551    -2.472410489758     0.044334248712     1.007825032230
         H           -3.617822561551    -0.351140489758     0.444483248712     1.007825032230

  Basis Set: AUG-CC-PVTZ
    Blend: AUG-CC-PVTZ
  Basis Set: (AUG-CC-PVTZ AUX)
    Blend: AUG-CC-PVTZ-JKFIT
	 Reference Energy          =    -437.5951585768561358 [Eh]
	 Singles Energy            =      -0.0000000000000000 [Eh]
	 Same-Spin Energy          =      -0.4687597732787061 [Eh]
	 Opposite-Spin Energy      =      -1.4664226240171632 [Eh]
	 Correlation Energy        =      -1.9351823972958693 [Eh]
	 Total Energy              =    -439.5303409741520113 [Eh]

	 ================> DF-SCS-MP2 Energies <==================
	-----------------------------------------------------------
	 SCS Same-Spin Scale       =       0.3333333333333333 [-]
	 SCS Opposite-Spin Scale   =       1.2000000000000000 [-]
	 SCS Same-Spin Energy      =      -0.1562532577595687 [Eh]
	 SCS Opposite-Spin Energy  =      -1.7597071488205958 [Eh]
	 SCS Correlation Energy    =      -1.9159604065801645 [Eh]
	 SCS Total Energy          =    -439.5111189834362904 [Eh]
	-----------------------------------------------------------

  Dipole Moment: [D]
     X:    -0.0020      Y:    -3.8941      Z:     0.1480     Total:     3.8969

*** Psi4 exiting successfully. Buy a developer a beer!
