                               Psi4 1.3.2 release

  ==> Input File <==

--------------------------------------------------------------------------
#psi4
#
memory 32 gb

molecule  {
0 1
  O        0.0787650     2.1311770    -0.2164080
  N        0.1166739    -0.1481399    -0.3291117
  C        1.5484140    -0.1005230    -0.5118890
  C        2.4562500     0.4082890     0.5600040
  C        2.4806620    -1.0501060     0.1884540
  C       -0.5399690     1.0666720    -0.0960400
  C       -0.5048870    -1.3883940    -0.2151950
  C       -1.9528000     0.9321040     0.1889810
  C       -1.8475120    -1.4809310     0.0203080
  C       -2.5801750    -0.2831070     0.2328620
  H        1.7757480     0.1884380    -1.5349100
  H        1.9894860     0.6779030     1.5004770
  H        3.2759230     1.0506550     0.2582410
  H        3.3211070    -1.4385120    -0.3773670
  H        2.0523810    -1.7508080     0.8974130
  H        0.1298880    -2.2506920    -0.3908910
  H       -2.4932330     1.8615660     0.3382590
  H       -2.3266410    -2.4532080     0.0346430
  H       -3.6480090    -0.3319380     0.4347920
units angstrom
no_reorient  #important for SAPT in psi4, default
symmetry c1  #important for SAPT in psi4, default
}

set PROPERTIES_ORIGIN ["COM"]
properties('MP2/aug-cc-pvtz', properties = ['dipole'])
--------------------------------------------------------------------------

    Molecular point group: c1
  Charge       = 0
  Multiplicity = 1
  Basis Set: AUG-CC-PVTZ
    Blend: AUG-CC-PVTZ
  Basis Set: (AUG-CC-PVTZ AUX)
    Blend: AUG-CC-PVTZ-JKFIT

    Orbital Energies [Eh]
    ---------------------

    Doubly Occupied:

       1A    -20.503734     2A    -15.626448     3A    -11.347194
       4A    -11.308026     5A    -11.278326     6A    -11.270573
       7A    -11.244492     8A    -11.241634     9A    -11.238245
      10A    -11.234862    11A     -1.369911    12A     -1.278232
      13A     -1.155339    14A     -1.097384    15A     -1.025264
      16A     -0.903044    17A     -0.869661    18A     -0.830785
      19A     -0.808805    20A     -0.722005    21A     -0.697910
      22A     -0.681817    23A     -0.667041    24A     -0.640085
      25A     -0.605556    26A     -0.596555    27A     -0.574937
      28A     -0.542552    29A     -0.535166    30A     -0.526443
      31A     -0.476816    32A     -0.458004    33A     -0.440055
      34A     -0.418734    35A     -0.399516    36A     -0.310481

  @DF-RHF Final Energy:  -437.60834892627349

   => Energetics <=

    Nuclear Repulsion Energy =            507.9409782818738108
    One-Electron Energy =               -1601.2473858956152526
    Two-Electron Energy =                 655.6980586874678920
    Total Energy =                       -437.6083489262734929
  Basis Set: (AUG-CC-PVTZ AUX)
    Blend: AUG-CC-PVTZ-RI
    Molecular point group: c1

    Geometry (in Angstrom), charge = 0, multiplicity = 1:

       Center              X                  Y                   Z               Mass
    ------------   -----------------  -----------------  -----------------  -----------------
         O            0.110437996316     2.095785769172    -0.197969612199    15.994914619570
         N            0.148346896316    -0.183531130828    -0.310673312199    14.003074004430
         C            1.580086996316    -0.135914230828    -0.493450612199    12.000000000000
         C            2.487922996316     0.372897769172     0.578442387801    12.000000000000
         C            2.512334996316    -1.085497230828     0.206892387801    12.000000000000
         C           -0.508296003684     1.031280769172    -0.077601612199    12.000000000000
         C           -0.473214003684    -1.423785230828    -0.196756612199    12.000000000000
         C           -1.921127003684     0.896712769172     0.207419387801    12.000000000000
         C           -1.815839003684    -1.516322230828     0.038746387801    12.000000000000
         C           -2.548502003684    -0.318498230828     0.251300387801    12.000000000000
         H            1.807420996316     0.153046769172    -1.516471612199     1.007825032230
         H            2.021158996316     0.642511769172     1.518915387801     1.007825032230
         H            3.307595996316     1.015263769172     0.276679387801     1.007825032230
         H            3.352779996316    -1.473903230828    -0.358928612199     1.007825032230
         H            2.084053996316    -1.786199230828     0.915851387801     1.007825032230
         H            0.161560996316    -2.286083230828    -0.372452612199     1.007825032230
         H           -2.461560003684     1.826174769172     0.356697387801     1.007825032230
         H           -2.294968003684    -2.488599230828     0.053081387801     1.007825032230
         H           -3.616336003684    -0.367329230828     0.453230387801     1.007825032230

  Basis Set: AUG-CC-PVTZ
    Blend: AUG-CC-PVTZ
  Basis Set: (AUG-CC-PVTZ AUX)
    Blend: AUG-CC-PVTZ-JKFIT
	 Reference Energy          =    -437.6083489262734929 [Eh]
	 Singles Energy            =      -0.0000000000000000 [Eh]
	 Same-Spin Energy          =      -0.4673710770622677 [Eh]
	 Opposite-Spin Energy      =      -1.4644947294246382 [Eh]
	 Correlation Energy        =      -1.9318658064869059 [Eh]
	 Total Energy              =    -439.5402147327603757 [Eh]

	 ================> DF-SCS-MP2 Energies <==================
	-----------------------------------------------------------
	 SCS Same-Spin Scale       =       0.3333333333333333 [-]
	 SCS Opposite-Spin Scale   =       1.2000000000000000 [-]
	 SCS Same-Spin Energy      =      -0.1557903590207559 [Eh]
	 SCS Opposite-Spin Energy  =      -1.7573936753095658 [Eh]
	 SCS Correlation Energy    =      -1.9131840343303217 [Eh]
	 SCS Total Energy          =    -439.5215329606037926 [Eh]
	-----------------------------------------------------------

  Dipole Moment: [D]
     X:    -0.0438      Y:    -3.8910      Z:     0.2356     Total:     3.8984

*** Psi4 exiting successfully. Buy a developer a beer!
