                               Psi4 1.4a3.dev225

  ==> Input File <==

--------------------------------------------------------------------------
#psi4
#
memory 32 gb

molecule  {
0 1
  O        0.0787650     2.1311770    -0.2164080
  N        0.1333340    -0.1752640    -0.2334700
  C        1.5484140    -0.1005230    -0.5118890
  C        2.4562500     0.4082890     0.5600040
  C        2.4806620    -1.0501060     0.1884540
  C       -0.5494563     1.0841717    -0.0941035
  C       -0.5048870    -1.3883940    -0.2151950
  C       -1.9528000     0.9321040     0.1889810
  C       -1.8475120    -1.4809310     0.0203080
  C       -2.5801750    -0.2831070     0.2328620
  H        1.7757480     0.1884380    -1.5349100
  H        1.9894860     0.6779030     1.5004770
  H        3.2759230     1.0506550     0.2582410
  H        3.3211070    -1.4385120    -0.3773670
  H        2.0523810    -1.7508080     0.8974130
  H        0.1298880    -2.2506920    -0.3908910
  H       -2.4932330     1.8615660     0.3382590
  H       -2.3266410    -2.4532080     0.0346430
  H       -3.6480090    -0.3319380     0.4347920
units angstrom
no_reorient  #important for SAPT in psi4, default
symmetry c1  #important for SAPT in psi4, default
}

set PROPERTIES_ORIGIN ["COM"]
properties('MP2/aug-cc-pvtz', properties = ['dipole'])
--------------------------------------------------------------------------

    Molecular point group: c1
  Charge       = 0
  Multiplicity = 1
  Basis Set: AUG-CC-PVTZ
    Blend: AUG-CC-PVTZ
  Basis Set: (AUG-CC-PVTZ AUX)
    Blend: AUG-CC-PVTZ-JKFIT

    Orbital Energies [Eh]
    ---------------------

    Doubly Occupied:

       1A    -20.510163     2A    -15.625156     3A    -11.350683
       4A    -11.306824     5A    -11.278388     6A    -11.271339
       7A    -11.242645     8A    -11.237806     9A    -11.235546
      10A    -11.233572    11A     -1.374476    12A     -1.282046
      13A     -1.155239    14A     -1.094819    15A     -1.024124
      16A     -0.901718    17A     -0.865229    18A     -0.828202
      19A     -0.811106    20A     -0.724781    21A     -0.696662
      22A     -0.682287    23A     -0.663664    24A     -0.639269
      25A     -0.609084    26A     -0.592934    27A     -0.577513
      28A     -0.546932    29A     -0.534915    30A     -0.525865
      31A     -0.484461    32A     -0.455091    33A     -0.439407
      34A     -0.421670    35A     -0.398957    36A     -0.308315

  @DF-RHF Final Energy:  -437.61040009231721

   => Energetics <=

    Nuclear Repulsion Energy =            508.0269387376561099
    One-Electron Energy =               -1601.4128998483633950
    Two-Electron Energy =                 655.7755610183901354
    Total Energy =                       -437.6104000923171498
  Basis Set: (AUG-CC-PVTZ AUX)
    Blend: AUG-CC-PVTZ-RI
    Molecular point group: c1

    Geometry (in Angstrom), charge = 0, multiplicity = 1:

       Center              X                  Y                   Z               Mass
    ------------   -----------------  -----------------  -----------------  -----------------
         O            0.109553666591     2.097043090367    -0.208057209762    15.994914619570
         N            0.164122666591    -0.209397909633    -0.225119209762    14.003074004430
         C            1.579202666591    -0.134656909633    -0.503538209762    12.000000000000
         C            2.487038666591     0.374155090367     0.568354790238    12.000000000000
         C            2.511450666591    -1.084239909633     0.196804790238    12.000000000000
         C           -0.518667633409     1.050037790367    -0.085752709762    12.000000000000
         C           -0.474098333409    -1.422527909633    -0.206844209762    12.000000000000
         C           -1.922011333409     0.897970090367     0.197331790238    12.000000000000
         C           -1.816723333409    -1.515064909633     0.028658790238    12.000000000000
         C           -2.549386333409    -0.317240909633     0.241212790238    12.000000000000
         H            1.806536666591     0.154304090367    -1.526559209762     1.007825032230
         H            2.020274666591     0.643769090367     1.508827790238     1.007825032230
         H            3.306711666591     1.016521090367     0.266591790238     1.007825032230
         H            3.351895666591    -1.472645909633    -0.369016209762     1.007825032230
         H            2.083169666591    -1.784941909633     0.905763790238     1.007825032230
         H            0.160676666591    -2.284825909633    -0.382540209762     1.007825032230
         H           -2.462444333409     1.827432090367     0.346609790238     1.007825032230
         H           -2.295852333409    -2.487341909633     0.042993790238     1.007825032230
         H           -3.617220333409    -0.366071909633     0.443142790238     1.007825032230

  Basis Set: AUG-CC-PVTZ
    Blend: AUG-CC-PVTZ
  Basis Set: (AUG-CC-PVTZ AUX)
    Blend: AUG-CC-PVTZ-JKFIT
	 Reference Energy          =    -437.6104000923172066 [Eh]
	 Singles Energy            =      -0.0000000000000000 [Eh]
	 Same-Spin Energy          =      -0.4678204277951303 [Eh]
	 Opposite-Spin Energy      =      -1.4645578165120525 [Eh]
	 Correlation Energy        =      -1.9323782443071829 [Eh]
	 Total Energy              =    -439.5427783366243943 [Eh]

	 ================> DF-SCS-MP2 Energies <==================
	-----------------------------------------------------------
	 SCS Same-Spin Scale       =       0.3333333333333333 [-]
	 SCS Opposite-Spin Scale   =       1.2000000000000000 [-]
	 SCS Same-Spin Energy      =      -0.1559401425983768 [Eh]
	 SCS Opposite-Spin Energy  =      -1.7574693798144629 [Eh]
	 SCS Correlation Energy    =      -1.9134095224128398 [Eh]
	 SCS Total Energy          =    -439.5238096147300553 [Eh]
	-----------------------------------------------------------

  Dipole Moment: [D]
     X:    -0.0096      Y:    -3.6878      Z:     0.1501     Total:     3.6909

*** Psi4 exiting successfully. Buy a developer a beer!
