                               Psi4 1.3.2 release

  ==> Input File <==

--------------------------------------------------------------------------
#psi4
#
memory 32 gb

molecule  {
0 1
  O        0.0787650     2.1311770    -0.2164080
  N        0.1385802    -0.1819933    -0.2097534
  C        1.5484140    -0.1005230    -0.5118890
  C        2.4562500     0.4082890     0.5600040
  C        2.4806620    -1.0501060     0.1884540
  C       -0.5399690     1.0666720    -0.0960400
  C       -0.5048870    -1.3883940    -0.2151950
  C       -1.9528000     0.9321040     0.1889810
  C       -1.8475120    -1.4809310     0.0203080
  C       -2.5801750    -0.2831070     0.2328620
  H        1.7757480     0.1884380    -1.5349100
  H        1.9894860     0.6779030     1.5004770
  H        3.2759230     1.0506550     0.2582410
  H        3.3211070    -1.4385120    -0.3773670
  H        2.0523810    -1.7508080     0.8974130
  H        0.1298880    -2.2506920    -0.3908910
  H       -2.4932330     1.8615660     0.3382590
  H       -2.3266410    -2.4532080     0.0346430
  H       -3.6480090    -0.3319380     0.4347920
units angstrom
no_reorient  #important for SAPT in psi4, default
symmetry c1  #important for SAPT in psi4, default
}

set PROPERTIES_ORIGIN ["COM"]
properties('MP2/aug-cc-pvtz', properties = ['dipole'])
--------------------------------------------------------------------------

    Molecular point group: c1
  Charge       = 0
  Multiplicity = 1
  Basis Set: AUG-CC-PVTZ
    Blend: AUG-CC-PVTZ
  Basis Set: (AUG-CC-PVTZ AUX)
    Blend: AUG-CC-PVTZ-JKFIT

    Orbital Energies [Eh]
    ---------------------

    Doubly Occupied:

       1A    -20.508471     2A    -15.627345     3A    -11.350892
       4A    -11.306817     5A    -11.279347     6A    -11.270542
       7A    -11.242777     8A    -11.238874     9A    -11.236774
      10A    -11.233773    11A     -1.370146    12A     -1.283879
      13A     -1.156181    14A     -1.095481    15A     -1.024250
      16A     -0.901293    17A     -0.868249    18A     -0.828986
      19A     -0.811138    20A     -0.726734    21A     -0.697291
      22A     -0.682286    23A     -0.662948    24A     -0.640471
      25A     -0.606468    26A     -0.593202    27A     -0.577739
      28A     -0.547143    29A     -0.535219    30A     -0.526046
      31A     -0.481626    32A     -0.454749    33A     -0.439929
      34A     -0.421117    35A     -0.399870    36A     -0.308569

  @DF-RHF Final Energy:  -437.61029866598926

   => Energetics <=

    Nuclear Repulsion Energy =            508.2230374582961190
    One-Electron Energy =               -1601.7934266820861922
    Two-Electron Energy =                 655.9600905578007541
    Total Energy =                       -437.6102986659892622
  Basis Set: (AUG-CC-PVTZ AUX)
    Blend: AUG-CC-PVTZ-RI
    Molecular point group: c1

    Geometry (in Angstrom), charge = 0, multiplicity = 1:

       Center              X                  Y                   Z               Mass
    ------------   -----------------  -----------------  -----------------  -----------------
         O            0.108166883987     2.099295484373    -0.210343956870    15.994914619570
         N            0.167982083987    -0.213874815627    -0.203689356870    14.003074004430
         C            1.577815883987    -0.132404515627    -0.505824956870    12.000000000000
         C            2.485651883987     0.376407484373     0.566068043130    12.000000000000
         C            2.510063883987    -1.081987515627     0.194518043130    12.000000000000
         C           -0.510567116013     1.034790484373    -0.089975956870    12.000000000000
         C           -0.475485116013    -1.420275515627    -0.209130956870    12.000000000000
         C           -1.923398116013     0.900222484373     0.195045043130    12.000000000000
         C           -1.818110116013    -1.512812515627     0.026372043130    12.000000000000
         C           -2.550773116013    -0.314988515627     0.238926043130    12.000000000000
         H            1.805149883987     0.156556484373    -1.528845956870     1.007825032230
         H            2.018887883987     0.646021484373     1.506541043130     1.007825032230
         H            3.305324883987     1.018773484373     0.264305043130     1.007825032230
         H            3.350508883987    -1.470393515627    -0.371302956870     1.007825032230
         H            2.081782883987    -1.782689515627     0.903477043130     1.007825032230
         H            0.159289883987    -2.282573515627    -0.384826956870     1.007825032230
         H           -2.463831116013     1.829684484373     0.344323043130     1.007825032230
         H           -2.297239116013    -2.485089515627     0.040707043130     1.007825032230
         H           -3.618607116013    -0.363819515627     0.440856043130     1.007825032230

  Basis Set: AUG-CC-PVTZ
    Blend: AUG-CC-PVTZ
  Basis Set: (AUG-CC-PVTZ AUX)
    Blend: AUG-CC-PVTZ-JKFIT
	 Reference Energy          =    -437.6102986659892622 [Eh]
	 Singles Energy            =      -0.0000000000000000 [Eh]
	 Same-Spin Energy          =      -0.4678416806373635 [Eh]
	 Opposite-Spin Energy      =      -1.4647701515079865 [Eh]
	 Correlation Energy        =      -1.9326118321453500 [Eh]
	 Total Energy              =    -439.5429104981346313 [Eh]

	 ================> DF-SCS-MP2 Energies <==================
	-----------------------------------------------------------
	 SCS Same-Spin Scale       =       0.3333333333333333 [-]
	 SCS Opposite-Spin Scale   =       1.2000000000000000 [-]
	 SCS Same-Spin Energy      =      -0.1559472268791212 [Eh]
	 SCS Opposite-Spin Energy  =      -1.7577241818095837 [Eh]
	 SCS Correlation Energy    =      -1.9136714086887048 [Eh]
	 SCS Total Energy          =    -439.5239700746779477 [Eh]
	-----------------------------------------------------------

  Dipole Moment: [D]
     X:    -0.0174      Y:    -3.7584      Z:     0.1378     Total:     3.7609

*** Psi4 exiting successfully. Buy a developer a beer!
