                               Psi4 1.3.2 release

  ==> Input File <==

--------------------------------------------------------------------------
#psi4
#
memory 32 gb

molecule  {
0 1
  O        0.0787650     2.1311770    -0.2164080
  N        0.1333340    -0.1752640    -0.2334700
  C        1.5458682    -0.0504356    -0.5068193
  C        2.4562500     0.4082890     0.5600040
  C        2.4806620    -1.0501060     0.1884540
  C       -0.5399690     1.0666720    -0.0960400
  C       -0.5048870    -1.3883940    -0.2151950
  C       -1.9528000     0.9321040     0.1889810
  C       -1.8475120    -1.4809310     0.0203080
  C       -2.5801750    -0.2831070     0.2328620
  H        1.7757480     0.1884380    -1.5349100
  H        1.9894860     0.6779030     1.5004770
  H        3.2759230     1.0506550     0.2582410
  H        3.3211070    -1.4385120    -0.3773670
  H        2.0523810    -1.7508080     0.8974130
  H        0.1298880    -2.2506920    -0.3908910
  H       -2.4932330     1.8615660     0.3382590
  H       -2.3266410    -2.4532080     0.0346430
  H       -3.6480090    -0.3319380     0.4347920
units angstrom
no_reorient  #important for SAPT in psi4, default
symmetry c1  #important for SAPT in psi4, default
}

set PROPERTIES_ORIGIN ["COM"]
properties('MP2/aug-cc-pvtz', properties = ['dipole'])
--------------------------------------------------------------------------

    Molecular point group: c1
  Charge       = 0
  Multiplicity = 1
  Basis Set: AUG-CC-PVTZ
    Blend: AUG-CC-PVTZ
  Basis Set: (AUG-CC-PVTZ AUX)
    Blend: AUG-CC-PVTZ-JKFIT

    Orbital Energies [Eh]
    ---------------------

    Doubly Occupied:

       1A    -20.507547     2A    -15.627348     3A    -11.349499
       4A    -11.307746     5A    -11.279834     6A    -11.270488
       7A    -11.241835     8A    -11.239700     9A    -11.236796
      10A    -11.235166    11A     -1.370851    12A     -1.282487
      13A     -1.154689    14A     -1.095376    15A     -1.024862
      16A     -0.902798    17A     -0.867444    18A     -0.829525
      19A     -0.811496    20A     -0.726701    21A     -0.697165
      22A     -0.682425    23A     -0.662774    24A     -0.639863
      25A     -0.606428    26A     -0.594044    27A     -0.578048
      28A     -0.547509    29A     -0.535683    30A     -0.525754
      31A     -0.481339    32A     -0.460456    33A     -0.429441
      34A     -0.420576    35A     -0.402680    36A     -0.309173

  @DF-RHF Final Energy:  -437.60913970855273

   => Energetics <=

    Nuclear Repulsion Energy =            508.2646198988937840
    One-Electron Energy =               -1601.8764261274911860
    Two-Electron Energy =                 656.0026665200446132
    Total Energy =                       -437.6091397085526751
  Basis Set: (AUG-CC-PVTZ AUX)
    Blend: AUG-CC-PVTZ-RI
    Molecular point group: c1

    Geometry (in Angstrom), charge = 0, multiplicity = 1:

       Center              X                  Y                   Z               Mass
    ------------   -----------------  -----------------  -----------------  -----------------
         O            0.108936956899     2.094147873131    -0.208335575361    15.994914619570
         N            0.163505956899    -0.212293126869    -0.225397575361    14.003074004430
         C            1.576040156899    -0.087464726869    -0.498746875361    12.000000000000
         C            2.486421956899     0.371259873131     0.568076424639    12.000000000000
         C            2.510833956899    -1.087135126869     0.196526424639    12.000000000000
         C           -0.509797043101     1.029642873131    -0.087967575361    12.000000000000
         C           -0.474715043101    -1.425423126869    -0.207122575361    12.000000000000
         C           -1.922628043101     0.895074873131     0.197053424639    12.000000000000
         C           -1.817340043101    -1.517960126869     0.028380424639    12.000000000000
         C           -2.550003043101    -0.320136126869     0.240934424639    12.000000000000
         H            1.805919956899     0.151408873131    -1.526837575361     1.007825032230
         H            2.019657956899     0.640873873131     1.508549424639     1.007825032230
         H            3.306094956899     1.013625873131     0.266313424639     1.007825032230
         H            3.351278956899    -1.475541126869    -0.369294575361     1.007825032230
         H            2.082552956899    -1.787837126869     0.905485424639     1.007825032230
         H            0.160059956899    -2.287721126869    -0.382818575361     1.007825032230
         H           -2.463061043101     1.824536873131     0.346331424639     1.007825032230
         H           -2.296469043101    -2.490237126869     0.042715424639     1.007825032230
         H           -3.617837043101    -0.368967126869     0.442864424639     1.007825032230

  Basis Set: AUG-CC-PVTZ
    Blend: AUG-CC-PVTZ
  Basis Set: (AUG-CC-PVTZ AUX)
    Blend: AUG-CC-PVTZ-JKFIT
	 Reference Energy          =    -437.6091397085527319 [Eh]
	 Singles Energy            =      -0.0000000000000000 [Eh]
	 Same-Spin Energy          =      -0.4678029006909248 [Eh]
	 Opposite-Spin Energy      =      -1.4648471430578420 [Eh]
	 Correlation Energy        =      -1.9326500437487668 [Eh]
	 Total Energy              =    -439.5417897523014972 [Eh]

	 ================> DF-SCS-MP2 Energies <==================
	-----------------------------------------------------------
	 SCS Same-Spin Scale       =       0.3333333333333333 [-]
	 SCS Opposite-Spin Scale   =       1.2000000000000000 [-]
	 SCS Same-Spin Energy      =      -0.1559343002303082 [Eh]
	 SCS Opposite-Spin Energy  =      -1.7578165716694103 [Eh]
	 SCS Correlation Energy    =      -1.9137508718997185 [Eh]
	 SCS Total Energy          =    -439.5228905804524402 [Eh]
	-----------------------------------------------------------

  Dipole Moment: [D]
     X:    -0.0345      Y:    -3.7513      Z:     0.1604     Total:     3.7549

*** Psi4 exiting successfully. Buy a developer a beer!
