                               Psi4 1.3.2 release

  ==> Input File <==

--------------------------------------------------------------------------
#psi4
#
memory 32 gb

molecule  {
0 1
  O        0.0787650     2.1311770    -0.2164080
  N        0.1333340    -0.1752640    -0.2334700
  C        1.5356189     0.0492220    -0.4956873
  C        2.4562500     0.4082890     0.5600040
  C        2.4806620    -1.0501060     0.1884540
  C       -0.5399690     1.0666720    -0.0960400
  C       -0.5048870    -1.3883940    -0.2151950
  C       -1.9528000     0.9321040     0.1889810
  C       -1.8475120    -1.4809310     0.0203080
  C       -2.5801750    -0.2831070     0.2328620
  H        1.7757480     0.1884380    -1.5349100
  H        1.9894860     0.6779030     1.5004770
  H        3.2759230     1.0506550     0.2582410
  H        3.3211070    -1.4385120    -0.3773670
  H        2.0523810    -1.7508080     0.8974130
  H        0.1298880    -2.2506920    -0.3908910
  H       -2.4932330     1.8615660     0.3382590
  H       -2.3266410    -2.4532080     0.0346430
  H       -3.6480090    -0.3319380     0.4347920
units angstrom
no_reorient  #important for SAPT in psi4, default
symmetry c1  #important for SAPT in psi4, default
}

set PROPERTIES_ORIGIN ["COM"]
properties('MP2/aug-cc-pvtz', properties = ['dipole'])
--------------------------------------------------------------------------

    Molecular point group: c1
  Charge       = 0
  Multiplicity = 1
  Basis Set: AUG-CC-PVTZ
    Blend: AUG-CC-PVTZ
  Basis Set: (AUG-CC-PVTZ AUX)
    Blend: AUG-CC-PVTZ-JKFIT

    Orbital Energies [Eh]
    ---------------------

    Doubly Occupied:

       1A    -20.508672     2A    -15.628070     3A    -11.349014
       4A    -11.309338     5A    -11.283646     6A    -11.270843
       7A    -11.240664     8A    -11.239042     9A    -11.237582
      10A    -11.236757    11A     -1.373091    12A     -1.281980
      13A     -1.151852    14A     -1.094526    15A     -1.025711
      16A     -0.905397    17A     -0.864979    18A     -0.830139
      19A     -0.812172    20A     -0.727858    21A     -0.696435
      22A     -0.683070    23A     -0.660378    24A     -0.638630
      25A     -0.607255    26A     -0.594102    27A     -0.578761
      28A     -0.549883    29A     -0.536474    30A     -0.524698
      31A     -0.484695    32A     -0.473300    33A     -0.421479
      34A     -0.412726    35A     -0.396595    36A     -0.310102

  @DF-RHF Final Energy:  -437.59696470650948

   => Energetics <=

    Nuclear Repulsion Energy =            508.3529324931558335
    One-Electron Energy =               -1602.0199657740345174
    Two-Electron Energy =                 656.0700685743693157
    Total Energy =                       -437.5969647065094250
  Basis Set: (AUG-CC-PVTZ AUX)
    Blend: AUG-CC-PVTZ-RI
    Molecular point group: c1

    Geometry (in Angstrom), charge = 0, multiplicity = 1:

       Center              X                  Y                   Z               Mass
    ------------   -----------------  -----------------  -----------------  -----------------
         O            0.109847544330     2.085293906720    -0.209324585272    15.994914619570
         N            0.164416544330    -0.221147093280    -0.226386585272    14.003074004430
         C            1.566701444330     0.003338906720    -0.488603885272    12.000000000000
         C            2.487332544330     0.362405906720     0.567087414728    12.000000000000
         C            2.511744544330    -1.095989093280     0.195537414728    12.000000000000
         C           -0.508886455670     1.020788906720    -0.088956585272    12.000000000000
         C           -0.473804455670    -1.434277093280    -0.208111585272    12.000000000000
         C           -1.921717455670     0.886220906720     0.196064414728    12.000000000000
         C           -1.816429455670    -1.526814093280     0.027391414728    12.000000000000
         C           -2.549092455670    -0.328990093280     0.239945414728    12.000000000000
         H            1.806830544330     0.142554906720    -1.527826585272     1.007825032230
         H            2.020568544330     0.632019906720     1.507560414728     1.007825032230
         H            3.307005544330     1.004771906720     0.265324414728     1.007825032230
         H            3.352189544330    -1.484395093280    -0.370283585272     1.007825032230
         H            2.083463544330    -1.796691093280     0.904496414728     1.007825032230
         H            0.160970544330    -2.296575093280    -0.383807585272     1.007825032230
         H           -2.462150455670     1.815682906720     0.345342414728     1.007825032230
         H           -2.295558455670    -2.499091093280     0.041726414728     1.007825032230
         H           -3.616926455670    -0.377821093280     0.441875414728     1.007825032230

  Basis Set: AUG-CC-PVTZ
    Blend: AUG-CC-PVTZ
  Basis Set: (AUG-CC-PVTZ AUX)
    Blend: AUG-CC-PVTZ-JKFIT
	 Reference Energy          =    -437.5969647065094819 [Eh]
	 Singles Energy            =      -0.0000000000000000 [Eh]
	 Same-Spin Energy          =      -0.4685263057743111 [Eh]
	 Opposite-Spin Energy      =      -1.4664769705514380 [Eh]
	 Correlation Energy        =      -1.9350032763257490 [Eh]
	 Total Energy              =    -439.5319679828352264 [Eh]

	 ================> DF-SCS-MP2 Energies <==================
	-----------------------------------------------------------
	 SCS Same-Spin Scale       =       0.3333333333333333 [-]
	 SCS Opposite-Spin Scale   =       1.2000000000000000 [-]
	 SCS Same-Spin Energy      =      -0.1561754352581037 [Eh]
	 SCS Opposite-Spin Energy  =      -1.7597723646617256 [Eh]
	 SCS Correlation Energy    =      -1.9159477999198293 [Eh]
	 SCS Total Energy          =    -439.5129125064293021 [Eh]
	-----------------------------------------------------------

  Dipole Moment: [D]
     X:    -0.1039      Y:    -3.6603      Z:     0.1671     Total:     3.6656

*** Psi4 exiting successfully. Buy a developer a beer!
