                               Psi4 1.3.2 release

  ==> Input File <==

--------------------------------------------------------------------------
#psi4
#
memory 32 gb

molecule  {
0 1
  O        0.0787650     2.1311770    -0.2164080
  N        0.1204730    -0.2112512    -0.3267445
  C        1.5484140    -0.1005230    -0.5118890
  C        2.4562500     0.4082890     0.5600040
  C        2.4806620    -1.0501060     0.1884540
  C       -0.5399690     1.0666720    -0.0960400
  C       -0.5048870    -1.3883940    -0.2151950
  C       -1.9528000     0.9321040     0.1889810
  C       -1.8475120    -1.4809310     0.0203080
  C       -2.5801750    -0.2831070     0.2328620
  H        1.7757480     0.1884380    -1.5349100
  H        1.9894860     0.6779030     1.5004770
  H        3.2759230     1.0506550     0.2582410
  H        3.3211070    -1.4385120    -0.3773670
  H        2.0523810    -1.7508080     0.8974130
  H        0.1298880    -2.2506920    -0.3908910
  H       -2.4932330     1.8615660     0.3382590
  H       -2.3266410    -2.4532080     0.0346430
  H       -3.6480090    -0.3319380     0.4347920
units angstrom
no_reorient  #important for SAPT in psi4, default
symmetry c1  #important for SAPT in psi4, default
}

set PROPERTIES_ORIGIN ["COM"]
properties('MP2/aug-cc-pvtz', properties = ['dipole'])
--------------------------------------------------------------------------

    Molecular point group: c1
  Charge       = 0
  Multiplicity = 1
  Basis Set: AUG-CC-PVTZ
    Blend: AUG-CC-PVTZ
  Basis Set: (AUG-CC-PVTZ AUX)
    Blend: AUG-CC-PVTZ-JKFIT

    Orbital Energies [Eh]
    ---------------------

    Doubly Occupied:

       1A    -20.512060     2A    -15.628504     3A    -11.354352
       4A    -11.305121     5A    -11.280215     6A    -11.270319
       7A    -11.243867     8A    -11.237225     9A    -11.235121
      10A    -11.234686    11A     -1.369846    12A     -1.289225
      13A     -1.156820    14A     -1.096048    15A     -1.022247
      16A     -0.903331    17A     -0.866910    18A     -0.829851
      19A     -0.814116    20A     -0.724944    21A     -0.694402
      22A     -0.683631    23A     -0.665332    24A     -0.640220
      25A     -0.606091    26A     -0.595797    27A     -0.576190
      28A     -0.546007    29A     -0.533814    30A     -0.527825
      31A     -0.485563    32A     -0.458077    33A     -0.440370
      34A     -0.420000    35A     -0.401832    36A     -0.304961

  @DF-RHF Final Energy:  -437.60612777904737

   => Energetics <=

    Nuclear Repulsion Energy =            507.7364810881084054
    One-Electron Energy =               -1600.7753829437388049
    Two-Electron Energy =                 655.4327740765830868
    Total Energy =                       -437.6061277790473696
  Basis Set: (AUG-CC-PVTZ AUX)
    Blend: AUG-CC-PVTZ-RI
    Molecular point group: c1

    Geometry (in Angstrom), charge = 0, multiplicity = 1:

       Center              X                  Y                   Z               Mass
    ------------   -----------------  -----------------  -----------------  -----------------
         O            0.110044128668     2.102328766004    -0.198215029139    15.994914619570
         N            0.151752128668    -0.240099433996    -0.308551529139    14.003074004430
         C            1.579693128668    -0.129371233996    -0.493696029139    12.000000000000
         C            2.487529128668     0.379440766004     0.578196970861    12.000000000000
         C            2.511941128668    -1.078954233996     0.206646970861    12.000000000000
         C           -0.508689871332     1.037823766004    -0.077847029139    12.000000000000
         C           -0.473607871332    -1.417242233996    -0.197002029139    12.000000000000
         C           -1.921520871332     0.903255766004     0.207173970861    12.000000000000
         C           -1.816232871332    -1.509779233996     0.038500970861    12.000000000000
         C           -2.548895871332    -0.311955233996     0.251054970861    12.000000000000
         H            1.807027128668     0.159589766004    -1.516717029139     1.007825032230
         H            2.020765128668     0.649054766004     1.518669970861     1.007825032230
         H            3.307202128668     1.021806766004     0.276433970861     1.007825032230
         H            3.352386128668    -1.467360233996    -0.359174029139     1.007825032230
         H            2.083660128668    -1.779656233996     0.915605970861     1.007825032230
         H            0.161167128668    -2.279540233996    -0.372698029139     1.007825032230
         H           -2.461953871332     1.832717766004     0.356451970861     1.007825032230
         H           -2.295361871332    -2.482056233996     0.052835970861     1.007825032230
         H           -3.616729871332    -0.360786233996     0.452984970861     1.007825032230

  Basis Set: AUG-CC-PVTZ
    Blend: AUG-CC-PVTZ
  Basis Set: (AUG-CC-PVTZ AUX)
    Blend: AUG-CC-PVTZ-JKFIT
	 Reference Energy          =    -437.6061277790473696 [Eh]
	 Singles Energy            =      -0.0000000000000000 [Eh]
	 Same-Spin Energy          =      -0.4682767123763388 [Eh]
	 Opposite-Spin Energy      =      -1.4650680667589162 [Eh]
	 Correlation Energy        =      -1.9333447791352549 [Eh]
	 Total Energy              =    -439.5394725581826378 [Eh]

	 ================> DF-SCS-MP2 Energies <==================
	-----------------------------------------------------------
	 SCS Same-Spin Scale       =       0.3333333333333333 [-]
	 SCS Opposite-Spin Scale   =       1.2000000000000000 [-]
	 SCS Same-Spin Energy      =      -0.1560922374587796 [Eh]
	 SCS Opposite-Spin Energy  =      -1.7580816801106993 [Eh]
	 SCS Correlation Energy    =      -1.9141739175694790 [Eh]
	 SCS Total Energy          =    -439.5203016966168548 [Eh]
	-----------------------------------------------------------

  Dipole Moment: [D]
     X:     0.1267      Y:    -3.6512      Z:     0.2032     Total:     3.6590

*** Psi4 exiting successfully. Buy a developer a beer!
