                               Psi4 1.3.2 release

  ==> Input File <==

--------------------------------------------------------------------------
#psi4
#
memory 32 gb

molecule  {
0 1
  O        0.0787650     2.1311770    -0.2164080
  N        0.1333340    -0.1752640    -0.2334700
  C        1.5484140    -0.1005230    -0.5118890
  C        2.4562500     0.4082890     0.5600040
  C        2.4806620    -1.0501060     0.1884540
  C       -0.4399417     1.2387646    -0.1154992
  C       -0.5048870    -1.3883940    -0.2151950
  C       -1.9528000     0.9321040     0.1889810
  C       -1.8475120    -1.4809310     0.0203080
  C       -2.5801750    -0.2831070     0.2328620
  H        1.7757480     0.1884380    -1.5349100
  H        1.9894860     0.6779030     1.5004770
  H        3.2759230     1.0506550     0.2582410
  H        3.3211070    -1.4385120    -0.3773670
  H        2.0523810    -1.7508080     0.8974130
  H        0.1298880    -2.2506920    -0.3908910
  H       -2.4932330     1.8615660     0.3382590
  H       -2.3266410    -2.4532080     0.0346430
  H       -3.6480090    -0.3319380     0.4347920
units angstrom
no_reorient  #important for SAPT in psi4, default
symmetry c1  #important for SAPT in psi4, default
}

set PROPERTIES_ORIGIN ["COM"]
properties('MP2/aug-cc-pvtz', properties = ['dipole'])
--------------------------------------------------------------------------

    Molecular point group: c1
  Charge       = 0
  Multiplicity = 1
  Basis Set: AUG-CC-PVTZ
    Blend: AUG-CC-PVTZ
  Basis Set: (AUG-CC-PVTZ AUX)
    Blend: AUG-CC-PVTZ-JKFIT

    Orbital Energies [Eh]
    ---------------------

    Doubly Occupied:

       1A    -20.559656     2A    -15.596221     3A    -11.354151
       4A    -11.292711     5A    -11.270531     6A    -11.255730
       7A    -11.238103     8A    -11.232702     9A    -11.230303
      10A    -11.219454    11A     -1.536060    12A     -1.268824
      13A     -1.143607    14A     -1.075781    15A     -0.997756
      16A     -0.881151    17A     -0.848579    18A     -0.818741
      19A     -0.797541    20A     -0.723337    21A     -0.707615
      22A     -0.705935    23A     -0.674882    24A     -0.647545
      25A     -0.636966    26A     -0.616481    27A     -0.575465
      28A     -0.558641    29A     -0.536925    30A     -0.524929
      31A     -0.516247    32A     -0.450847    33A     -0.441759
      34A     -0.398716    35A     -0.387930    36A     -0.293426

  @DF-RHF Final Energy:  -437.53557802265431

   => Energetics <=

    Nuclear Repulsion Energy =            508.4591970305621089
    One-Electron Energy =               -1601.9590520629440107
    Two-Electron Energy =                 655.9642770097275388
    Total Energy =                       -437.5355780226543629
  Basis Set: (AUG-CC-PVTZ AUX)
    Blend: AUG-CC-PVTZ-RI
    Molecular point group: c1

    Geometry (in Angstrom), charge = 0, multiplicity = 1:

       Center              X                  Y                   Z               Mass
    ------------   -----------------  -----------------  -----------------  -----------------
         O            0.099823966198     2.083308459551    -0.206156333069    15.994914619570
         N            0.154392966198    -0.223132540449    -0.223218333069    14.003074004430
         C            1.569472966198    -0.148391540449    -0.501637333069    12.000000000000
         C            2.477308966198     0.360420459551     0.570255666931    12.000000000000
         C            2.501720966198    -1.097974540449     0.198705666931    12.000000000000
         C           -0.418882733802     1.190896059551    -0.105247533069    12.000000000000
         C           -0.483828033802    -1.436262540449    -0.204943333069    12.000000000000
         C           -1.931741033802     0.884235459551     0.199232666931    12.000000000000
         C           -1.826453033802    -1.528799540449     0.030559666931    12.000000000000
         C           -2.559116033802    -0.330975540449     0.243113666931    12.000000000000
         H            1.796806966198     0.140569459551    -1.524658333069     1.007825032230
         H            2.010544966198     0.630034459551     1.510728666931     1.007825032230
         H            3.296981966198     1.002786459551     0.268492666931     1.007825032230
         H            3.342165966198    -1.486380540449    -0.367115333069     1.007825032230
         H            2.073439966198    -1.798676540449     0.907664666931     1.007825032230
         H            0.150946966198    -2.298560540449    -0.380639333069     1.007825032230
         H           -2.472174033802     1.813697459551     0.348510666931     1.007825032230
         H           -2.305582033802    -2.501076540449     0.044894666931     1.007825032230
         H           -3.626950033802    -0.379806540449     0.445043666931     1.007825032230

  Basis Set: AUG-CC-PVTZ
    Blend: AUG-CC-PVTZ
  Basis Set: (AUG-CC-PVTZ AUX)
    Blend: AUG-CC-PVTZ-JKFIT
	 Reference Energy          =    -437.5355780226543061 [Eh]
	 Singles Energy            =      -0.0000000000000000 [Eh]
	 Same-Spin Energy          =      -0.4640083553920803 [Eh]
	 Opposite-Spin Energy      =      -1.4586463464263708 [Eh]
	 Correlation Energy        =      -1.9226547018184510 [Eh]
	 Total Energy              =    -439.4582327244727367 [Eh]

	 ================> DF-SCS-MP2 Energies <==================
	-----------------------------------------------------------
	 SCS Same-Spin Scale       =       0.3333333333333333 [-]
	 SCS Opposite-Spin Scale   =       1.2000000000000000 [-]
	 SCS Same-Spin Energy      =      -0.1546694517973601 [Eh]
	 SCS Opposite-Spin Energy  =      -1.7503756157116450 [Eh]
	 SCS Correlation Energy    =      -1.9050450675090052 [Eh]
	 SCS Total Energy          =    -439.4406230901632853 [Eh]
	-----------------------------------------------------------

  Dipole Moment: [D]
     X:     0.7158      Y:    -1.8885      Z:    -0.0564     Total:     2.0205

*** Psi4 exiting successfully. Buy a developer a beer!
