                               Psi4 1.3.2 release

  ==> Input File <==

--------------------------------------------------------------------------
#psi4
#
memory 32 gb

molecule  {
0 1
  O        0.0787650     2.1311770    -0.2164080
  N        0.1333340    -0.1752640    -0.2334700
  C        1.3524392    -0.1108739    -0.4733307
  C        2.4562500     0.4082890     0.5600040
  C        2.4806620    -1.0501060     0.1884540
  C       -0.5399690     1.0666720    -0.0960400
  C       -0.5048870    -1.3883940    -0.2151950
  C       -1.9528000     0.9321040     0.1889810
  C       -1.8475120    -1.4809310     0.0203080
  C       -2.5801750    -0.2831070     0.2328620
  H        1.7757480     0.1884380    -1.5349100
  H        1.9894860     0.6779030     1.5004770
  H        3.2759230     1.0506550     0.2582410
  H        3.3211070    -1.4385120    -0.3773670
  H        2.0523810    -1.7508080     0.8974130
  H        0.1298880    -2.2506920    -0.3908910
  H       -2.4932330     1.8615660     0.3382590
  H       -2.3266410    -2.4532080     0.0346430
  H       -3.6480090    -0.3319380     0.4347920
units angstrom
no_reorient  #important for SAPT in psi4, default
symmetry c1  #important for SAPT in psi4, default
}

set PROPERTIES_ORIGIN ["COM"]
properties('MP2/aug-cc-pvtz', properties = ['dipole'])
--------------------------------------------------------------------------

    Molecular point group: c1
  Charge       = 0
  Multiplicity = 1
  Basis Set: AUG-CC-PVTZ
    Blend: AUG-CC-PVTZ
  Basis Set: (AUG-CC-PVTZ AUX)
    Blend: AUG-CC-PVTZ-JKFIT

    Orbital Energies [Eh]
    ---------------------

    Doubly Occupied:

       1A    -20.516090     2A    -15.627506     3A    -11.355653
       4A    -11.310375     5A    -11.275368     6A    -11.275092
       7A    -11.245793     8A    -11.245641     9A    -11.242786
      10A    -11.235418    11A     -1.394797    12A     -1.317800
      13A     -1.143585    14A     -1.085169    15A     -1.033219
      16A     -0.932999    17A     -0.884086    18A     -0.820405
      19A     -0.811858    20A     -0.720129    21A     -0.708265
      22A     -0.687541    23A     -0.671452    24A     -0.644068
      25A     -0.612836    26A     -0.605726    27A     -0.568661
      28A     -0.551181    29A     -0.541660    30A     -0.523093
      31A     -0.488969    32A     -0.459611    33A     -0.429314
      34A     -0.398713    35A     -0.375987    36A     -0.312973

  @DF-RHF Final Energy:  -437.55325627498456

   => Energetics <=

    Nuclear Repulsion Energy =            511.0113916232152178
    One-Electron Energy =               -1607.0216571734890749
    Two-Electron Energy =                 658.4570092752892378
    Total Energy =                       -437.5532562749845056
  Basis Set: (AUG-CC-PVTZ AUX)
    Blend: AUG-CC-PVTZ-RI
    Molecular point group: c1

    Geometry (in Angstrom), charge = 0, multiplicity = 1:

       Center              X                  Y                   Z               Mass
    ------------   -----------------  -----------------  -----------------  -----------------
         O            0.126121936960     2.099517445327    -0.211310832036    15.994914619570
         N            0.180690936960    -0.206923554673    -0.228372832036    14.003074004430
         C            1.399796136960    -0.142533454673    -0.468233532036    12.000000000000
         C            2.503606936960     0.376629445327     0.565101167964    12.000000000000
         C            2.528018936960    -1.081765554673     0.193551167964    12.000000000000
         C           -0.492612063040     1.035012445327    -0.090942832036    12.000000000000
         C           -0.457530063040    -1.420053554673    -0.210097832036    12.000000000000
         C           -1.905443063040     0.900444445327     0.194078167964    12.000000000000
         C           -1.800155063040    -1.512590554673     0.025405167964    12.000000000000
         C           -2.532818063040    -0.314766554673     0.237959167964    12.000000000000
         H            1.823104936960     0.156778445327    -1.529812832036     1.007825032230
         H            2.036842936960     0.646243445327     1.505574167964     1.007825032230
         H            3.323279936960     1.018995445327     0.263338167964     1.007825032230
         H            3.368463936960    -1.470171554673    -0.372269832036     1.007825032230
         H            2.099737936960    -1.782467554673     0.902510167964     1.007825032230
         H            0.177244936960    -2.282351554673    -0.385793832036     1.007825032230
         H           -2.445876063040     1.829906445327     0.343356167964     1.007825032230
         H           -2.279284063040    -2.484867554673     0.039740167964     1.007825032230
         H           -3.600652063040    -0.363597554673     0.439889167964     1.007825032230

  Basis Set: AUG-CC-PVTZ
    Blend: AUG-CC-PVTZ
  Basis Set: (AUG-CC-PVTZ AUX)
    Blend: AUG-CC-PVTZ-JKFIT
	 Reference Energy          =    -437.5532562749845624 [Eh]
	 Singles Energy            =      -0.0000000000000000 [Eh]
	 Same-Spin Energy          =      -0.4710536307399351 [Eh]
	 Opposite-Spin Energy      =      -1.4703543894311832 [Eh]
	 Correlation Energy        =      -1.9414080201711184 [Eh]
	 Total Energy              =    -439.4946642951557010 [Eh]

	 ================> DF-SCS-MP2 Energies <==================
	-----------------------------------------------------------
	 SCS Same-Spin Scale       =       0.3333333333333333 [-]
	 SCS Opposite-Spin Scale   =       1.2000000000000000 [-]
	 SCS Same-Spin Energy      =      -0.1570178769133117 [Eh]
	 SCS Opposite-Spin Energy  =      -1.7644252673174199 [Eh]
	 SCS Correlation Energy    =      -1.9214431442307316 [Eh]
	 SCS Total Energy          =    -439.4746994192153124 [Eh]
	-----------------------------------------------------------

  Dipole Moment: [D]
     X:    -0.5916      Y:    -3.7104      Z:     0.3064     Total:     3.7697

*** Psi4 exiting successfully. Buy a developer a beer!
