                               Psi4 1.3.2 release

  ==> Input File <==

--------------------------------------------------------------------------
#psi4
#
memory 32 gb

molecule  {
0 1
  O        0.0787650     2.1311770    -0.2164080
  N        0.1333340    -0.1752640    -0.2334700
  C        1.5484140    -0.1005230    -0.5118890
  C        2.4562500     0.4082890     0.5600040
  C        2.4806620    -1.0501060     0.1884540
  C       -0.5399690     1.0666720    -0.0960400
  C       -0.4583318    -1.2999020    -0.2165281
  C       -1.9528000     0.9321040     0.1889810
  C       -1.8475120    -1.4809310     0.0203080
  C       -2.5801750    -0.2831070     0.2328620
  H        1.7757480     0.1884380    -1.5349100
  H        1.9894860     0.6779030     1.5004770
  H        3.2759230     1.0506550     0.2582410
  H        3.3211070    -1.4385120    -0.3773670
  H        2.0523810    -1.7508080     0.8974130
  H        0.1298880    -2.2506920    -0.3908910
  H       -2.4932330     1.8615660     0.3382590
  H       -2.3266410    -2.4532080     0.0346430
  H       -3.6480090    -0.3319380     0.4347920
units angstrom
no_reorient  #important for SAPT in psi4, default
symmetry c1  #important for SAPT in psi4, default
}

set PROPERTIES_ORIGIN ["COM"]
properties('MP2/aug-cc-pvtz', properties = ['dipole'])
--------------------------------------------------------------------------

    Molecular point group: c1
  Charge       = 0
  Multiplicity = 1
  Basis Set: AUG-CC-PVTZ
    Blend: AUG-CC-PVTZ
  Basis Set: (AUG-CC-PVTZ AUX)
    Blend: AUG-CC-PVTZ-JKFIT

    Orbital Energies [Eh]
    ---------------------

    Doubly Occupied:

       1A    -20.506961     2A    -15.638774     3A    -11.350580
       4A    -11.313142     5A    -11.286217     6A    -11.266467
       7A    -11.248203     8A    -11.239443     9A    -11.236135
      10A    -11.227842    11A     -1.382277    12A     -1.309883
      13A     -1.162084    14A     -1.095710    15A     -1.014775
      16A     -0.906834    17A     -0.879674    18A     -0.834837
      19A     -0.815963    20A     -0.734621    21A     -0.700342
      22A     -0.685459    23A     -0.660304    24A     -0.639211
      25A     -0.606562    26A     -0.596408    27A     -0.581180
      28A     -0.552480    29A     -0.532989    30A     -0.518874
      31A     -0.487339    32A     -0.456113    33A     -0.446393
      34A     -0.420506    35A     -0.406123    36A     -0.294993

  @DF-RHF Final Energy:  -437.59764092055423

   => Energetics <=

    Nuclear Repulsion Energy =            509.9793770887158644
    One-Electron Energy =               -1605.0826374436742299
    Two-Electron Energy =                 657.5056194344041387
    Total Energy =                       -437.5976409205542268
  Basis Set: (AUG-CC-PVTZ AUX)
    Blend: AUG-CC-PVTZ-RI
    Molecular point group: c1

    Geometry (in Angstrom), charge = 0, multiplicity = 1:

       Center              X                  Y                   Z               Mass
    ------------   -----------------  -----------------  -----------------  -----------------
         O            0.104574634259     2.090735860013    -0.207766725859    15.994914619570
         N            0.159143634259    -0.215705139987    -0.224828725859    14.003074004430
         C            1.574223634259    -0.140964139987    -0.503247725859    12.000000000000
         C            2.482059634259     0.367847860013     0.568645274141    12.000000000000
         C            2.506471634259    -1.090547139987     0.197095274141    12.000000000000
         C           -0.514159365741     1.026230860013    -0.087398725859    12.000000000000
         C           -0.432522165741    -1.340343139987    -0.207886825859    12.000000000000
         C           -1.926990365741     0.891662860013     0.197622274141    12.000000000000
         C           -1.821702365741    -1.521372139987     0.028949274141    12.000000000000
         C           -2.554365365741    -0.323548139987     0.241503274141    12.000000000000
         H            1.801557634259     0.147996860013    -1.526268725859     1.007825032230
         H            2.015295634259     0.637461860013     1.509118274141     1.007825032230
         H            3.301732634259     1.010213860013     0.266882274141     1.007825032230
         H            3.346916634259    -1.478953139987    -0.368725725859     1.007825032230
         H            2.078190634259    -1.791249139987     0.906054274141     1.007825032230
         H            0.155697634259    -2.291133139987    -0.382249725859     1.007825032230
         H           -2.467423365741     1.821124860013     0.346900274141     1.007825032230
         H           -2.300831365741    -2.493649139987     0.043284274141     1.007825032230
         H           -3.622199365741    -0.372379139987     0.443433274141     1.007825032230

  Basis Set: AUG-CC-PVTZ
    Blend: AUG-CC-PVTZ
  Basis Set: (AUG-CC-PVTZ AUX)
    Blend: AUG-CC-PVTZ-JKFIT
	 Reference Energy          =    -437.5976409205542268 [Eh]
	 Singles Energy            =      -0.0000000000000000 [Eh]
	 Same-Spin Energy          =      -0.4689155546734476 [Eh]
	 Opposite-Spin Energy      =      -1.4645476057816147 [Eh]
	 Correlation Energy        =      -1.9334631604550623 [Eh]
	 Total Energy              =    -439.5311040810092891 [Eh]

	 ================> DF-SCS-MP2 Energies <==================
	-----------------------------------------------------------
	 SCS Same-Spin Scale       =       0.3333333333333333 [-]
	 SCS Opposite-Spin Scale   =       1.2000000000000000 [-]
	 SCS Same-Spin Energy      =      -0.1563051848911492 [Eh]
	 SCS Opposite-Spin Energy  =      -1.7574571269379375 [Eh]
	 SCS Correlation Energy    =      -1.9137623118290867 [Eh]
	 SCS Total Energy          =    -439.5114032323833158 [Eh]
	-----------------------------------------------------------

  Dipole Moment: [D]
     X:     0.3883      Y:    -3.7484      Z:     0.1257     Total:     3.7705

*** Psi4 exiting successfully. Buy a developer a beer!
