                               Psi4 1.3.2 release

  ==> Input File <==

--------------------------------------------------------------------------
#psi4
#
memory 32 gb

molecule  {
0 1
  O        0.0787650     2.1311770    -0.2164080
  N        0.1530891    -0.1389127    -0.1415519
  C        1.5484140    -0.1005230    -0.5118890
  C        2.4562500     0.4082890     0.5600040
  C        2.4806620    -1.0501060     0.1884540
  C       -0.5399690     1.0666720    -0.0960400
  C       -0.5048870    -1.3883940    -0.2151950
  C       -1.9528000     0.9321040     0.1889810
  C       -1.8475120    -1.4809310     0.0203080
  C       -2.5801750    -0.2831070     0.2328620
  H        1.7757480     0.1884380    -1.5349100
  H        1.9894860     0.6779030     1.5004770
  H        3.2759230     1.0506550     0.2582410
  H        3.3211070    -1.4385120    -0.3773670
  H        2.0523810    -1.7508080     0.8974130
  H        0.1298880    -2.2506920    -0.3908910
  H       -2.4932330     1.8615660     0.3382590
  H       -2.3266410    -2.4532080     0.0346430
  H       -3.6480090    -0.3319380     0.4347920
units angstrom
no_reorient  #important for SAPT in psi4, default
symmetry c1  #important for SAPT in psi4, default
}

set PROPERTIES_ORIGIN ["COM"]
properties('MP2/aug-cc-pvtz', properties = ['dipole'])
--------------------------------------------------------------------------

    Molecular point group: c1
  Charge       = 0
  Multiplicity = 1
  Basis Set: AUG-CC-PVTZ
    Blend: AUG-CC-PVTZ
  Basis Set: (AUG-CC-PVTZ AUX)
    Blend: AUG-CC-PVTZ-JKFIT

    Orbital Energies [Eh]
    ---------------------

    Doubly Occupied:

       1A    -20.504376     2A    -15.625088     3A    -11.346652
       4A    -11.308654     5A    -11.277688     6A    -11.271262
       7A    -11.243971     8A    -11.241996     9A    -11.239831
      10A    -11.230544    11A     -1.370755    12A     -1.275657
      13A     -1.154927    14A     -1.095902    15A     -1.025631
      16A     -0.900196    17A     -0.868229    18A     -0.828857
      19A     -0.805819    20A     -0.725767    21A     -0.700235
      22A     -0.680596    23A     -0.661651    24A     -0.640285
      25A     -0.606678    26A     -0.591074    27A     -0.578095
      28A     -0.545735    29A     -0.537648    30A     -0.523740
      31A     -0.476198    32A     -0.452321    33A     -0.438756
      34A     -0.421394    35A     -0.397505    36A     -0.313375

  @DF-RHF Final Energy:  -437.60682977056632

   => Energetics <=

    Nuclear Repulsion Energy =            508.4053056297423723
    One-Electron Energy =               -1602.2100962522561076
    Two-Electron Energy =                 656.1979608519475278
    Total Energy =                       -437.6068297705662644
  Basis Set: (AUG-CC-PVTZ AUX)
    Blend: AUG-CC-PVTZ-RI
    Molecular point group: c1

    Geometry (in Angstrom), charge = 0, multiplicity = 1:

       Center              X                  Y                   Z               Mass
    ------------   -----------------  -----------------  -----------------  -----------------
         O            0.106662689227     2.094829149036    -0.217414674768    15.994914619570
         N            0.180986789227    -0.175260550964    -0.142558574768    14.003074004430
         C            1.576311689227    -0.136870850964    -0.512895674768    12.000000000000
         C            2.484147689227     0.371941149036     0.558997325232    12.000000000000
         C            2.508559689227    -1.086453850964     0.187447325232    12.000000000000
         C           -0.512071310773     1.030324149036    -0.097046674768    12.000000000000
         C           -0.476989310773    -1.424741850964    -0.216201674768    12.000000000000
         C           -1.924902310773     0.895756149036     0.187974325232    12.000000000000
         C           -1.819614310773    -1.517278850964     0.019301325232    12.000000000000
         C           -2.552277310773    -0.319454850964     0.231855325232    12.000000000000
         H            1.803645689227     0.152090149036    -1.535916674768     1.007825032230
         H            2.017383689227     0.641555149036     1.499470325232     1.007825032230
         H            3.303820689227     1.014307149036     0.257234325232     1.007825032230
         H            3.349004689227    -1.474859850964    -0.378373674768     1.007825032230
         H            2.080278689227    -1.787155850964     0.896406325232     1.007825032230
         H            0.157785689227    -2.287039850964    -0.391897674768     1.007825032230
         H           -2.465335310773     1.825218149036     0.337252325232     1.007825032230
         H           -2.298743310773    -2.489555850964     0.033636325232     1.007825032230
         H           -3.620111310773    -0.368285850964     0.433785325232     1.007825032230

  Basis Set: AUG-CC-PVTZ
    Blend: AUG-CC-PVTZ
  Basis Set: (AUG-CC-PVTZ AUX)
    Blend: AUG-CC-PVTZ-JKFIT
	 Reference Energy          =    -437.6068297705663213 [Eh]
	 Singles Energy            =      -0.0000000000000000 [Eh]
	 Same-Spin Energy          =      -0.4672911481788067 [Eh]
	 Opposite-Spin Energy      =      -1.4649651764011120 [Eh]
	 Correlation Energy        =      -1.9322563245799187 [Eh]
	 Total Energy              =    -439.5390860951462173 [Eh]

	 ================> DF-SCS-MP2 Energies <==================
	-----------------------------------------------------------
	 SCS Same-Spin Scale       =       0.3333333333333333 [-]
	 SCS Opposite-Spin Scale   =       1.2000000000000000 [-]
	 SCS Same-Spin Energy      =      -0.1557637160596022 [Eh]
	 SCS Opposite-Spin Energy  =      -1.7579582116813344 [Eh]
	 SCS Correlation Energy    =      -1.9137219277409365 [Eh]
	 SCS Total Energy          =    -439.5205516983072584 [Eh]
	-----------------------------------------------------------

  Dipole Moment: [D]
     X:    -0.2043      Y:    -3.8801      Z:     0.1086     Total:     3.8870

*** Psi4 exiting successfully. Buy a developer a beer!
