                               Psi4 1.3.2 release

  ==> Input File <==

--------------------------------------------------------------------------
#psi4
#
memory 32 gb

molecule  {
0 1
  O        0.0787650     2.1311770    -0.2164080
  N        0.1712161    -0.2152266    -0.0926946
  C        1.5484140    -0.1005230    -0.5118890
  C        2.4562500     0.4082890     0.5600040
  C        2.4806620    -1.0501060     0.1884540
  C       -0.5399690     1.0666720    -0.0960400
  C       -0.5048870    -1.3883940    -0.2151950
  C       -1.9528000     0.9321040     0.1889810
  C       -1.8475120    -1.4809310     0.0203080
  C       -2.5801750    -0.2831070     0.2328620
  H        1.7757480     0.1884380    -1.5349100
  H        1.9894860     0.6779030     1.5004770
  H        3.2759230     1.0506550     0.2582410
  H        3.3211070    -1.4385120    -0.3773670
  H        2.0523810    -1.7508080     0.8974130
  H        0.1298880    -2.2506920    -0.3908910
  H       -2.4932330     1.8615660     0.3382590
  H       -2.3266410    -2.4532080     0.0346430
  H       -3.6480090    -0.3319380     0.4347920
units angstrom
no_reorient  #important for SAPT in psi4, default
symmetry c1  #important for SAPT in psi4, default
}

set PROPERTIES_ORIGIN ["COM"]
properties('MP2/aug-cc-pvtz', properties = ['dipole'])
--------------------------------------------------------------------------

    Molecular point group: c1
  Charge       = 0
  Multiplicity = 1
  Basis Set: AUG-CC-PVTZ
    Blend: AUG-CC-PVTZ
  Basis Set: (AUG-CC-PVTZ AUX)
    Blend: AUG-CC-PVTZ-JKFIT

    Orbital Energies [Eh]
    ---------------------

    Doubly Occupied:

       1A    -20.516567     2A    -15.626148     3A    -11.356288
       4A    -11.305524     5A    -11.278582     6A    -11.272020
       7A    -11.239787     8A    -11.237528     9A    -11.236796
      10A    -11.231475    11A     -1.370618    12A     -1.285379
      13A     -1.155554    14A     -1.093820    15A     -1.021491
      16A     -0.898791    17A     -0.862700    18A     -0.825176
      19A     -0.811430    20A     -0.729951    21A     -0.693951
      22A     -0.683442    23A     -0.658259    24A     -0.640841
      25A     -0.607935    26A     -0.587117    27A     -0.579520
      28A     -0.551884    29A     -0.534728    30A     -0.524329
      31A     -0.486433    32A     -0.450963    33A     -0.438601
      34A     -0.423538    35A     -0.400270    36A     -0.308297

  @DF-RHF Final Energy:  -437.60175453727311

   => Energetics <=

    Nuclear Repulsion Energy =            508.0091765041563576
    One-Electron Energy =               -1601.3703989105424625
    Two-Electron Energy =                 655.7594678691129957
    Total Energy =                       -437.6017545372731092
  Basis Set: (AUG-CC-PVTZ AUX)
    Blend: AUG-CC-PVTZ-RI
    Molecular point group: c1

    Geometry (in Angstrom), charge = 0, multiplicity = 1:

       Center              X                  Y                   Z               Mass
    ------------   -----------------  -----------------  -----------------  -----------------
         O            0.104783391802     2.102740911366    -0.222479903327    15.994914619570
         N            0.197234491802    -0.243662688634    -0.098766503327    14.003074004430
         C            1.574432391802    -0.128959088634    -0.517960903327    12.000000000000
         C            2.482268391802     0.379852911366     0.553932096673    12.000000000000
         C            2.506680391802    -1.078542088634     0.182382096673    12.000000000000
         C           -0.513950608198     1.038235911366    -0.102111903327    12.000000000000
         C           -0.478868608198    -1.416830088634    -0.221266903327    12.000000000000
         C           -1.926781608198     0.903667911366     0.182909096673    12.000000000000
         C           -1.821493608198    -1.509367088634     0.014236096673    12.000000000000
         C           -2.554156608198    -0.311543088634     0.226790096673    12.000000000000
         H            1.801766391802     0.160001911366    -1.540981903327     1.007825032230
         H            2.015504391802     0.649466911366     1.494405096673     1.007825032230
         H            3.301941391802     1.022218911366     0.252169096673     1.007825032230
         H            3.347125391802    -1.466948088634    -0.383438903327     1.007825032230
         H            2.078399391802    -1.779244088634     0.891341096673     1.007825032230
         H            0.155906391802    -2.279128088634    -0.396962903327     1.007825032230
         H           -2.467214608198     1.833129911366     0.332187096673     1.007825032230
         H           -2.300622608198    -2.481644088634     0.028571096673     1.007825032230
         H           -3.621990608198    -0.360374088634     0.428720096673     1.007825032230

  Basis Set: AUG-CC-PVTZ
    Blend: AUG-CC-PVTZ
  Basis Set: (AUG-CC-PVTZ AUX)
    Blend: AUG-CC-PVTZ-JKFIT
	 Reference Energy          =    -437.6017545372731092 [Eh]
	 Singles Energy            =      -0.0000000000000000 [Eh]
	 Same-Spin Energy          =      -0.4684073639785891 [Eh]
	 Opposite-Spin Energy      =      -1.4662125615171697 [Eh]
	 Correlation Energy        =      -1.9346199254957588 [Eh]
	 Total Energy              =    -439.5363744627688902 [Eh]

	 ================> DF-SCS-MP2 Energies <==================
	-----------------------------------------------------------
	 SCS Same-Spin Scale       =       0.3333333333333333 [-]
	 SCS Opposite-Spin Scale   =       1.2000000000000000 [-]
	 SCS Same-Spin Energy      =      -0.1561357879928630 [Eh]
	 SCS Opposite-Spin Energy  =      -1.7594550738206036 [Eh]
	 SCS Correlation Energy    =      -1.9155908618134667 [Eh]
	 SCS Total Energy          =    -439.5173453990865937 [Eh]
	-----------------------------------------------------------

  Dipole Moment: [D]
     X:    -0.1165      Y:    -3.5299      Z:     0.0445     Total:     3.5321

*** Psi4 exiting successfully. Buy a developer a beer!
