                               Psi4 1.3.2 release

  ==> Input File <==

--------------------------------------------------------------------------
#psi4
#
memory 32 gb

molecule  {
0 1
  O        0.0787650     2.1311770    -0.2164080
  N        0.1442558    -0.1886977    -0.1861289
  C        1.5484140    -0.1005230    -0.5118890
  C        2.4562500     0.4082890     0.5600040
  C        2.4806620    -1.0501060     0.1884540
  C       -0.5399690     1.0666720    -0.0960400
  C       -0.5048870    -1.3883940    -0.2151950
  C       -1.9528000     0.9321040     0.1889810
  C       -1.8475120    -1.4809310     0.0203080
  C       -2.5801750    -0.2831070     0.2328620
  H        1.7757480     0.1884380    -1.5349100
  H        1.9894860     0.6779030     1.5004770
  H        3.2759230     1.0506550     0.2582410
  H        3.3211070    -1.4385120    -0.3773670
  H        2.0523810    -1.7508080     0.8974130
  H        0.1298880    -2.2506920    -0.3908910
  H       -2.4932330     1.8615660     0.3382590
  H       -2.3266410    -2.4532080     0.0346430
  H       -3.6480090    -0.3319380     0.4347920
units angstrom
no_reorient  #important for SAPT in psi4, default
symmetry c1  #important for SAPT in psi4, default
}

set PROPERTIES_ORIGIN ["COM"]
properties('MP2/aug-cc-pvtz', properties = ['dipole'])
--------------------------------------------------------------------------

    Molecular point group: c1
  Charge       = 0
  Multiplicity = 1
  Basis Set: AUG-CC-PVTZ
    Blend: AUG-CC-PVTZ
  Basis Set: (AUG-CC-PVTZ AUX)
    Blend: AUG-CC-PVTZ-JKFIT

    Orbital Energies [Eh]
    ---------------------

    Doubly Occupied:

       1A    -20.509853     2A    -15.627266     3A    -11.351862
       4A    -11.306558     5A    -11.279339     6A    -11.270718
       7A    -11.242280     8A    -11.238473     9A    -11.236650
      10A    -11.233411    11A     -1.370202    12A     -1.284547
      13A     -1.156175    14A     -1.095131    15A     -1.023816
      16A     -0.900851    17A     -0.867426    18A     -0.828397
      19A     -0.811362    20A     -0.727504    21A     -0.696844
      22A     -0.682446    23A     -0.662031    24A     -0.640574
      25A     -0.606745    26A     -0.592161    27A     -0.578212
      28A     -0.548148    29A     -0.535075    30A     -0.525816
      31A     -0.482614    32A     -0.454027    33A     -0.439688
      34A     -0.421687    35A     -0.399958    36A     -0.308377

  @DF-RHF Final Energy:  -437.60942316852777

   => Energetics <=

    Nuclear Repulsion Energy =            508.2190185216576879
    One-Electron Energy =               -1601.7844396994139515
    Two-Electron Energy =                 655.9559980092284377
    Total Energy =                       -437.6094231685277691
  Basis Set: (AUG-CC-PVTZ AUX)
    Blend: AUG-CC-PVTZ-RI
    Molecular point group: c1

    Geometry (in Angstrom), charge = 0, multiplicity = 1:

       Center              X                  Y                   Z               Mass
    ------------   -----------------  -----------------  -----------------  -----------------
         O            0.107578472200     2.099990555904    -0.212793201755    15.994914619570
         N            0.173069272200    -0.219884144096    -0.182514101755    14.003074004430
         C            1.577227472200    -0.131709444096    -0.508274201755    12.000000000000
         C            2.485063472200     0.377102555904     0.563618798245    12.000000000000
         C            2.509475472200    -1.081292444096     0.192068798245    12.000000000000
         C           -0.511155527800     1.035485555904    -0.092425201755    12.000000000000
         C           -0.476073527800    -1.419580444096    -0.211580201755    12.000000000000
         C           -1.923986527800     0.900917555904     0.192595798245    12.000000000000
         C           -1.818698527800    -1.512117444096     0.023922798245    12.000000000000
         C           -2.551361527800    -0.314293444096     0.236476798245    12.000000000000
         H            1.804561472200     0.157251555904    -1.531295201755     1.007825032230
         H            2.018299472200     0.646716555904     1.504091798245     1.007825032230
         H            3.304736472200     1.019468555904     0.261855798245     1.007825032230
         H            3.349920472200    -1.469698444096    -0.373752201755     1.007825032230
         H            2.081194472200    -1.781994444096     0.901027798245     1.007825032230
         H            0.158701472200    -2.281878444096    -0.387276201755     1.007825032230
         H           -2.464419527800     1.830379555904     0.341873798245     1.007825032230
         H           -2.297827527800    -2.484394444096     0.038257798245     1.007825032230
         H           -3.619195527800    -0.363124444096     0.438406798245     1.007825032230

  Basis Set: AUG-CC-PVTZ
    Blend: AUG-CC-PVTZ
  Basis Set: (AUG-CC-PVTZ AUX)
    Blend: AUG-CC-PVTZ-JKFIT
	 Reference Energy          =    -437.6094231685277691 [Eh]
	 Singles Energy            =      -0.0000000000000000 [Eh]
	 Same-Spin Energy          =      -0.4679448129224762 [Eh]
	 Opposite-Spin Energy      =      -1.4649591241110040 [Eh]
	 Correlation Energy        =      -1.9329039370334802 [Eh]
	 Total Energy              =    -439.5423271055612418 [Eh]

	 ================> DF-SCS-MP2 Energies <==================
	-----------------------------------------------------------
	 SCS Same-Spin Scale       =       0.3333333333333333 [-]
	 SCS Opposite-Spin Scale   =       1.2000000000000000 [-]
	 SCS Same-Spin Energy      =      -0.1559816043074921 [Eh]
	 SCS Opposite-Spin Energy  =      -1.7579509489332048 [Eh]
	 SCS Correlation Energy    =      -1.9139325532406968 [Eh]
	 SCS Total Energy          =    -439.5233557217684393 [Eh]
	-----------------------------------------------------------

  Dipole Moment: [D]
     X:    -0.0267      Y:    -3.7197      Z:     0.1192     Total:     3.7217

*** Psi4 exiting successfully. Buy a developer a beer!
