                               Psi4 1.3.2 release

  ==> Input File <==

--------------------------------------------------------------------------
#psi4
#
memory 32 gb

molecule  {
0 1
  O        0.0787650     2.1311770    -0.2164080
  N        0.1333340    -0.1752640    -0.2334700
  C        1.5483325    -0.2009098    -0.5210051
  C        2.4562500     0.4082890     0.5600040
  C        2.4806620    -1.0501060     0.1884540
  C       -0.5399690     1.0666720    -0.0960400
  C       -0.5048870    -1.3883940    -0.2151950
  C       -1.9528000     0.9321040     0.1889810
  C       -1.8475120    -1.4809310     0.0203080
  C       -2.5801750    -0.2831070     0.2328620
  H        1.7757480     0.1884380    -1.5349100
  H        1.9894860     0.6779030     1.5004770
  H        3.2759230     1.0506550     0.2582410
  H        3.3211070    -1.4385120    -0.3773670
  H        2.0523810    -1.7508080     0.8974130
  H        0.1298880    -2.2506920    -0.3908910
  H       -2.4932330     1.8615660     0.3382590
  H       -2.3266410    -2.4532080     0.0346430
  H       -3.6480090    -0.3319380     0.4347920
units angstrom
no_reorient  #important for SAPT in psi4, default
symmetry c1  #important for SAPT in psi4, default
}

set PROPERTIES_ORIGIN ["COM"]
properties('MP2/aug-cc-pvtz', properties = ['dipole'])
--------------------------------------------------------------------------

    Molecular point group: c1
  Charge       = 0
  Multiplicity = 1
  Basis Set: AUG-CC-PVTZ
    Blend: AUG-CC-PVTZ
  Basis Set: (AUG-CC-PVTZ AUX)
    Blend: AUG-CC-PVTZ-JKFIT

    Orbital Energies [Eh]
    ---------------------

    Doubly Occupied:

       1A    -20.506994     2A    -15.628046     3A    -11.351410
       4A    -11.306005     5A    -11.280934     6A    -11.270525
       7A    -11.245914     8A    -11.238834     9A    -11.237570
      10A    -11.232416    11A     -1.369238    12A     -1.284760
      13A     -1.159030    14A     -1.096928    15A     -1.024446
      16A     -0.899945    17A     -0.872269    18A     -0.830148
      19A     -0.808861    20A     -0.724048    21A     -0.698643
      22A     -0.681896    23A     -0.665564    24A     -0.641290
      25A     -0.606160    26A     -0.594574    27A     -0.574830
      28A     -0.543206    29A     -0.534634    30A     -0.526986
      31A     -0.480213    32A     -0.470153    33A     -0.438355
      34A     -0.420739    35A     -0.389179    36A     -0.308352

  @DF-RHF Final Energy:  -437.60385940967825

   => Energetics <=

    Nuclear Repulsion Energy =            508.0646539676110933
    One-Electron Energy =               -1601.4508388161382300
    Two-Electron Energy =                 655.7823254388488294
    Total Energy =                       -437.6038594096783072
  Basis Set: (AUG-CC-PVTZ AUX)
    Blend: AUG-CC-PVTZ-RI
    Molecular point group: c1

    Geometry (in Angstrom), charge = 0, multiplicity = 1:

       Center              X                  Y                   Z               Mass
    ------------   -----------------  -----------------  -----------------  -----------------
         O            0.108718018961     2.107516582718    -0.207075254054    15.994914619570
         N            0.163287018961    -0.198924417282    -0.224137254054    14.003074004430
         C            1.578285518961    -0.224570217282    -0.511672354054    12.000000000000
         C            2.486203018961     0.384628582718     0.569336745946    12.000000000000
         C            2.510615018961    -1.073766417282     0.197786745946    12.000000000000
         C           -0.510015981039     1.043011582718    -0.086707254054    12.000000000000
         C           -0.474933981039    -1.412054417282    -0.205862254054    12.000000000000
         C           -1.922846981039     0.908443582718     0.198313745946    12.000000000000
         C           -1.817558981039    -1.504591417282     0.029640745946    12.000000000000
         C           -2.550221981039    -0.306767417282     0.242194745946    12.000000000000
         H            1.805701018961     0.164777582718    -1.525577254054     1.007825032230
         H            2.019439018961     0.654242582718     1.509809745946     1.007825032230
         H            3.305876018961     1.026994582718     0.267573745946     1.007825032230
         H            3.351060018961    -1.462172417282    -0.368034254054     1.007825032230
         H            2.082334018961    -1.774468417282     0.906745745946     1.007825032230
         H            0.159841018961    -2.274352417282    -0.381558254054     1.007825032230
         H           -2.463279981039     1.837905582718     0.347591745946     1.007825032230
         H           -2.296687981039    -2.476868417282     0.043975745946     1.007825032230
         H           -3.618055981039    -0.355598417282     0.444124745946     1.007825032230

  Basis Set: AUG-CC-PVTZ
    Blend: AUG-CC-PVTZ
  Basis Set: (AUG-CC-PVTZ AUX)
    Blend: AUG-CC-PVTZ-JKFIT
	 Reference Energy          =    -437.6038594096782504 [Eh]
	 Singles Energy            =      -0.0000000000000000 [Eh]
	 Same-Spin Energy          =      -0.4682235800847224 [Eh]
	 Opposite-Spin Energy      =      -1.4654155438104182 [Eh]
	 Correlation Energy        =      -1.9336391238951405 [Eh]
	 Total Energy              =    -439.5374985335733982 [Eh]

	 ================> DF-SCS-MP2 Energies <==================
	-----------------------------------------------------------
	 SCS Same-Spin Scale       =       0.3333333333333333 [-]
	 SCS Opposite-Spin Scale   =       1.2000000000000000 [-]
	 SCS Same-Spin Energy      =      -0.1560745266949075 [Eh]
	 SCS Opposite-Spin Energy  =      -1.7584986525725017 [Eh]
	 SCS Correlation Energy    =      -1.9145731792674092 [Eh]
	 SCS Total Energy          =    -439.5184325889456431 [Eh]
	-----------------------------------------------------------

  Dipole Moment: [D]
     X:     0.0024      Y:    -3.8651      Z:     0.1495     Total:     3.8680

*** Psi4 exiting successfully. Buy a developer a beer!
