                               Psi4 1.3.2 release

  ==> Input File <==

--------------------------------------------------------------------------
#psi4
#
memory 32 gb

molecule  {
0 1
  O        0.0787650     2.1311770    -0.2164080
  N        0.1333340    -0.1752640    -0.2334700
  C        1.5484140    -0.1005230    -0.5118890
  C        2.4562500     0.4082890     0.5600040
  C        2.4806620    -1.0501060     0.1884540
  C       -0.6348421     1.2416694    -0.0766752
  C       -0.5048870    -1.3883940    -0.2151950
  C       -1.9528000     0.9321040     0.1889810
  C       -1.8475120    -1.4809310     0.0203080
  C       -2.5801750    -0.2831070     0.2328620
  H        1.7757480     0.1884380    -1.5349100
  H        1.9894860     0.6779030     1.5004770
  H        3.2759230     1.0506550     0.2582410
  H        3.3211070    -1.4385120    -0.3773670
  H        2.0523810    -1.7508080     0.8974130
  H        0.1298880    -2.2506920    -0.3908910
  H       -2.4932330     1.8615660     0.3382590
  H       -2.3266410    -2.4532080     0.0346430
  H       -3.6480090    -0.3319380     0.4347920
units angstrom
no_reorient  #important for SAPT in psi4, default
symmetry c1  #important for SAPT in psi4, default
}

set PROPERTIES_ORIGIN ["COM"]
properties('MP2/aug-cc-pvtz', properties = ['dipole'])
--------------------------------------------------------------------------

    Molecular point group: c1
  Charge       = 0
  Multiplicity = 1
  Basis Set: AUG-CC-PVTZ
    Blend: AUG-CC-PVTZ
  Basis Set: (AUG-CC-PVTZ AUX)
    Blend: AUG-CC-PVTZ-JKFIT

    Orbital Energies [Eh]
    ---------------------

    Doubly Occupied:

       1A    -20.537741     2A    -15.599488     3A    -11.358564
       4A    -11.302344     5A    -11.279588     6A    -11.269732
       7A    -11.236607     8A    -11.228697     9A    -11.226697
      10A    -11.226002    11A     -1.433755    12A     -1.259352
      13A     -1.147684    14A     -1.088603    15A     -1.022307
      16A     -0.904581    17A     -0.843577    18A     -0.814968
      19A     -0.806016    20A     -0.717778    21A     -0.690979
      22A     -0.685557    23A     -0.667197    24A     -0.630336
      25A     -0.628898    26A     -0.597364    27A     -0.580014
      28A     -0.548158    29A     -0.534305    30A     -0.521757
      31A     -0.505112    32A     -0.452922    33A     -0.441697
      34A     -0.408212    35A     -0.390117    36A     -0.303461

  @DF-RHF Final Energy:  -437.57872510204351

   => Energetics <=

    Nuclear Repulsion Energy =            506.5288068174504019
    One-Electron Energy =               -1598.4347262044461786
    Two-Electron Energy =                 654.3271942849522702
    Total Energy =                       -437.5787251020434496
  Basis Set: (AUG-CC-PVTZ AUX)
    Blend: AUG-CC-PVTZ-RI
    Molecular point group: c1

    Geometry (in Angstrom), charge = 0, multiplicity = 1:

       Center              X                  Y                   Z               Mass
    ------------   -----------------  -----------------  -----------------  -----------------
         O            0.117139671123     2.083050385890    -0.209605607303    15.994914619570
         N            0.171708671123    -0.223390614110    -0.226667607303    14.003074004430
         C            1.586788671123    -0.148649614110    -0.505086607303    12.000000000000
         C            2.494624671123     0.360162385890     0.566806392697    12.000000000000
         C            2.519036671123    -1.098232614110     0.195256392697    12.000000000000
         C           -0.596467428877     1.193542785890    -0.069872807303    12.000000000000
         C           -0.466512328877    -1.436520614110    -0.208392607303    12.000000000000
         C           -1.914425328877     0.883977385890     0.195783392697    12.000000000000
         C           -1.809137328877    -1.529057614110     0.027110392697    12.000000000000
         C           -2.541800328877    -0.331233614110     0.239664392697    12.000000000000
         H            1.814122671123     0.140311385890    -1.528107607303     1.007825032230
         H            2.027860671123     0.629776385890     1.507279392697     1.007825032230
         H            3.314297671123     1.002528385890     0.265043392697     1.007825032230
         H            3.359481671123    -1.486638614110    -0.370564607303     1.007825032230
         H            2.090755671123    -1.798934614110     0.904215392697     1.007825032230
         H            0.168262671123    -2.298818614110    -0.384088607303     1.007825032230
         H           -2.454858328877     1.813439385890     0.345061392697     1.007825032230
         H           -2.288266328877    -2.501334614110     0.041445392697     1.007825032230
         H           -3.609634328877    -0.380064614110     0.441594392697     1.007825032230

  Basis Set: AUG-CC-PVTZ
    Blend: AUG-CC-PVTZ
  Basis Set: (AUG-CC-PVTZ AUX)
    Blend: AUG-CC-PVTZ-JKFIT
	 Reference Energy          =    -437.5787251020435065 [Eh]
	 Singles Energy            =      -0.0000000000000000 [Eh]
	 Same-Spin Energy          =      -0.4696914345256927 [Eh]
	 Opposite-Spin Energy      =      -1.4658465220294574 [Eh]
	 Correlation Energy        =      -1.9355379565551503 [Eh]
	 Total Energy              =    -439.5142630585986581 [Eh]

	 ================> DF-SCS-MP2 Energies <==================
	-----------------------------------------------------------
	 SCS Same-Spin Scale       =       0.3333333333333333 [-]
	 SCS Opposite-Spin Scale   =       1.2000000000000000 [-]
	 SCS Same-Spin Energy      =      -0.1565638115085642 [Eh]
	 SCS Opposite-Spin Energy  =      -1.7590158264353488 [Eh]
	 SCS Correlation Energy    =      -1.9155796379439129 [Eh]
	 SCS Total Energy          =    -439.4943047399873990 [Eh]
	-----------------------------------------------------------

  Dipole Moment: [D]
     X:     0.0237      Y:    -2.6915      Z:     0.0901     Total:     2.6931

*** Psi4 exiting successfully. Buy a developer a beer!
