                               Psi4 1.4a3.dev225

  ==> Input File <==

--------------------------------------------------------------------------
#psi4
#
memory 32 gb

molecule  {
0 1
  O        0.0787650     2.1311770    -0.2164080
  N        0.1333340    -0.1752640    -0.2334700
  C        1.5484140    -0.1005230    -0.5118890
  C        2.4562500     0.4082890     0.5600040
  C        2.4806620    -1.0501060     0.1884540
  C       -0.5499717     1.0494627    -0.0940941
  C       -0.5048870    -1.3883940    -0.2151950
  C       -1.9528000     0.9321040     0.1889810
  C       -1.8475120    -1.4809310     0.0203080
  C       -2.5801750    -0.2831070     0.2328620
  H        1.7757480     0.1884380    -1.5349100
  H        1.9894860     0.6779030     1.5004770
  H        3.2759230     1.0506550     0.2582410
  H        3.3211070    -1.4385120    -0.3773670
  H        2.0523810    -1.7508080     0.8974130
  H        0.1298880    -2.2506920    -0.3908910
  H       -2.4932330     1.8615660     0.3382590
  H       -2.3266410    -2.4532080     0.0346430
  H       -3.6480090    -0.3319380     0.4347920
units angstrom
no_reorient  #important for SAPT in psi4, default
symmetry c1  #important for SAPT in psi4, default
}

set PROPERTIES_ORIGIN ["COM"]
properties('MP2/aug-cc-pvtz', properties = ['dipole'])
--------------------------------------------------------------------------

    Molecular point group: c1
  Charge       = 0
  Multiplicity = 1
  Basis Set: AUG-CC-PVTZ
    Blend: AUG-CC-PVTZ
  Basis Set: (AUG-CC-PVTZ AUX)
    Blend: AUG-CC-PVTZ-JKFIT

    Orbital Energies [Eh]
    ---------------------

    Doubly Occupied:

       1A    -20.502130     2A    -15.630031     3A    -11.348914
       4A    -11.308376     5A    -11.280129     6A    -11.271903
       7A    -11.243677     8A    -11.241244     9A    -11.237454
      10A    -11.234206    11A     -1.361351    12A     -1.279465
      13A     -1.157389    14A     -1.097921    15A     -1.026914
      16A     -0.903841    17A     -0.871123    18A     -0.830259
      19A     -0.812234    20A     -0.726999    21A     -0.698734
      22A     -0.682584    23A     -0.664061    24A     -0.641970
      25A     -0.602288    26A     -0.593966    27A     -0.576405
      28A     -0.544522    29A     -0.535966    30A     -0.526267
      31A     -0.474290    32A     -0.455819    33A     -0.440660
      34A     -0.418619    35A     -0.400282    36A     -0.309860

  @DF-RHF Final Energy:  -437.60894181234278

   => Energetics <=

    Nuclear Repulsion Energy =            508.2550954504616811
    One-Electron Energy =               -1601.8643686491247990
    Two-Electron Energy =                 656.0003313863204539
    Total Energy =                       -437.6089418123427777
  Basis Set: (AUG-CC-PVTZ AUX)
    Blend: AUG-CC-PVTZ-RI
    Molecular point group: c1

    Geometry (in Angstrom), charge = 0, multiplicity = 1:

       Center              X                  Y                   Z               Mass
    ------------   -----------------  -----------------  -----------------  -----------------
         O            0.109599456720     2.100126772095    -0.208058044894    15.994914619570
         N            0.164168456720    -0.206314227905    -0.225120044894    14.003074004430
         C            1.579248456720    -0.131573227905    -0.503539044894    12.000000000000
         C            2.487084456720     0.377238772095     0.568353955106    12.000000000000
         C            2.511496456720    -1.081156227905     0.196803955106    12.000000000000
         C           -0.519137243280     1.018412472095    -0.085744144894    12.000000000000
         C           -0.474052543280    -1.419444227905    -0.206845044894    12.000000000000
         C           -1.921965543280     0.901053772095     0.197330955106    12.000000000000
         C           -1.816677543280    -1.511981227905     0.028657955106    12.000000000000
         C           -2.549340543280    -0.314157227905     0.241211955106    12.000000000000
         H            1.806582456720     0.157387772095    -1.526560044894     1.007825032230
         H            2.020320456720     0.646852772095     1.508826955106     1.007825032230
         H            3.306757456720     1.019604772095     0.266590955106     1.007825032230
         H            3.351941456720    -1.469562227905    -0.369017044894     1.007825032230
         H            2.083215456720    -1.781858227905     0.905762955106     1.007825032230
         H            0.160722456720    -2.281742227905    -0.382541044894     1.007825032230
         H           -2.462398543280     1.830515772095     0.346608955106     1.007825032230
         H           -2.295806543280    -2.484258227905     0.042992955106     1.007825032230
         H           -3.617174543280    -0.362988227905     0.443141955106     1.007825032230

  Basis Set: AUG-CC-PVTZ
    Blend: AUG-CC-PVTZ
  Basis Set: (AUG-CC-PVTZ AUX)
    Blend: AUG-CC-PVTZ-JKFIT
	 Reference Energy          =    -437.6089418123427777 [Eh]
	 Singles Energy            =      -0.0000000000000000 [Eh]
	 Same-Spin Energy          =      -0.4681636956127216 [Eh]
	 Opposite-Spin Energy      =      -1.4652966686869513 [Eh]
	 Correlation Energy        =      -1.9334603642996728 [Eh]
	 Total Energy              =    -439.5424021766424403 [Eh]

	 ================> DF-SCS-MP2 Energies <==================
	-----------------------------------------------------------
	 SCS Same-Spin Scale       =       0.3333333333333333 [-]
	 SCS Opposite-Spin Scale   =       1.2000000000000000 [-]
	 SCS Same-Spin Energy      =      -0.1560545652042405 [Eh]
	 SCS Opposite-Spin Energy  =      -1.7583560024243414 [Eh]
	 SCS Correlation Energy    =      -1.9144105676285819 [Eh]
	 SCS Total Energy          =    -439.5233523799713566 [Eh]
	-----------------------------------------------------------

  Dipole Moment: [D]
     X:    -0.0742      Y:    -3.9542      Z:     0.1755     Total:     3.9588

*** Psi4 exiting successfully. Buy a developer a beer!
