                               Psi4 1.3.2 release

  ==> Input File <==

--------------------------------------------------------------------------
#psi4
#
memory 32 gb

molecule  {
0 1
  O        0.0787650     2.1311770    -0.2164080
  N        0.1333340    -0.1752640    -0.2334700
  C        1.5450297    -0.0502365    -0.5110273
  C        2.4562500     0.4082890     0.5600040
  C        2.4806620    -1.0501060     0.1884540
  C       -0.5399690     1.0666720    -0.0960400
  C       -0.5048870    -1.3883940    -0.2151950
  C       -1.9528000     0.9321040     0.1889810
  C       -1.8475120    -1.4809310     0.0203080
  C       -2.5801750    -0.2831070     0.2328620
  H        1.7757480     0.1884380    -1.5349100
  H        1.9894860     0.6779030     1.5004770
  H        3.2759230     1.0506550     0.2582410
  H        3.3211070    -1.4385120    -0.3773670
  H        2.0523810    -1.7508080     0.8974130
  H        0.1298880    -2.2506920    -0.3908910
  H       -2.4932330     1.8615660     0.3382590
  H       -2.3266410    -2.4532080     0.0346430
  H       -3.6480090    -0.3319380     0.4347920
units angstrom
no_reorient  #important for SAPT in psi4, default
symmetry c1  #important for SAPT in psi4, default
}

set PROPERTIES_ORIGIN ["COM"]
properties('MP2/aug-cc-pvtz', properties = ['dipole'])
--------------------------------------------------------------------------

    Molecular point group: c1
  Charge       = 0
  Multiplicity = 1
  Basis Set: AUG-CC-PVTZ
    Blend: AUG-CC-PVTZ
  Basis Set: (AUG-CC-PVTZ AUX)
    Blend: AUG-CC-PVTZ-JKFIT

    Orbital Energies [Eh]
    ---------------------

    Doubly Occupied:

       1A    -20.507509     2A    -15.627314     3A    -11.349453
       4A    -11.307700     5A    -11.279737     6A    -11.270470
       7A    -11.242037     8A    -11.239669     9A    -11.236770
      10A    -11.235338    11A     -1.370802    12A     -1.282386
      13A     -1.153897    14A     -1.095085    15A     -1.024826
      16A     -0.902866    17A     -0.867353    18A     -0.829329
      19A     -0.811889    20A     -0.726890    21A     -0.697077
      22A     -0.682289    23A     -0.662432    24A     -0.639794
      25A     -0.606396    26A     -0.593925    27A     -0.578560
      28A     -0.547832    29A     -0.535662    30A     -0.525733
      31A     -0.481297    32A     -0.460279    33A     -0.428792
      34A     -0.420605    35A     -0.402663    36A     -0.309153

  @DF-RHF Final Energy:  -437.60908170513284

   => Energetics <=

    Nuclear Repulsion Energy =            508.2191266837099874
    One-Electron Energy =               -1601.7888020193190641
    Two-Electron Energy =                 655.9605936304764100
    Total Energy =                       -437.6090817051327804
  Basis Set: (AUG-CC-PVTZ AUX)
    Blend: AUG-CC-PVTZ-RI
    Molecular point group: c1

    Geometry (in Angstrom), charge = 0, multiplicity = 1:

       Center              X                  Y                   Z               Mass
    ------------   -----------------  -----------------  -----------------  -----------------
         O            0.109011452480     2.094130184317    -0.207961720375    15.994914619570
         N            0.163580452480    -0.212310815683    -0.225023720375    14.003074004430
         C            1.575276152480    -0.087283315683    -0.502581020375    12.000000000000
         C            2.486496452480     0.371242184317     0.568450279625    12.000000000000
         C            2.510908452480    -1.087152815683     0.196900279625    12.000000000000
         C           -0.509722547520     1.029625184317    -0.087593720375    12.000000000000
         C           -0.474640547520    -1.425440815683    -0.206748720375    12.000000000000
         C           -1.922553547520     0.895057184317     0.197427279625    12.000000000000
         C           -1.817265547520    -1.517977815683     0.028754279625    12.000000000000
         C           -2.549928547520    -0.320153815683     0.241308279625    12.000000000000
         H            1.805994452480     0.151391184317    -1.526463720375     1.007825032230
         H            2.019732452480     0.640856184317     1.508923279625     1.007825032230
         H            3.306169452480     1.013608184317     0.266687279625     1.007825032230
         H            3.351353452480    -1.475558815683    -0.368920720375     1.007825032230
         H            2.082627452480    -1.787854815683     0.905859279625     1.007825032230
         H            0.160134452480    -2.287738815683    -0.382444720375     1.007825032230
         H           -2.462986547520     1.824519184317     0.346705279625     1.007825032230
         H           -2.296394547520    -2.490254815683     0.043089279625     1.007825032230
         H           -3.617762547520    -0.368984815683     0.443238279625     1.007825032230

  Basis Set: AUG-CC-PVTZ
    Blend: AUG-CC-PVTZ
  Basis Set: (AUG-CC-PVTZ AUX)
    Blend: AUG-CC-PVTZ-JKFIT
	 Reference Energy          =    -437.6090817051328372 [Eh]
	 Singles Energy            =      -0.0000000000000000 [Eh]
	 Same-Spin Energy          =      -0.4677889044533030 [Eh]
	 Opposite-Spin Energy      =      -1.4648714689901858 [Eh]
	 Correlation Energy        =      -1.9326603734434888 [Eh]
	 Total Energy              =    -439.5417420785763056 [Eh]

	 ================> DF-SCS-MP2 Energies <==================
	-----------------------------------------------------------
	 SCS Same-Spin Scale       =       0.3333333333333333 [-]
	 SCS Opposite-Spin Scale   =       1.2000000000000000 [-]
	 SCS Same-Spin Energy      =      -0.1559296348177677 [Eh]
	 SCS Opposite-Spin Energy  =      -1.7578457627882229 [Eh]
	 SCS Correlation Energy    =      -1.9137753976059906 [Eh]
	 SCS Total Energy          =    -439.5228571027388398 [Eh]
	-----------------------------------------------------------

  Dipole Moment: [D]
     X:    -0.0337      Y:    -3.7515      Z:     0.1584     Total:     3.7550

*** Psi4 exiting successfully. Buy a developer a beer!
