                               Psi4 1.3.2 release

  ==> Input File <==

--------------------------------------------------------------------------
#psi4
#
memory 32 gb

molecule  {
0 1
  O        0.0787650     2.1311770    -0.2164080
  N        0.1285189    -0.1685120    -0.2572714
  C        1.5484140    -0.1005230    -0.5118890
  C        2.4562500     0.4082890     0.5600040
  C        2.4806620    -1.0501060     0.1884540
  C       -0.5399690     1.0666720    -0.0960400
  C       -0.5048870    -1.3883940    -0.2151950
  C       -1.9528000     0.9321040     0.1889810
  C       -1.8475120    -1.4809310     0.0203080
  C       -2.5801750    -0.2831070     0.2328620
  H        1.7757480     0.1884380    -1.5349100
  H        1.9894860     0.6779030     1.5004770
  H        3.2759230     1.0506550     0.2582410
  H        3.3211070    -1.4385120    -0.3773670
  H        2.0523810    -1.7508080     0.8974130
  H        0.1298880    -2.2506920    -0.3908910
  H       -2.4932330     1.8615660     0.3382590
  H       -2.3266410    -2.4532080     0.0346430
  H       -3.6480090    -0.3319380     0.4347920
units angstrom
no_reorient  #important for SAPT in psi4, default
symmetry c1  #important for SAPT in psi4, default
}

set PROPERTIES_ORIGIN ["COM"]
properties('MP2/aug-cc-pvtz', properties = ['dipole'])
--------------------------------------------------------------------------

    Molecular point group: c1
  Charge       = 0
  Multiplicity = 1
  Basis Set: AUG-CC-PVTZ
    Blend: AUG-CC-PVTZ
  Basis Set: (AUG-CC-PVTZ AUX)
    Blend: AUG-CC-PVTZ-JKFIT

    Orbital Energies [Eh]
    ---------------------

    Doubly Occupied:

       1A    -20.506120     2A    -15.627240     3A    -11.349165
       4A    -11.307325     5A    -11.279147     6A    -11.270373
       7A    -11.243616     8A    -11.239842     9A    -11.237202
      10A    -11.234351    11A     -1.370050    12A     -1.282055
      13A     -1.156014    14A     -1.096216    15A     -1.024892
      16A     -0.902084    17A     -0.869374    18A     -0.829924
      19A     -0.810445    20A     -0.725008    21A     -0.697859
      22A     -0.682049    23A     -0.664695    24A     -0.640278
      25A     -0.605989    26A     -0.594936    27A     -0.576679
      28A     -0.545121    29A     -0.535472    30A     -0.526353
      31A     -0.479658    32A     -0.456124    33A     -0.440230
      34A     -0.420026    35A     -0.399706    36A     -0.309151

  @DF-RHF Final Energy:  -437.61078867118476

   => Energetics <=

    Nuclear Repulsion Energy =            508.1709596303492162
    One-Electron Energy =               -1601.6939615677681559
    Two-Electron Energy =                 655.9122132662341755
    Total Energy =                       -437.6107886711847641
  Basis Set: (AUG-CC-PVTZ AUX)
    Blend: AUG-CC-PVTZ-RI
    Molecular point group: c1

    Geometry (in Angstrom), charge = 0, multiplicity = 1:

       Center              X                  Y                   Z               Mass
    ------------   -----------------  -----------------  -----------------  -----------------
         O            0.109209978552     2.097897824949    -0.205417578813    15.994914619570
         N            0.158963878552    -0.201791175051    -0.246280978813    14.003074004430
         C            1.578858978552    -0.133802175051    -0.500898578813    12.000000000000
         C            2.486694978552     0.375009824949     0.570994421187    12.000000000000
         C            2.511106978552    -1.083385175051     0.199444421187    12.000000000000
         C           -0.509524021448     1.033392824949    -0.085049578813    12.000000000000
         C           -0.474442021448    -1.421673175051    -0.204204578813    12.000000000000
         C           -1.922355021448     0.898824824949     0.199971421187    12.000000000000
         C           -1.817067021448    -1.514210175051     0.031298421187    12.000000000000
         C           -2.549730021448    -0.316386175051     0.243852421187    12.000000000000
         H            1.806192978552     0.155158824949    -1.523919578813     1.007825032230
         H            2.019930978552     0.644623824949     1.511467421187     1.007825032230
         H            3.306367978552     1.017375824949     0.269231421187     1.007825032230
         H            3.351551978552    -1.471791175051    -0.366376578813     1.007825032230
         H            2.082825978552    -1.784087175051     0.908403421187     1.007825032230
         H            0.160332978552    -2.283971175051    -0.379900578813     1.007825032230
         H           -2.462788021448     1.828286824949     0.349249421187     1.007825032230
         H           -2.296196021448    -2.486487175051     0.045633421187     1.007825032230
         H           -3.617564021448    -0.365217175051     0.445782421187     1.007825032230

  Basis Set: AUG-CC-PVTZ
    Blend: AUG-CC-PVTZ
  Basis Set: (AUG-CC-PVTZ AUX)
    Blend: AUG-CC-PVTZ-JKFIT
	 Reference Energy          =    -437.6107886711847641 [Eh]
	 Singles Energy            =      -0.0000000000000000 [Eh]
	 Same-Spin Energy          =      -0.4676452509066804 [Eh]
	 Opposite-Spin Energy      =      -1.4645269943640178 [Eh]
	 Correlation Energy        =      -1.9321722452706982 [Eh]
	 Total Energy              =    -439.5429609164554563 [Eh]

	 ================> DF-SCS-MP2 Energies <==================
	-----------------------------------------------------------
	 SCS Same-Spin Scale       =       0.3333333333333333 [-]
	 SCS Opposite-Spin Scale   =       1.2000000000000000 [-]
	 SCS Same-Spin Energy      =      -0.1558817503022268 [Eh]
	 SCS Opposite-Spin Energy  =      -1.7574323932368212 [Eh]
	 SCS Correlation Energy    =      -1.9133141435390479 [Eh]
	 SCS Total Energy          =    -439.5241028147237898 [Eh]
	-----------------------------------------------------------

  Dipole Moment: [D]
     X:    -0.0138      Y:    -3.8239      Z:     0.1758     Total:     3.8279

*** Psi4 exiting successfully. Buy a developer a beer!
