                               Psi4 1.3.2 release

  ==> Input File <==

--------------------------------------------------------------------------
#psi4
#
memory 32 gb

molecule  {
0 1
  O        0.0787650     2.1311770    -0.2164080
  N        0.1333340    -0.1752640    -0.2334700
  C        1.5484140    -0.1005230    -0.5118890
  C        2.4562500     0.4082890     0.5600040
  C        2.4806620    -1.0501060     0.1884540
  C       -0.4925325     0.9791733    -0.1057224
  C       -0.5048870    -1.3883940    -0.2151950
  C       -1.9528000     0.9321040     0.1889810
  C       -1.8475120    -1.4809310     0.0203080
  C       -2.5801750    -0.2831070     0.2328620
  H        1.7757480     0.1884380    -1.5349100
  H        1.9894860     0.6779030     1.5004770
  H        3.2759230     1.0506550     0.2582410
  H        3.3211070    -1.4385120    -0.3773670
  H        2.0523810    -1.7508080     0.8974130
  H        0.1298880    -2.2506920    -0.3908910
  H       -2.4932330     1.8615660     0.3382590
  H       -2.3266410    -2.4532080     0.0346430
  H       -3.6480090    -0.3319380     0.4347920
units angstrom
no_reorient  #important for SAPT in psi4, default
symmetry c1  #important for SAPT in psi4, default
}

set PROPERTIES_ORIGIN ["COM"]
properties('MP2/aug-cc-pvtz', properties = ['dipole'])
--------------------------------------------------------------------------

    Molecular point group: c1
  Charge       = 0
  Multiplicity = 1
  Basis Set: AUG-CC-PVTZ
    Blend: AUG-CC-PVTZ
  Basis Set: (AUG-CC-PVTZ AUX)
    Blend: AUG-CC-PVTZ-JKFIT

    Orbital Energies [Eh]
    ---------------------

    Doubly Occupied:

       1A    -20.491975     2A    -15.636676     3A    -11.345973
       4A    -11.307801     5A    -11.283784     6A    -11.266034
       7A    -11.247639     8A    -11.246030     9A    -11.244920
      10A    -11.236701    11A     -1.366637    12A     -1.273253
      13A     -1.160848    14A     -1.102303    15A     -1.027872
      16A     -0.903079    17A     -0.889418    18A     -0.834512
      19A     -0.808607    20A     -0.732549    21A     -0.702754
      22A     -0.681863    23A     -0.665500    24A     -0.645324
      25A     -0.603924    26A     -0.594009    27A     -0.576980
      28A     -0.542840    29A     -0.532370    30A     -0.526787
      31A     -0.460728    32A     -0.456986    33A     -0.445125
      34A     -0.412977    35A     -0.399703    36A     -0.311415

  @DF-RHF Final Energy:  -437.59899949430496

   => Energetics <=

    Nuclear Repulsion Energy =            509.1926019170109612
    One-Electron Energy =               -1603.6514086752576986
    Two-Electron Energy =                 656.8598072639417751
    Total Energy =                       -437.5989994943049624
  Basis Set: (AUG-CC-PVTZ AUX)
    Blend: AUG-CC-PVTZ-RI
    Molecular point group: c1

    Geometry (in Angstrom), charge = 0, multiplicity = 1:

       Center              X                  Y                   Z               Mass
    ------------   -----------------  -----------------  -----------------  -----------------
         O            0.104496336160     2.106371554095    -0.207024941773    15.994914619570
         N            0.159065336160    -0.200069445905    -0.224086941773    14.003074004430
         C            1.574145336160    -0.125328445905    -0.502505941773    12.000000000000
         C            2.481981336160     0.383483554095     0.569387058227    12.000000000000
         C            2.506393336160    -1.074911445905     0.197837058227    12.000000000000
         C           -0.466801163840     0.954367854095    -0.096339341773    12.000000000000
         C           -0.479155663840    -1.413199445905    -0.205811941773    12.000000000000
         C           -1.927068663840     0.907298554095     0.198364058227    12.000000000000
         C           -1.821780663840    -1.505736445905     0.029691058227    12.000000000000
         C           -2.554443663840    -0.307912445905     0.242245058227    12.000000000000
         H            1.801479336160     0.163632554095    -1.525526941773     1.007825032230
         H            2.015217336160     0.653097554095     1.509860058227     1.007825032230
         H            3.301654336160     1.025849554095     0.267624058227     1.007825032230
         H            3.346838336160    -1.463317445905    -0.367983941773     1.007825032230
         H            2.078112336160    -1.775613445905     0.906796058227     1.007825032230
         H            0.155619336160    -2.275497445905    -0.381507941773     1.007825032230
         H           -2.467501663840     1.836760554095     0.347642058227     1.007825032230
         H           -2.300909663840    -2.478013445905     0.044026058227     1.007825032230
         H           -3.622277663840    -0.356743445905     0.444175058227     1.007825032230

  Basis Set: AUG-CC-PVTZ
    Blend: AUG-CC-PVTZ
  Basis Set: (AUG-CC-PVTZ AUX)
    Blend: AUG-CC-PVTZ-JKFIT
	 Reference Energy          =    -437.5989994943049624 [Eh]
	 Singles Energy            =      -0.0000000000000000 [Eh]
	 Same-Spin Energy          =      -0.4676688244322447 [Eh]
	 Opposite-Spin Energy      =      -1.4655709429973256 [Eh]
	 Correlation Energy        =      -1.9332397674295703 [Eh]
	 Total Energy              =    -439.5322392617345599 [Eh]

	 ================> DF-SCS-MP2 Energies <==================
	-----------------------------------------------------------
	 SCS Same-Spin Scale       =       0.3333333333333333 [-]
	 SCS Opposite-Spin Scale   =       1.2000000000000000 [-]
	 SCS Same-Spin Energy      =      -0.1558896081440815 [Eh]
	 SCS Opposite-Spin Energy  =      -1.7586851315967906 [Eh]
	 SCS Correlation Energy    =      -1.9145747397408721 [Eh]
	 SCS Total Energy          =    -439.5135742340458478 [Eh]
	-----------------------------------------------------------

  Dipole Moment: [D]
     X:    -0.0301      Y:    -4.3194      Z:     0.1905     Total:     4.3237

*** Psi4 exiting successfully. Buy a developer a beer!
