                               Psi4 1.4a3.dev225

  ==> Input File <==

--------------------------------------------------------------------------
#psi4
#
memory 32 gb

molecule  {
0 1
  O        0.0787650     2.1311770    -0.2164080
  N        0.1333340    -0.1752640    -0.2334700
  C        1.5484140    -0.1005230    -0.5118890
  C        2.4562500     0.4082890     0.5600040
  C        2.4806620    -1.0501060     0.1884540
  C       -0.5399690     1.0666720    -0.0960400
  C       -0.5281646    -1.4326400    -0.2145285
  C       -1.9528000     0.9321040     0.1889810
  C       -1.8475120    -1.4809310     0.0203080
  C       -2.5801750    -0.2831070     0.2328620
  H        1.7757480     0.1884380    -1.5349100
  H        1.9894860     0.6779030     1.5004770
  H        3.2759230     1.0506550     0.2582410
  H        3.3211070    -1.4385120    -0.3773670
  H        2.0523810    -1.7508080     0.8974130
  H        0.1298880    -2.2506920    -0.3908910
  H       -2.4932330     1.8615660     0.3382590
  H       -2.3266410    -2.4532080     0.0346430
  H       -3.6480090    -0.3319380     0.4347920
units angstrom
no_reorient  #important for SAPT in psi4, default
symmetry c1  #important for SAPT in psi4, default
}

set PROPERTIES_ORIGIN ["COM"]
properties('MP2/aug-cc-pvtz', properties = ['dipole'])
--------------------------------------------------------------------------

    Molecular point group: c1
  Charge       = 0
  Multiplicity = 1
  Basis Set: AUG-CC-PVTZ
    Blend: AUG-CC-PVTZ
  Basis Set: (AUG-CC-PVTZ AUX)
    Blend: AUG-CC-PVTZ-JKFIT

    Orbital Energies [Eh]
    ---------------------

    Doubly Occupied:

       1A    -20.507412     2A    -15.621560     3A    -11.349548
       4A    -11.304286     5A    -11.276170     6A    -11.272110
       7A    -11.241024     8A    -11.241003     9A    -11.240776
      10A    -11.231698    11A     -1.366914    12A     -1.270679
      13A     -1.154260    14A     -1.095157    15A     -1.029931
      16A     -0.900887    17A     -0.864400    18A     -0.827787
      19A     -0.806894    20A     -0.722692    21A     -0.696269
      22A     -0.682083    23A     -0.665070    24A     -0.639849
      25A     -0.610057    26A     -0.589536    27A     -0.575786
      28A     -0.541589    29A     -0.540233    30A     -0.524570
      31A     -0.478715    32A     -0.455088    33A     -0.437153
      34A     -0.420036    35A     -0.396063    36A     -0.315640

  @DF-RHF Final Energy:  -437.60784006913798

   => Energetics <=

    Nuclear Repulsion Energy =            507.3926850136386975
    One-Electron Energy =               -1600.2152013981365144
    Two-Electron Energy =                 655.2146763153597249
    Total Energy =                       -437.6078400691379784
  Basis Set: (AUG-CC-PVTZ AUX)
    Blend: AUG-CC-PVTZ-RI
    Molecular point group: c1

    Geometry (in Angstrom), charge = 0, multiplicity = 1:

       Center              X                  Y                   Z               Mass
    ------------   -----------------  -----------------  -----------------  -----------------
         O            0.110778850150     2.102528817033    -0.207944378053    15.994914619570
         N            0.165347850150    -0.203912182967    -0.225006378053    14.003074004430
         C            1.580427850150    -0.129171182967    -0.503425378053    12.000000000000
         C            2.488263850150     0.379640817033     0.568467621947    12.000000000000
         C            2.512675850150    -1.078754182967     0.196917621947    12.000000000000
         C           -0.507955149850     1.038023817033    -0.087576378053    12.000000000000
         C           -0.496150749850    -1.461288182967    -0.206064878053    12.000000000000
         C           -1.920786149850     0.903455817033     0.197444621947    12.000000000000
         C           -1.815498149850    -1.509579182967     0.028771621947    12.000000000000
         C           -2.548161149850    -0.311755182967     0.241325621947    12.000000000000
         H            1.807761850150     0.159789817033    -1.526446378053     1.007825032230
         H            2.021499850150     0.649254817033     1.508940621947     1.007825032230
         H            3.307936850150     1.022006817033     0.266704621947     1.007825032230
         H            3.353120850150    -1.467160182967    -0.368903378053     1.007825032230
         H            2.084394850150    -1.779456182967     0.905876621947     1.007825032230
         H            0.161901850150    -2.279340182967    -0.382427378053     1.007825032230
         H           -2.461219149850     1.832917817033     0.346722621947     1.007825032230
         H           -2.294627149850    -2.481856182967     0.043106621947     1.007825032230
         H           -3.615995149850    -0.360586182967     0.443255621947     1.007825032230

  Basis Set: AUG-CC-PVTZ
    Blend: AUG-CC-PVTZ
  Basis Set: (AUG-CC-PVTZ AUX)
    Blend: AUG-CC-PVTZ-JKFIT
	 Reference Energy          =    -437.6078400691379784 [Eh]
	 Singles Energy            =      -0.0000000000000000 [Eh]
	 Same-Spin Energy          =      -0.4671696002539176 [Eh]
	 Opposite-Spin Energy      =      -1.4648385189046254 [Eh]
	 Correlation Energy        =      -1.9320081191585430 [Eh]
	 Total Energy              =    -439.5398481882965029 [Eh]

	 ================> DF-SCS-MP2 Energies <==================
	-----------------------------------------------------------
	 SCS Same-Spin Scale       =       0.3333333333333333 [-]
	 SCS Opposite-Spin Scale   =       1.2000000000000000 [-]
	 SCS Same-Spin Energy      =      -0.1557232000846392 [Eh]
	 SCS Opposite-Spin Energy  =      -1.7578062226855504 [Eh]
	 SCS Correlation Energy    =      -1.9135294227701896 [Eh]
	 SCS Total Energy          =    -439.5213694919081604 [Eh]
	-----------------------------------------------------------

  Dipole Moment: [D]
     X:    -0.1949      Y:    -3.8293      Z:     0.1691     Total:     3.8380

*** Psi4 exiting successfully. Buy a developer a beer!
