                               Psi4 1.3.2 release

  ==> Input File <==

--------------------------------------------------------------------------
#psi4
#
memory 32 gb

molecule  {
0 1
  O        0.0787650     2.1311770    -0.2164080
  N        0.1333340    -0.1752640    -0.2334700
  C        1.5484140    -0.1005230    -0.5118890
  C        2.4562500     0.4082890     0.5600040
  C        2.4806620    -1.0501060     0.1884540
  C       -0.4899553     1.1527183    -0.1057696
  C       -0.5048870    -1.3883940    -0.2151950
  C       -1.9528000     0.9321040     0.1889810
  C       -1.8475120    -1.4809310     0.0203080
  C       -2.5801750    -0.2831070     0.2328620
  H        1.7757480     0.1884380    -1.5349100
  H        1.9894860     0.6779030     1.5004770
  H        3.2759230     1.0506550     0.2582410
  H        3.3211070    -1.4385120    -0.3773670
  H        2.0523810    -1.7508080     0.8974130
  H        0.1298880    -2.2506920    -0.3908910
  H       -2.4932330     1.8615660     0.3382590
  H       -2.3266410    -2.4532080     0.0346430
  H       -3.6480090    -0.3319380     0.4347920
units angstrom
no_reorient  #important for SAPT in psi4, default
symmetry c1  #important for SAPT in psi4, default
}

set PROPERTIES_ORIGIN ["COM"]
properties('MP2/aug-cc-pvtz', properties = ['dipole'])
--------------------------------------------------------------------------

    Molecular point group: c1
  Charge       = 0
  Multiplicity = 1
  Basis Set: AUG-CC-PVTZ
    Blend: AUG-CC-PVTZ
  Basis Set: (AUG-CC-PVTZ AUX)
    Blend: AUG-CC-PVTZ-JKFIT

    Orbital Energies [Eh]
    ---------------------

    Doubly Occupied:

       1A    -20.533060     2A    -15.612806     3A    -11.353380
       4A    -11.300203     5A    -11.274961     6A    -11.263021
       7A    -11.240797     8A    -11.233968     9A    -11.233442
      10A    -11.229532    11A     -1.441508    12A     -1.281569
      13A     -1.149853    14A     -1.085642    15A     -1.011816
      16A     -0.890894    17A     -0.858186    18A     -0.825030
      19A     -0.803767    20A     -0.720728    21A     -0.695985
      22A     -0.684770    23A     -0.669261    24A     -0.639454
      25A     -0.620551    26A     -0.603514    27A     -0.578322
      28A     -0.549923    29A     -0.536967    30A     -0.526105
      31A     -0.507980    32A     -0.453667    33A     -0.441323
      34A     -0.417209    35A     -0.394778    36A     -0.302115

  @DF-RHF Final Energy:  -437.59874710492915

   => Energetics <=

    Nuclear Repulsion Energy =            508.1468498919819012
    One-Electron Energy =               -1601.5590205849798622
    Two-Electron Energy =                 655.8134235880687584
    Total Energy =                       -437.5987471049292026
  Basis Set: (AUG-CC-PVTZ AUX)
    Blend: AUG-CC-PVTZ-RI
    Molecular point group: c1

    Geometry (in Angstrom), charge = 0, multiplicity = 1:

       Center              X                  Y                   Z               Mass
    ------------   -----------------  -----------------  -----------------  -----------------
         O            0.104267367750     2.090953145455    -0.207020748343    15.994914619570
         N            0.158836367750    -0.215487854545    -0.224082748343    14.003074004430
         C            1.573916367750    -0.140746854545    -0.502501748343    12.000000000000
         C            2.481752367750     0.368065145455     0.569391251657    12.000000000000
         C            2.506164367750    -1.090329854545     0.197841251657    12.000000000000
         C           -0.464452932250     1.112494445455    -0.096382348343    12.000000000000
         C           -0.479384632250    -1.428617854545    -0.205807748343    12.000000000000
         C           -1.927297632250     0.891880145455     0.198368251657    12.000000000000
         C           -1.822009632250    -1.521154854545     0.029695251657    12.000000000000
         C           -2.554672632250    -0.323330854545     0.242249251657    12.000000000000
         H            1.801250367750     0.148214145455    -1.525522748343     1.007825032230
         H            2.014988367750     0.637679145455     1.509864251657     1.007825032230
         H            3.301425367750     1.010431145455     0.267628251657     1.007825032230
         H            3.346609367750    -1.478735854545    -0.367979748343     1.007825032230
         H            2.077883367750    -1.791031854545     0.906800251657     1.007825032230
         H            0.155390367750    -2.290915854545    -0.381503748343     1.007825032230
         H           -2.467730632250     1.821342145455     0.347646251657     1.007825032230
         H           -2.301138632250    -2.493431854545     0.044030251657     1.007825032230
         H           -3.622506632250    -0.372161854545     0.444179251657     1.007825032230

  Basis Set: AUG-CC-PVTZ
    Blend: AUG-CC-PVTZ
  Basis Set: (AUG-CC-PVTZ AUX)
    Blend: AUG-CC-PVTZ-JKFIT
	 Reference Energy          =    -437.5987471049291457 [Eh]
	 Singles Energy            =      -0.0000000000000000 [Eh]
	 Same-Spin Energy          =      -0.4657284439731254 [Eh]
	 Opposite-Spin Energy      =      -1.4614182897309520 [Eh]
	 Correlation Energy        =      -1.9271467337040775 [Eh]
	 Total Energy              =    -439.5258938386332375 [Eh]

	 ================> DF-SCS-MP2 Energies <==================
	-----------------------------------------------------------
	 SCS Same-Spin Scale       =       0.3333333333333333 [-]
	 SCS Opposite-Spin Scale   =       1.2000000000000000 [-]
	 SCS Same-Spin Energy      =      -0.1552428146577085 [Eh]
	 SCS Opposite-Spin Energy  =      -1.7537019476771423 [Eh]
	 SCS Correlation Energy    =      -1.9089447623348508 [Eh]
	 SCS Total Energy          =    -439.5076918672639863 [Eh]
	-----------------------------------------------------------

  Dipole Moment: [D]
     X:     0.3274      Y:    -2.9038      Z:     0.0553     Total:     2.9228

*** Psi4 exiting successfully. Buy a developer a beer!
