                               Psi4 1.3.2 release

  ==> Input File <==

--------------------------------------------------------------------------
#psi4
#
memory 32 gb

molecule  {
0 1
  O        0.0787650     2.1311770    -0.2164080
  N        0.1260370    -0.1933141    -0.2799660
  C        1.5484140    -0.1005230    -0.5118890
  C        2.4562500     0.4082890     0.5600040
  C        2.4806620    -1.0501060     0.1884540
  C       -0.5399690     1.0666720    -0.0960400
  C       -0.5048870    -1.3883940    -0.2151950
  C       -1.9528000     0.9321040     0.1889810
  C       -1.8475120    -1.4809310     0.0203080
  C       -2.5801750    -0.2831070     0.2328620
  H        1.7757480     0.1884380    -1.5349100
  H        1.9894860     0.6779030     1.5004770
  H        3.2759230     1.0506550     0.2582410
  H        3.3211070    -1.4385120    -0.3773670
  H        2.0523810    -1.7508080     0.8974130
  H        0.1298880    -2.2506920    -0.3908910
  H       -2.4932330     1.8615660     0.3382590
  H       -2.3266410    -2.4532080     0.0346430
  H       -3.6480090    -0.3319380     0.4347920
units angstrom
no_reorient  #important for SAPT in psi4, default
symmetry c1  #important for SAPT in psi4, default
}

set PROPERTIES_ORIGIN ["COM"]
properties('MP2/aug-cc-pvtz', properties = ['dipole'])
--------------------------------------------------------------------------

    Molecular point group: c1
  Charge       = 0
  Multiplicity = 1
  Basis Set: AUG-CC-PVTZ
    Blend: AUG-CC-PVTZ
  Basis Set: (AUG-CC-PVTZ AUX)
    Blend: AUG-CC-PVTZ-JKFIT

    Orbital Energies [Eh]
    ---------------------

    Doubly Occupied:

       1A    -20.509421     2A    -15.628084     3A    -11.352068
       4A    -11.306123     5A    -11.279846     6A    -11.270273
       7A    -11.243628     8A    -11.237136     9A    -11.235722
      10A    -11.235721    11A     -1.369925    12A     -1.286345
      13A     -1.156550    14A     -1.095900    15A     -1.023579
      16A     -0.902520    17A     -0.868220    18A     -0.829708
      19A     -0.812741    20A     -0.725592    21A     -0.696050
      22A     -0.682905    23A     -0.664674    24A     -0.640297
      25A     -0.606122    26A     -0.595161    27A     -0.576712
      28A     -0.546137    29A     -0.534458    30A     -0.527159
      31A     -0.483074    32A     -0.456847    33A     -0.440365
      34A     -0.420280    35A     -0.400845    36A     -0.306780

  @DF-RHF Final Energy:  -437.60948414330460

   => Energetics <=

    Nuclear Repulsion Energy =            508.0062247328326634
    One-Electron Energy =               -1601.3374781047132274
    Two-Electron Energy =                 655.7217692285760222
    Total Energy =                       -437.6094841433045985
  Basis Set: (AUG-CC-PVTZ AUX)
    Blend: AUG-CC-PVTZ-RI
    Molecular point group: c1

    Geometry (in Angstrom), charge = 0, multiplicity = 1:

       Center              X                  Y                   Z               Mass
    ------------   -----------------  -----------------  -----------------  -----------------
         O            0.109467286892     2.100469156259    -0.203064740321    15.994914619570
         N            0.156739286892    -0.224021943741    -0.266622740321    14.003074004430
         C            1.579116286892    -0.131230843741    -0.498545740321    12.000000000000
         C            2.486952286892     0.377581156259     0.573347259679    12.000000000000
         C            2.511364286892    -1.080813843741     0.201797259679    12.000000000000
         C           -0.509266713108     1.035964156259    -0.082696740321    12.000000000000
         C           -0.474184713108    -1.419101843741    -0.201851740321    12.000000000000
         C           -1.922097713108     0.901396156259     0.202324259679    12.000000000000
         C           -1.816809713108    -1.511638843741     0.033651259679    12.000000000000
         C           -2.549472713108    -0.313814843741     0.246205259679    12.000000000000
         H            1.806450286892     0.157730156259    -1.521566740321     1.007825032230
         H            2.020188286892     0.647195156259     1.513820259679     1.007825032230
         H            3.306625286892     1.019947156259     0.271584259679     1.007825032230
         H            3.351809286892    -1.469219843741    -0.364023740321     1.007825032230
         H            2.083083286892    -1.781515843741     0.910756259679     1.007825032230
         H            0.160590286892    -2.281399843741    -0.377547740321     1.007825032230
         H           -2.462530713108     1.830858156259     0.351602259679     1.007825032230
         H           -2.295938713108    -2.483915843741     0.047986259679     1.007825032230
         H           -3.617306713108    -0.362645843741     0.448135259679     1.007825032230

  Basis Set: AUG-CC-PVTZ
    Blend: AUG-CC-PVTZ
  Basis Set: (AUG-CC-PVTZ AUX)
    Blend: AUG-CC-PVTZ-JKFIT
	 Reference Energy          =    -437.6094841433045985 [Eh]
	 Singles Energy            =      -0.0000000000000000 [Eh]
	 Same-Spin Energy          =      -0.4679995064305674 [Eh]
	 Opposite-Spin Energy      =      -1.4647492188063929 [Eh]
	 Correlation Energy        =      -1.9327487252369602 [Eh]
	 Total Energy              =    -439.5422328685415323 [Eh]

	 ================> DF-SCS-MP2 Energies <==================
	-----------------------------------------------------------
	 SCS Same-Spin Scale       =       0.3333333333333333 [-]
	 SCS Opposite-Spin Scale   =       1.2000000000000000 [-]
	 SCS Same-Spin Energy      =      -0.1559998354768558 [Eh]
	 SCS Opposite-Spin Energy  =      -1.7576990625676714 [Eh]
	 SCS Correlation Energy    =      -1.9136988980445271 [Eh]
	 SCS Total Energy          =    -439.5231830413491139 [Eh]
	-----------------------------------------------------------

  Dipole Moment: [D]
     X:     0.0645      Y:    -3.7286      Z:     0.1797     Total:     3.7335

*** Psi4 exiting successfully. Buy a developer a beer!
