                               Psi4 1.3.2 release

  ==> Input File <==

--------------------------------------------------------------------------
#psi4
#
memory 32 gb

molecule  {
0 1
  O        0.0787650     2.1311770    -0.2164080
  N        0.1333340    -0.1752640    -0.2334700
  C        1.5469372    -0.0753645    -0.5115005
  C        2.4562500     0.4082890     0.5600040
  C        2.4806620    -1.0501060     0.1884540
  C       -0.5399690     1.0666720    -0.0960400
  C       -0.5048870    -1.3883940    -0.2151950
  C       -1.9528000     0.9321040     0.1889810
  C       -1.8475120    -1.4809310     0.0203080
  C       -2.5801750    -0.2831070     0.2328620
  H        1.7757480     0.1884380    -1.5349100
  H        1.9894860     0.6779030     1.5004770
  H        3.2759230     1.0506550     0.2582410
  H        3.3211070    -1.4385120    -0.3773670
  H        2.0523810    -1.7508080     0.8974130
  H        0.1298880    -2.2506920    -0.3908910
  H       -2.4932330     1.8615660     0.3382590
  H       -2.3266410    -2.4532080     0.0346430
  H       -3.6480090    -0.3319380     0.4347920
units angstrom
no_reorient  #important for SAPT in psi4, default
symmetry c1  #important for SAPT in psi4, default
}

set PROPERTIES_ORIGIN ["COM"]
properties('MP2/aug-cc-pvtz', properties = ['dipole'])
--------------------------------------------------------------------------

    Molecular point group: c1
  Charge       = 0
  Multiplicity = 1
  Basis Set: AUG-CC-PVTZ
    Blend: AUG-CC-PVTZ
  Basis Set: (AUG-CC-PVTZ AUX)
    Blend: AUG-CC-PVTZ-JKFIT

    Orbital Energies [Eh]
    ---------------------

    Doubly Occupied:

       1A    -20.507349     2A    -15.627294     3A    -11.349702
       4A    -11.307376     5A    -11.279396     6A    -11.270439
       7A    -11.242635     8A    -11.239491     9A    -11.236852
      10A    -11.234694    11A     -1.370421    12A     -1.282689
      13A     -1.155004    14A     -1.095463    15A     -1.024703
      16A     -0.902267    17A     -0.868107    18A     -0.829382
      19A     -0.811386    20A     -0.726403    21A     -0.697348
      22A     -0.682211    23A     -0.663150    24A     -0.640090
      25A     -0.606289    26A     -0.594017    27A     -0.577924
      28A     -0.546998    29A     -0.535514    30A     -0.525984
      31A     -0.480928    32A     -0.457418    33A     -0.434809
      34A     -0.420586    35A     -0.401422    36A     -0.308981

  @DF-RHF Final Energy:  -437.61033089501575

   => Energetics <=

    Nuclear Repulsion Energy =            508.2140648540860184
    One-Electron Energy =               -1601.7793487063877365
    Two-Electron Energy =                 655.9549529572859683
    Total Energy =                       -437.6103308950157498
  Basis Set: (AUG-CC-PVTZ AUX)
    Blend: AUG-CC-PVTZ-RI
    Molecular point group: c1

    Geometry (in Angstrom), charge = 0, multiplicity = 1:

       Center              X                  Y                   Z               Mass
    ------------   -----------------  -----------------  -----------------  -----------------
         O            0.108841982807     2.096362652969    -0.207919679458    15.994914619570
         N            0.163410982807    -0.210078347031    -0.224981679458    14.003074004430
         C            1.577014182807    -0.110178847031    -0.503012179458    12.000000000000
         C            2.486326982807     0.373474652969     0.568492320542    12.000000000000
         C            2.510738982807    -1.084920347031     0.196942320542    12.000000000000
         C           -0.509892017193     1.031857652969    -0.087551679458    12.000000000000
         C           -0.474810017193    -1.423208347031    -0.206706679458    12.000000000000
         C           -1.922723017193     0.897289652969     0.197469320542    12.000000000000
         C           -1.817435017193    -1.515745347031     0.028796320542    12.000000000000
         C           -2.550098017193    -0.317921347031     0.241350320542    12.000000000000
         H            1.805824982807     0.153623652969    -1.526421679458     1.007825032230
         H            2.019562982807     0.643088652969     1.508965320542     1.007825032230
         H            3.305999982807     1.015840652969     0.266729320542     1.007825032230
         H            3.351183982807    -1.473326347031    -0.368878679458     1.007825032230
         H            2.082457982807    -1.785622347031     0.905901320542     1.007825032230
         H            0.159964982807    -2.285506347031    -0.382402679458     1.007825032230
         H           -2.463156017193     1.826751652969     0.346747320542     1.007825032230
         H           -2.296564017193    -2.488022347031     0.043131320542     1.007825032230
         H           -3.617932017193    -0.366752347031     0.443280320542     1.007825032230

  Basis Set: AUG-CC-PVTZ
    Blend: AUG-CC-PVTZ
  Basis Set: (AUG-CC-PVTZ AUX)
    Blend: AUG-CC-PVTZ-JKFIT
	 Reference Energy          =    -437.6103308950157498 [Eh]
	 Singles Energy            =      -0.0000000000000000 [Eh]
	 Same-Spin Energy          =      -0.4677403178514365 [Eh]
	 Opposite-Spin Energy      =      -1.4646982091430298 [Eh]
	 Correlation Energy        =      -1.9324385269944664 [Eh]
	 Total Energy              =    -439.5427694220102239 [Eh]

	 ================> DF-SCS-MP2 Energies <==================
	-----------------------------------------------------------
	 SCS Same-Spin Scale       =       0.3333333333333333 [-]
	 SCS Opposite-Spin Scale   =       1.2000000000000000 [-]
	 SCS Same-Spin Energy      =      -0.1559134392838122 [Eh]
	 SCS Opposite-Spin Energy  =      -1.7576378509716357 [Eh]
	 SCS Correlation Energy    =      -1.9135512902554479 [Eh]
	 SCS Total Energy          =    -439.5238821852711908 [Eh]
	-----------------------------------------------------------

  Dipole Moment: [D]
     X:    -0.0223      Y:    -3.7726      Z:     0.1576     Total:     3.7760

*** Psi4 exiting successfully. Buy a developer a beer!
