                               Psi4 1.4a3.dev225

  ==> Input File <==

--------------------------------------------------------------------------
#psi4
#
memory 32 gb

molecule  {
0 1
  O        0.0787650     2.1311770    -0.2164080
  N        0.1333340    -0.1752640    -0.2334700
  C        1.5484140    -0.1005230    -0.5118890
  C        2.4562500     0.4082890     0.5600040
  C        2.4806620    -1.0501060     0.1884540
  C       -0.5399690     1.0666720    -0.0960400
  C       -0.5141980    -1.4060924    -0.2149284
  C       -1.9528000     0.9321040     0.1889810
  C       -1.8475120    -1.4809310     0.0203080
  C       -2.5801750    -0.2831070     0.2328620
  H        1.7757480     0.1884380    -1.5349100
  H        1.9894860     0.6779030     1.5004770
  H        3.2759230     1.0506550     0.2582410
  H        3.3211070    -1.4385120    -0.3773670
  H        2.0523810    -1.7508080     0.8974130
  H        0.1298880    -2.2506920    -0.3908910
  H       -2.4932330     1.8615660     0.3382590
  H       -2.3266410    -2.4532080     0.0346430
  H       -3.6480090    -0.3319380     0.4347920
units angstrom
no_reorient  #important for SAPT in psi4, default
symmetry c1  #important for SAPT in psi4, default
}

set PROPERTIES_ORIGIN ["COM"]
properties('MP2/aug-cc-pvtz', properties = ['dipole'])
--------------------------------------------------------------------------

    Molecular point group: c1
  Charge       = 0
  Multiplicity = 1
  Basis Set: AUG-CC-PVTZ
    Blend: AUG-CC-PVTZ
  Basis Set: (AUG-CC-PVTZ AUX)
    Blend: AUG-CC-PVTZ-JKFIT

    Orbital Energies [Eh]
    ---------------------

    Doubly Occupied:

       1A    -20.507302     2A    -15.625026     3A    -11.349829
       4A    -11.305908     5A    -11.278010     6A    -11.271122
       7A    -11.242313     8A    -11.239919     9A    -11.238627
      10A    -11.233108    11A     -1.368682    12A     -1.277949
      13A     -1.155290    14A     -1.095625    15A     -1.026721
      16A     -0.901266    17A     -0.867012    18A     -0.828755
      19A     -0.809295    20A     -0.724519    21A     -0.697053
      22A     -0.681948    23A     -0.664442    24A     -0.640269
      25A     -0.607850    26A     -0.592186    27A     -0.576625
      28A     -0.544299    29A     -0.537469    30A     -0.525649
      31A     -0.479730    32A     -0.455339    33A     -0.438918
      34A     -0.420392    35A     -0.398324    36A     -0.311575

  @DF-RHF Final Energy:  -437.61024810813490

   => Energetics <=

    Nuclear Repulsion Energy =            507.8762971249186080
    One-Electron Energy =               -1601.1363924350123398
    Two-Electron Energy =                 655.6498472019587780
    Total Energy =                       -437.6102481081348969
  Basis Set: (AUG-CC-PVTZ AUX)
    Blend: AUG-CC-PVTZ-RI
    Molecular point group: c1

    Geometry (in Angstrom), charge = 0, multiplicity = 1:

       Center              X                  Y                   Z               Mass
    ------------   -----------------  -----------------  -----------------  -----------------
         O            0.109538003418     2.100170225629    -0.207908849391    15.994914619570
         N            0.164107003418    -0.206270774371    -0.224970849391    14.003074004430
         C            1.579187003418    -0.131529774371    -0.503389849391    12.000000000000
         C            2.487023003418     0.377282225629     0.568503150609    12.000000000000
         C            2.511435003418    -1.081112774371     0.196953150609    12.000000000000
         C           -0.509195996582     1.035665225629    -0.087540849391    12.000000000000
         C           -0.483424996582    -1.437099174371    -0.206429249391    12.000000000000
         C           -1.922026996582     0.901097225629     0.197480150609    12.000000000000
         C           -1.816738996582    -1.511937774371     0.028807150609    12.000000000000
         C           -2.549401996582    -0.314113774371     0.241361150609    12.000000000000
         H            1.806521003418     0.157431225629    -1.526410849391     1.007825032230
         H            2.020259003418     0.646896225629     1.508976150609     1.007825032230
         H            3.306696003418     1.019648225629     0.266740150609     1.007825032230
         H            3.351880003418    -1.469518774371    -0.368867849391     1.007825032230
         H            2.083154003418    -1.781814774371     0.905912150609     1.007825032230
         H            0.160661003418    -2.281698774371    -0.382391849391     1.007825032230
         H           -2.462459996582     1.830559225629     0.346758150609     1.007825032230
         H           -2.295867996582    -2.484214774371     0.043142150609     1.007825032230
         H           -3.617235996582    -0.362944774371     0.443291150609     1.007825032230

  Basis Set: AUG-CC-PVTZ
    Blend: AUG-CC-PVTZ
  Basis Set: (AUG-CC-PVTZ AUX)
    Blend: AUG-CC-PVTZ-JKFIT
	 Reference Energy          =    -437.6102481081348969 [Eh]
	 Singles Energy            =      -0.0000000000000000 [Eh]
	 Same-Spin Energy          =      -0.4675050268088954 [Eh]
	 Opposite-Spin Energy      =      -1.4646937775788493 [Eh]
	 Correlation Energy        =      -1.9321988043877447 [Eh]
	 Total Energy              =    -439.5424469125226210 [Eh]

	 ================> DF-SCS-MP2 Energies <==================
	-----------------------------------------------------------
	 SCS Same-Spin Scale       =       0.3333333333333333 [-]
	 SCS Opposite-Spin Scale   =       1.2000000000000000 [-]
	 SCS Same-Spin Energy      =      -0.1558350089362985 [Eh]
	 SCS Opposite-Spin Energy  =      -1.7576325330946192 [Eh]
	 SCS Correlation Energy    =      -1.9134675420309177 [Eh]
	 SCS Total Energy          =    -439.5237156501657978 [Eh]
	-----------------------------------------------------------

  Dipole Moment: [D]
     X:    -0.0870      Y:    -3.8065      Z:     0.1618     Total:     3.8109

*** Psi4 exiting successfully. Buy a developer a beer!
