                               Psi4 1.4a3.dev225

  ==> Input File <==

--------------------------------------------------------------------------
#psi4
#
memory 32 gb

molecule  {
0 1
  O        0.0787650     2.1311770    -0.2164080
  N        0.1333340    -0.1752640    -0.2334700
  C        1.5484140    -0.1005230    -0.5118890
  C        2.4562500     0.4082890     0.5600040
  C        2.4806620    -1.0501060     0.1884540
  C       -0.5149622     1.1096952    -0.1009048
  C       -0.5048870    -1.3883940    -0.2151950
  C       -1.9528000     0.9321040     0.1889810
  C       -1.8475120    -1.4809310     0.0203080
  C       -2.5801750    -0.2831070     0.2328620
  H        1.7757480     0.1884380    -1.5349100
  H        1.9894860     0.6779030     1.5004770
  H        3.2759230     1.0506550     0.2582410
  H        3.3211070    -1.4385120    -0.3773670
  H        2.0523810    -1.7508080     0.8974130
  H        0.1298880    -2.2506920    -0.3908910
  H       -2.4932330     1.8615660     0.3382590
  H       -2.3266410    -2.4532080     0.0346430
  H       -3.6480090    -0.3319380     0.4347920
units angstrom
no_reorient  #important for SAPT in psi4, default
symmetry c1  #important for SAPT in psi4, default
}

set PROPERTIES_ORIGIN ["COM"]
properties('MP2/aug-cc-pvtz', properties = ['dipole'])
--------------------------------------------------------------------------

    Molecular point group: c1
  Charge       = 0
  Multiplicity = 1
  Basis Set: AUG-CC-PVTZ
    Blend: AUG-CC-PVTZ
  Basis Set: (AUG-CC-PVTZ AUX)
    Blend: AUG-CC-PVTZ-JKFIT

    Orbital Energies [Eh]
    ---------------------

    Doubly Occupied:

       1A    -20.520072     2A    -15.620302     3A    -11.352087
       4A    -11.303713     5A    -11.277138     6A    -11.266724
       7A    -11.242041     8A    -11.235570     9A    -11.234474
      10A    -11.233774    11A     -1.401326    12A     -1.285102
      13A     -1.152981    14A     -1.090702    15A     -1.018442
      16A     -0.896287    17A     -0.863448    18A     -0.827428
      19A     -0.807281    20A     -0.723202    21A     -0.695827
      22A     -0.681890    23A     -0.664912    24A     -0.638140
      25A     -0.616682    26A     -0.595941    27A     -0.578289
      28A     -0.548057    29A     -0.535390    30A     -0.526206
      31A     -0.495944    32A     -0.454584    33A     -0.440135
      34A     -0.421664    35A     -0.397622    36A     -0.305769

  @DF-RHF Final Energy:  -437.60962666484716

   => Energetics <=

    Nuclear Repulsion Energy =            508.1368491822964302
    One-Electron Energy =               -1601.5946616784644903
    Two-Electron Energy =                 655.8481858313209614
    Total Energy =                       -437.6096266648471556
  Basis Set: (AUG-CC-PVTZ AUX)
    Blend: AUG-CC-PVTZ-RI
    Molecular point group: c1

    Geometry (in Angstrom), charge = 0, multiplicity = 1:

       Center              X                  Y                   Z               Mass
    ------------   -----------------  -----------------  -----------------  -----------------
         O            0.106489077410     2.094775483965    -0.207452955980    15.994914619570
         N            0.161058077410    -0.211665516035    -0.224514955980    14.003074004430
         C            1.576138077410    -0.136924516035    -0.502933955980    12.000000000000
         C            2.483974077410     0.371887483965     0.568959044020    12.000000000000
         C            2.508386077410    -1.086507516035     0.197409044020    12.000000000000
         C           -0.487238122590     1.073293683965    -0.091949755980    12.000000000000
         C           -0.477162922590    -1.424795516035    -0.206239955980    12.000000000000
         C           -1.925075922590     0.895702483965     0.197936044020    12.000000000000
         C           -1.819787922590    -1.517332516035     0.029263044020    12.000000000000
         C           -2.552450922590    -0.319508516035     0.241817044020    12.000000000000
         H            1.803472077410     0.152036483965    -1.525954955980     1.007825032230
         H            2.017210077410     0.641501483965     1.509432044020     1.007825032230
         H            3.303647077410     1.014253483965     0.267196044020     1.007825032230
         H            3.348831077410    -1.474913516035    -0.368411955980     1.007825032230
         H            2.080105077410    -1.787209516035     0.906368044020     1.007825032230
         H            0.157612077410    -2.287093516035    -0.381935955980     1.007825032230
         H           -2.465508922590     1.825164483965     0.347214044020     1.007825032230
         H           -2.298916922590    -2.489609516035     0.043598044020     1.007825032230
         H           -3.620284922590    -0.368339516035     0.443747044020     1.007825032230

  Basis Set: AUG-CC-PVTZ
    Blend: AUG-CC-PVTZ
  Basis Set: (AUG-CC-PVTZ AUX)
    Blend: AUG-CC-PVTZ-JKFIT
	 Reference Energy          =    -437.6096266648471556 [Eh]
	 Singles Energy            =      -0.0000000000000000 [Eh]
	 Same-Spin Energy          =      -0.4667073041521830 [Eh]
	 Opposite-Spin Energy      =      -1.4629795581050371 [Eh]
	 Correlation Energy        =      -1.9296868622572201 [Eh]
	 Total Energy              =    -439.5393135271043548 [Eh]

	 ================> DF-SCS-MP2 Energies <==================
	-----------------------------------------------------------
	 SCS Same-Spin Scale       =       0.3333333333333333 [-]
	 SCS Opposite-Spin Scale   =       1.2000000000000000 [-]
	 SCS Same-Spin Energy      =      -0.1555691013840610 [Eh]
	 SCS Opposite-Spin Energy  =      -1.7555754697260444 [Eh]
	 SCS Correlation Energy    =      -1.9111445711101054 [Eh]
	 SCS Total Energy          =    -439.5207712359572838 [Eh]
	-----------------------------------------------------------

  Dipole Moment: [D]
     X:     0.1498      Y:    -3.3661      Z:     0.1075     Total:     3.3712

*** Psi4 exiting successfully. Buy a developer a beer!
