                               Psi4 1.3.2 release

  ==> Input File <==

--------------------------------------------------------------------------
#psi4
#
memory 32 gb

molecule  {
0 1
  O        0.0787650     2.1311770    -0.2164080
  N        0.1333340    -0.1752640    -0.2334700
  C        1.6464014    -0.0953476    -0.5311682
  C        2.4562500     0.4082890     0.5600040
  C        2.4806620    -1.0501060     0.1884540
  C       -0.5399690     1.0666720    -0.0960400
  C       -0.5048870    -1.3883940    -0.2151950
  C       -1.9528000     0.9321040     0.1889810
  C       -1.8475120    -1.4809310     0.0203080
  C       -2.5801750    -0.2831070     0.2328620
  H        1.7757480     0.1884380    -1.5349100
  H        1.9894860     0.6779030     1.5004770
  H        3.2759230     1.0506550     0.2582410
  H        3.3211070    -1.4385120    -0.3773670
  H        2.0523810    -1.7508080     0.8974130
  H        0.1298880    -2.2506920    -0.3908910
  H       -2.4932330     1.8615660     0.3382590
  H       -2.3266410    -2.4532080     0.0346430
  H       -3.6480090    -0.3319380     0.4347920
units angstrom
no_reorient  #important for SAPT in psi4, default
symmetry c1  #important for SAPT in psi4, default
}

set PROPERTIES_ORIGIN ["COM"]
properties('MP2/aug-cc-pvtz', properties = ['dipole'])
--------------------------------------------------------------------------

    Molecular point group: c1
  Charge       = 0
  Multiplicity = 1
  Basis Set: AUG-CC-PVTZ
    Blend: AUG-CC-PVTZ
  Basis Set: (AUG-CC-PVTZ AUX)
    Blend: AUG-CC-PVTZ-JKFIT

    Orbital Energies [Eh]
    ---------------------

    Doubly Occupied:

       1A    -20.503171     2A    -15.623272     3A    -11.346513
       4A    -11.304340     5A    -11.283916     6A    -11.267572
       7A    -11.243599     8A    -11.235993     9A    -11.234771
      10A    -11.233849    11A     -1.363084    12A     -1.270205
      13A     -1.172233    14A     -1.093156    15A     -1.020432
      16A     -0.890694    17A     -0.863726    18A     -0.834579
      19A     -0.814050    20A     -0.724427    21A     -0.695830
      22A     -0.681154    23A     -0.664053    24A     -0.640925
      25A     -0.603096    26A     -0.589125    27A     -0.578730
      28A     -0.540524    29A     -0.533847    30A     -0.522797
      31A     -0.476879    32A     -0.459760    33A     -0.454497
      34A     -0.416391    35A     -0.401956    36A     -0.305654

  @DF-RHF Final Energy:  -437.60186409364024

   => Energetics <=

    Nuclear Repulsion Energy =            507.0560184400341086
    One-Electron Energy =               -1599.5381724560027124
    Two-Electron Energy =                 654.8802899223284157
    Total Energy =                       -437.6018640936403017
  Basis Set: (AUG-CC-PVTZ AUX)
    Blend: AUG-CC-PVTZ-RI
    Molecular point group: c1

    Geometry (in Angstrom), charge = 0, multiplicity = 1:

       Center              X                  Y                   Z               Mass
    ------------   -----------------  -----------------  -----------------  -----------------
         O            0.100005198799     2.098138028818    -0.206172324965    15.994914619570
         N            0.154574198799    -0.208302971182    -0.223234324965    14.003074004430
         C            1.667641598799    -0.128386571182    -0.520932524965    12.000000000000
         C            2.477490198799     0.375250028818     0.570239675035    12.000000000000
         C            2.501902198799    -1.083144971182     0.198689675035    12.000000000000
         C           -0.518728801201     1.033633028818    -0.085804324965    12.000000000000
         C           -0.483646801201    -1.421432971182    -0.204959324965    12.000000000000
         C           -1.931559801201     0.899065028818     0.199216675035    12.000000000000
         C           -1.826271801201    -1.513969971182     0.030543675035    12.000000000000
         C           -2.558934801201    -0.316145971182     0.243097675035    12.000000000000
         H            1.796988198799     0.155399028818    -1.524674324965     1.007825032230
         H            2.010726198799     0.644864028818     1.510712675035     1.007825032230
         H            3.297163198799     1.017616028818     0.268476675035     1.007825032230
         H            3.342347198799    -1.471550971182    -0.367131324965     1.007825032230
         H            2.073621198799    -1.783846971182     0.907648675035     1.007825032230
         H            0.151128198799    -2.283730971182    -0.380655324965     1.007825032230
         H           -2.471992801201     1.828527028818     0.348494675035     1.007825032230
         H           -2.305400801201    -2.486246971182     0.044878675035     1.007825032230
         H           -3.626768801201    -0.364976971182     0.445027675035     1.007825032230

  Basis Set: AUG-CC-PVTZ
    Blend: AUG-CC-PVTZ
  Basis Set: (AUG-CC-PVTZ AUX)
    Blend: AUG-CC-PVTZ-JKFIT
	 Reference Energy          =    -437.6018640936402448 [Eh]
	 Singles Energy            =      -0.0000000000000000 [Eh]
	 Same-Spin Energy          =      -0.4677017629173761 [Eh]
	 Opposite-Spin Energy      =      -1.4642791547709408 [Eh]
	 Correlation Energy        =      -1.9319809176883169 [Eh]
	 Total Energy              =    -439.5338450113285376 [Eh]

	 ================> DF-SCS-MP2 Energies <==================
	-----------------------------------------------------------
	 SCS Same-Spin Scale       =       0.3333333333333333 [-]
	 SCS Opposite-Spin Scale   =       1.2000000000000000 [-]
	 SCS Same-Spin Energy      =      -0.1559005876391253 [Eh]
	 SCS Opposite-Spin Energy  =      -1.7571349857251291 [Eh]
	 SCS Correlation Energy    =      -1.9130355733642543 [Eh]
	 SCS Total Energy          =    -439.5148996670044994 [Eh]
	-----------------------------------------------------------

  Dipole Moment: [D]
     X:     0.2990      Y:    -3.8310      Z:     0.1136     Total:     3.8443

*** Psi4 exiting successfully. Buy a developer a beer!
