                               Psi4 1.3.2 release

  ==> Input File <==

--------------------------------------------------------------------------
#psi4
#
memory 32 gb

molecule  {
0 1
  O        0.0787650     2.1311770    -0.2164080
  N        0.1333340    -0.1752640    -0.2334700
  C        1.5484140    -0.1005230    -0.5118890
  C        2.4562500     0.4082890     0.5600040
  C        2.4806620    -1.0501060     0.1884540
  C       -0.5899827     0.9806257    -0.0863104
  C       -0.5048870    -1.3883940    -0.2151950
  C       -1.9528000     0.9321040     0.1889810
  C       -1.8475120    -1.4809310     0.0203080
  C       -2.5801750    -0.2831070     0.2328620
  H        1.7757480     0.1884380    -1.5349100
  H        1.9894860     0.6779030     1.5004770
  H        3.2759230     1.0506550     0.2582410
  H        3.3211070    -1.4385120    -0.3773670
  H        2.0523810    -1.7508080     0.8974130
  H        0.1298880    -2.2506920    -0.3908910
  H       -2.4932330     1.8615660     0.3382590
  H       -2.3266410    -2.4532080     0.0346430
  H       -3.6480090    -0.3319380     0.4347920
units angstrom
no_reorient  #important for SAPT in psi4, default
symmetry c1  #important for SAPT in psi4, default
}

set PROPERTIES_ORIGIN ["COM"]
properties('MP2/aug-cc-pvtz', properties = ['dipole'])
--------------------------------------------------------------------------

    Molecular point group: c1
  Charge       = 0
  Multiplicity = 1
  Basis Set: AUG-CC-PVTZ
    Blend: AUG-CC-PVTZ
  Basis Set: (AUG-CC-PVTZ AUX)
    Blend: AUG-CC-PVTZ-JKFIT

    Orbital Energies [Eh]
    ---------------------

    Doubly Occupied:

       1A    -20.482192     2A    -15.640163     3A    -11.343230
       4A    -11.313335     5A    -11.283420     6A    -11.277740
       7A    -11.248633     8A    -11.245397     9A    -11.239086
      10A    -11.234656    11A     -1.348995    12A     -1.248421
      13A     -1.162401    14A     -1.106322    15A     -1.034947
      16A     -0.911999    17A     -0.880152    18A     -0.833164
      19A     -0.817532    20A     -0.731373    21A     -0.704674
      22A     -0.684984    23A     -0.666380    24A     -0.649591
      25A     -0.599822    26A     -0.592007    27A     -0.572176
      28A     -0.541237    29A     -0.528247    30A     -0.525004
      31A     -0.458018    32A     -0.450415    33A     -0.443639
      34A     -0.411546    35A     -0.395250    36A     -0.312735

  @DF-RHF Final Energy:  -437.59115991733688

   => Energetics <=

    Nuclear Repulsion Energy =            508.5445835411683788
    One-Electron Energy =               -1602.4337137740526487
    Two-Electron Energy =                 656.2979703155474454
    Total Energy =                       -437.5911599173368813
  Basis Set: (AUG-CC-PVTZ AUX)
    Blend: AUG-CC-PVTZ-RI
    Molecular point group: c1

    Geometry (in Angstrom), charge = 0, multiplicity = 1:

       Center              X                  Y                   Z               Mass
    ------------   -----------------  -----------------  -----------------  -----------------
         O            0.113154188623     2.106242517264    -0.208749578890    15.994914619570
         N            0.167723188623    -0.200198482736    -0.225811578890    14.003074004430
         C            1.582803188623    -0.125457482736    -0.504230578890    12.000000000000
         C            2.490639188623     0.383354517264     0.567662421110    12.000000000000
         C            2.515051188623    -1.075040482736     0.196112421110    12.000000000000
         C           -0.555593511377     0.955691217264    -0.078651978890    12.000000000000
         C           -0.470497811377    -1.413328482736    -0.207536578890    12.000000000000
         C           -1.918410811377     0.907169517264     0.196639421110    12.000000000000
         C           -1.813122811377    -1.505865482736     0.027966421110    12.000000000000
         C           -2.545785811377    -0.308041482736     0.240520421110    12.000000000000
         H            1.810137188623     0.163503517264    -1.527251578890     1.007825032230
         H            2.023875188623     0.652968517264     1.508135421110     1.007825032230
         H            3.310312188623     1.025720517264     0.265899421110     1.007825032230
         H            3.355496188623    -1.463446482736    -0.369708578890     1.007825032230
         H            2.086770188623    -1.775742482736     0.905071421110     1.007825032230
         H            0.164277188623    -2.275626482736    -0.383232578890     1.007825032230
         H           -2.458843811377     1.836631517264     0.345917421110     1.007825032230
         H           -2.292251811377    -2.478142482736     0.042301421110     1.007825032230
         H           -3.613619811377    -0.356872482736     0.442450421110     1.007825032230

  Basis Set: AUG-CC-PVTZ
    Blend: AUG-CC-PVTZ
  Basis Set: (AUG-CC-PVTZ AUX)
    Blend: AUG-CC-PVTZ-JKFIT
	 Reference Energy          =    -437.5911599173368813 [Eh]
	 Singles Energy            =      -0.0000000000000000 [Eh]
	 Same-Spin Energy          =      -0.4698264401840055 [Eh]
	 Opposite-Spin Energy      =      -1.4679501982206382 [Eh]
	 Correlation Energy        =      -1.9377766384046438 [Eh]
	 Total Energy              =    -439.5289365557415522 [Eh]

	 ================> DF-SCS-MP2 Energies <==================
	-----------------------------------------------------------
	 SCS Same-Spin Scale       =       0.3333333333333333 [-]
	 SCS Opposite-Spin Scale   =       1.2000000000000000 [-]
	 SCS Same-Spin Energy      =      -0.1566088133946685 [Eh]
	 SCS Opposite-Spin Energy  =      -1.7615402378647658 [Eh]
	 SCS Correlation Energy    =      -1.9181490512594344 [Eh]
	 SCS Total Energy          =    -439.5093089685963150 [Eh]
	-----------------------------------------------------------

  Dipole Moment: [D]
     X:    -0.2989      Y:    -4.5539      Z:     0.2468     Total:     4.5704

*** Psi4 exiting successfully. Buy a developer a beer!
