                               Psi4 1.3.2 release

  ==> Input File <==

--------------------------------------------------------------------------
#psi4
#
memory 32 gb

molecule  {
0 1
  O        0.0787650     2.1311770    -0.2164080
  N        0.1333340    -0.1752640    -0.2334700
  C        1.4504266    -0.1056984    -0.4926098
  C        2.4562500     0.4082890     0.5600040
  C        2.4806620    -1.0501060     0.1884540
  C       -0.5399690     1.0666720    -0.0960400
  C       -0.5048870    -1.3883940    -0.2151950
  C       -1.9528000     0.9321040     0.1889810
  C       -1.8475120    -1.4809310     0.0203080
  C       -2.5801750    -0.2831070     0.2328620
  H        1.7757480     0.1884380    -1.5349100
  H        1.9894860     0.6779030     1.5004770
  H        3.2759230     1.0506550     0.2582410
  H        3.3211070    -1.4385120    -0.3773670
  H        2.0523810    -1.7508080     0.8974130
  H        0.1298880    -2.2506920    -0.3908910
  H       -2.4932330     1.8615660     0.3382590
  H       -2.3266410    -2.4532080     0.0346430
  H       -3.6480090    -0.3319380     0.4347920
units angstrom
no_reorient  #important for SAPT in psi4, default
symmetry c1  #important for SAPT in psi4, default
}

set PROPERTIES_ORIGIN ["COM"]
properties('MP2/aug-cc-pvtz', properties = ['dipole'])
--------------------------------------------------------------------------

    Molecular point group: c1
  Charge       = 0
  Multiplicity = 1
  Basis Set: AUG-CC-PVTZ
    Blend: AUG-CC-PVTZ
  Basis Set: (AUG-CC-PVTZ AUX)
    Blend: AUG-CC-PVTZ-JKFIT

    Orbital Energies [Eh]
    ---------------------

    Doubly Occupied:

       1A    -20.511330     2A    -15.628462     3A    -11.352888
       4A    -11.308990     5A    -11.276620     6A    -11.272909
       7A    -11.244131     8A    -11.242434     9A    -11.239791
      10A    -11.234552    11A     -1.379544    12A     -1.299126
      13A     -1.145576    14A     -1.093940    15A     -1.028692
      16A     -0.916105    17A     -0.875728    18A     -0.824618
      19A     -0.810184    20A     -0.724533    21A     -0.702167
      22A     -0.683985    23A     -0.666534    24A     -0.641372
      25A     -0.609384    26A     -0.599963    27A     -0.571440
      28A     -0.550829    29A     -0.539729    30A     -0.524516
      31A     -0.484499    32A     -0.456887    33A     -0.425712
      34A     -0.418332    35A     -0.391584    36A     -0.311310

  @DF-RHF Final Energy:  -437.59722886723682

   => Energetics <=

    Nuclear Repulsion Energy =            509.5048886567649333
    One-Electron Energy =               -1604.2274411183495886
    Two-Electron Energy =                 657.1253235943478330
    Total Energy =                       -437.5972288672368222
  Basis Set: (AUG-CC-PVTZ AUX)
    Blend: AUG-CC-PVTZ-RI
    Molecular point group: c1

    Geometry (in Angstrom), charge = 0, multiplicity = 1:

       Center              X                  Y                   Z               Mass
    ------------   -----------------  -----------------  -----------------  -----------------
         O            0.117416357573     2.099057633901    -0.209598002268    15.994914619570
         N            0.171985357573    -0.207383366099    -0.226660002268    14.003074004430
         C            1.489077957573    -0.137817766099    -0.485799802268    12.000000000000
         C            2.494901357573     0.376169633901     0.566813997732    12.000000000000
         C            2.519313357573    -1.082225366099     0.195263997732    12.000000000000
         C           -0.501317642427     1.034552633901    -0.089230002268    12.000000000000
         C           -0.466235642427    -1.420513366099    -0.208385002268    12.000000000000
         C           -1.914148642427     0.899984633901     0.195790997732    12.000000000000
         C           -1.808860642427    -1.513050366099     0.027117997732    12.000000000000
         C           -2.541523642427    -0.315226366099     0.239671997732    12.000000000000
         H            1.814399357573     0.156318633901    -1.528100002268     1.007825032230
         H            2.028137357573     0.645783633901     1.507286997732     1.007825032230
         H            3.314574357573     1.018535633901     0.265050997732     1.007825032230
         H            3.359758357573    -1.470631366099    -0.370557002268     1.007825032230
         H            2.091032357573    -1.782927366099     0.904222997732     1.007825032230
         H            0.168539357573    -2.282811366099    -0.384081002268     1.007825032230
         H           -2.454581642427     1.829446633901     0.345068997732     1.007825032230
         H           -2.287989642427    -2.485327366099     0.041452997732     1.007825032230
         H           -3.609357642427    -0.364057366099     0.441601997732     1.007825032230

  Basis Set: AUG-CC-PVTZ
    Blend: AUG-CC-PVTZ
  Basis Set: (AUG-CC-PVTZ AUX)
    Blend: AUG-CC-PVTZ-JKFIT
	 Reference Energy          =    -437.5972288672368222 [Eh]
	 Singles Energy            =      -0.0000000000000000 [Eh]
	 Same-Spin Energy          =      -0.4688089399074075 [Eh]
	 Opposite-Spin Energy      =      -1.4665913275589135 [Eh]
	 Correlation Energy        =      -1.9354002674663211 [Eh]
	 Total Energy              =    -439.5326291347031429 [Eh]

	 ================> DF-SCS-MP2 Energies <==================
	-----------------------------------------------------------
	 SCS Same-Spin Scale       =       0.3333333333333333 [-]
	 SCS Opposite-Spin Scale   =       1.2000000000000000 [-]
	 SCS Same-Spin Energy      =      -0.1562696466358025 [Eh]
	 SCS Opposite-Spin Energy  =      -1.7599095930706963 [Eh]
	 SCS Correlation Energy    =      -1.9161792397064987 [Eh]
	 SCS Total Energy          =    -439.5134081069433023 [Eh]
	-----------------------------------------------------------

  Dipole Moment: [D]
     X:    -0.2975      Y:    -3.7544      Z:     0.2206     Total:     3.7727

*** Psi4 exiting successfully. Buy a developer a beer!
