                               Psi4 1.3.2 release

  ==> Input File <==

--------------------------------------------------------------------------
#psi4
#
memory 32 gb

molecule  {
0 1
  O        0.0787650     2.1311770    -0.2164080
  N        0.1333340    -0.1752640    -0.2334700
  C        1.5490405    -0.1256046    -0.5142970
  C        2.4562500     0.4082890     0.5600040
  C        2.4806620    -1.0501060     0.1884540
  C       -0.5399690     1.0666720    -0.0960400
  C       -0.5048870    -1.3883940    -0.2151950
  C       -1.9528000     0.9321040     0.1889810
  C       -1.8475120    -1.4809310     0.0203080
  C       -2.5801750    -0.2831070     0.2328620
  H        1.7757480     0.1884380    -1.5349100
  H        1.9894860     0.6779030     1.5004770
  H        3.2759230     1.0506550     0.2582410
  H        3.3211070    -1.4385120    -0.3773670
  H        2.0523810    -1.7508080     0.8974130
  H        0.1298880    -2.2506920    -0.3908910
  H       -2.4932330     1.8615660     0.3382590
  H       -2.3266410    -2.4532080     0.0346430
  H       -3.6480090    -0.3319380     0.4347920
units angstrom
no_reorient  #important for SAPT in psi4, default
symmetry c1  #important for SAPT in psi4, default
}

set PROPERTIES_ORIGIN ["COM"]
properties('MP2/aug-cc-pvtz', properties = ['dipole'])
--------------------------------------------------------------------------

    Molecular point group: c1
  Charge       = 0
  Multiplicity = 1
  Basis Set: AUG-CC-PVTZ
    Blend: AUG-CC-PVTZ
  Basis Set: (AUG-CC-PVTZ AUX)
    Blend: AUG-CC-PVTZ-JKFIT

    Orbital Energies [Eh]
    ---------------------

    Doubly Occupied:

       1A    -20.507117     2A    -15.627423     3A    -11.350294
       4A    -11.306770     5A    -11.279356     6A    -11.270424
       7A    -11.243905     8A    -11.239178     9A    -11.237078
      10A    -11.233600    11A     -1.369804    12A     -1.283400
      13A     -1.156851    14A     -1.096095    15A     -1.024527
      16A     -0.901211    17A     -0.869688    18A     -0.829562
      19A     -0.810418    20A     -0.725463    21A     -0.697875
      22A     -0.682050    23A     -0.664325    24A     -0.640610
      25A     -0.606155    26A     -0.594206    27A     -0.576711
      28A     -0.545402    29A     -0.535198    30A     -0.526440
      31A     -0.480409    32A     -0.455970    33A     -0.442680
      34A     -0.420565    35A     -0.397717    36A     -0.308684

  @DF-RHF Final Energy:  -437.61032693951501

   => Energetics <=

    Nuclear Repulsion Energy =            508.1749124287209725
    One-Electron Energy =               -1601.6961577129727630
    Two-Electron Energy =                 655.9109183447368423
    Total Energy =                       -437.6103269395149482
  Basis Set: (AUG-CC-PVTZ AUX)
    Blend: AUG-CC-PVTZ-RI
    Molecular point group: c1

    Geometry (in Angstrom), charge = 0, multiplicity = 1:

       Center              X                  Y                   Z               Mass
    ------------   -----------------  -----------------  -----------------  -----------------
         O            0.108655117505     2.100826177657    -0.207671227588    15.994914619570
         N            0.163224117505    -0.205614822343    -0.224733227588    14.003074004430
         C            1.578930617505    -0.155955422343    -0.505560227588    12.000000000000
         C            2.486140117505     0.377938177657     0.568740772412    12.000000000000
         C            2.510552117505    -1.080456822343     0.197190772412    12.000000000000
         C           -0.510078882495     1.036321177657    -0.087303227588    12.000000000000
         C           -0.474996882495    -1.418744822343    -0.206458227588    12.000000000000
         C           -1.922909882495     0.901753177657     0.197717772412    12.000000000000
         C           -1.817621882495    -1.511281822343     0.029044772412    12.000000000000
         C           -2.550284882495    -0.313457822343     0.241598772412    12.000000000000
         H            1.805638117505     0.158087177657    -1.526173227588     1.007825032230
         H            2.019376117505     0.647552177657     1.509213772412     1.007825032230
         H            3.305813117505     1.020304177657     0.266977772412     1.007825032230
         H            3.350997117505    -1.468862822343    -0.368630227588     1.007825032230
         H            2.082271117505    -1.781158822343     0.906149772412     1.007825032230
         H            0.159778117505    -2.281042822343    -0.382154227588     1.007825032230
         H           -2.463342882495     1.831215177657     0.346995772412     1.007825032230
         H           -2.296750882495    -2.483558822343     0.043379772412     1.007825032230
         H           -3.618118882495    -0.362288822343     0.443528772412     1.007825032230

  Basis Set: AUG-CC-PVTZ
    Blend: AUG-CC-PVTZ
  Basis Set: (AUG-CC-PVTZ AUX)
    Blend: AUG-CC-PVTZ-JKFIT
	 Reference Energy          =    -437.6103269395150051 [Eh]
	 Singles Energy            =      -0.0000000000000000 [Eh]
	 Same-Spin Energy          =      -0.4677872825535709 [Eh]
	 Opposite-Spin Energy      =      -1.4646694981544504 [Eh]
	 Correlation Energy        =      -1.9324567807080213 [Eh]
	 Total Energy              =    -439.5427837202230421 [Eh]

	 ================> DF-SCS-MP2 Energies <==================
	-----------------------------------------------------------
	 SCS Same-Spin Scale       =       0.3333333333333333 [-]
	 SCS Opposite-Spin Scale   =       1.2000000000000000 [-]
	 SCS Same-Spin Energy      =      -0.1559290941845236 [Eh]
	 SCS Opposite-Spin Energy  =      -1.7576033977853405 [Eh]
	 SCS Correlation Energy    =      -1.9135324919698642 [Eh]
	 SCS Total Energy          =    -439.5238594314848797 [Eh]
	-----------------------------------------------------------

  Dipole Moment: [D]
     X:    -0.0059      Y:    -3.8127      Z:     0.1547     Total:     3.8158

*** Psi4 exiting successfully. Buy a developer a beer!
