                               Psi4 1.4a3.dev225

  ==> Input File <==

--------------------------------------------------------------------------
#psi4
#
memory 32 gb

molecule  {
0 1
  O        0.0787650     2.1311770    -0.2164080
  N        0.1333340    -0.1752640    -0.2334700
  C        1.5288165    -0.1015581    -0.5080332
  C        2.4562500     0.4082890     0.5600040
  C        2.4806620    -1.0501060     0.1884540
  C       -0.5399690     1.0666720    -0.0960400
  C       -0.5048870    -1.3883940    -0.2151950
  C       -1.9528000     0.9321040     0.1889810
  C       -1.8475120    -1.4809310     0.0203080
  C       -2.5801750    -0.2831070     0.2328620
  H        1.7757480     0.1884380    -1.5349100
  H        1.9894860     0.6779030     1.5004770
  H        3.2759230     1.0506550     0.2582410
  H        3.3211070    -1.4385120    -0.3773670
  H        2.0523810    -1.7508080     0.8974130
  H        0.1298880    -2.2506920    -0.3908910
  H       -2.4932330     1.8615660     0.3382590
  H       -2.3266410    -2.4532080     0.0346430
  H       -3.6480090    -0.3319380     0.4347920
units angstrom
no_reorient  #important for SAPT in psi4, default
symmetry c1  #important for SAPT in psi4, default
}

set PROPERTIES_ORIGIN ["COM"]
properties('MP2/aug-cc-pvtz', properties = ['dipole'])
--------------------------------------------------------------------------

    Molecular point group: c1
  Charge       = 0
  Multiplicity = 1
  Basis Set: AUG-CC-PVTZ
    Blend: AUG-CC-PVTZ
  Basis Set: (AUG-CC-PVTZ AUX)
    Blend: AUG-CC-PVTZ-JKFIT

    Orbital Energies [Eh]
    ---------------------

    Doubly Occupied:

       1A    -20.508025     2A    -15.627775     3A    -11.350604
       4A    -11.307513     5A    -11.278619     6A    -11.270943
       7A    -11.243321     8A    -11.239957     9A    -11.237535
      10A    -11.234109    11A     -1.371715    12A     -1.285998
      13A     -1.153432    14A     -1.095939    15A     -1.025418
      16A     -0.904323    17A     -0.870158    18A     -0.828476
      19A     -0.810488    20A     -0.725882    21A     -0.698389
      22A     -0.682411    23A     -0.664168    24A     -0.640398
      25A     -0.606840    26A     -0.595256    27A     -0.576243
      28A     -0.547262    29A     -0.536381    30A     -0.525896
      31A     -0.481389    32A     -0.455641    33A     -0.436124
      34A     -0.421255    35A     -0.398698    36A     -0.309377

  @DF-RHF Final Energy:  -437.61006229560098

   => Energetics <=

    Nuclear Repulsion Energy =            508.4530026617163685
    One-Electron Energy =               -1602.2342187238643874
    Two-Electron Energy =                 656.1711537665469223
    Total Energy =                       -437.6100622956009829
  Basis Set: (AUG-CC-PVTZ AUX)
    Blend: AUG-CC-PVTZ-RI
    Molecular point group: c1

    Geometry (in Angstrom), charge = 0, multiplicity = 1:

       Center              X                  Y                   Z               Mass
    ------------   -----------------  -----------------  -----------------  -----------------
         O            0.110451895841     2.098689793645    -0.208227727793    15.994914619570
         N            0.165020895841    -0.207751206355    -0.225289727793    14.003074004430
         C            1.560503395841    -0.134045306355    -0.499852927793    12.000000000000
         C            2.487936895841     0.375801793645     0.568184272207    12.000000000000
         C            2.512348895841    -1.082593206355     0.196634272207    12.000000000000
         C           -0.508282104159     1.034184793645    -0.087859727793    12.000000000000
         C           -0.473200104159    -1.420881206355    -0.207014727793    12.000000000000
         C           -1.921113104159     0.899616793645     0.197161272207    12.000000000000
         C           -1.815825104159    -1.513418206355     0.028488272207    12.000000000000
         C           -2.548488104159    -0.315594206355     0.241042272207    12.000000000000
         H            1.807434895841     0.155950793645    -1.526729727793     1.007825032230
         H            2.021172895841     0.645415793645     1.508657272207     1.007825032230
         H            3.307609895841     1.018167793645     0.266421272207     1.007825032230
         H            3.352793895841    -1.470999206355    -0.369186727793     1.007825032230
         H            2.084067895841    -1.783295206355     0.905593272207     1.007825032230
         H            0.161574895841    -2.283179206355    -0.382710727793     1.007825032230
         H           -2.461546104159     1.829078793645     0.346439272207     1.007825032230
         H           -2.294954104159    -2.485695206355     0.042823272207     1.007825032230
         H           -3.616322104159    -0.364425206355     0.442972272207     1.007825032230

  Basis Set: AUG-CC-PVTZ
    Blend: AUG-CC-PVTZ
  Basis Set: (AUG-CC-PVTZ AUX)
    Blend: AUG-CC-PVTZ-JKFIT
	 Reference Energy          =    -437.6100622956009829 [Eh]
	 Singles Energy            =      -0.0000000000000000 [Eh]
	 Same-Spin Energy          =      -0.4678678026897476 [Eh]
	 Opposite-Spin Energy      =      -1.4648817389922972 [Eh]
	 Correlation Energy        =      -1.9327495416820448 [Eh]
	 Total Energy              =    -439.5428118372830113 [Eh]

	 ================> DF-SCS-MP2 Energies <==================
	-----------------------------------------------------------
	 SCS Same-Spin Scale       =       0.3333333333333333 [-]
	 SCS Opposite-Spin Scale   =       1.2000000000000000 [-]
	 SCS Same-Spin Energy      =      -0.1559559342299159 [Eh]
	 SCS Opposite-Spin Energy  =      -1.7578580867907567 [Eh]
	 SCS Correlation Energy    =      -1.9138140210206727 [Eh]
	 SCS Total Energy          =    -439.5238763166216813 [Eh]
	-----------------------------------------------------------

  Dipole Moment: [D]
     X:    -0.0712      Y:    -3.7855      Z:     0.1677     Total:     3.7899

*** Psi4 exiting successfully. Buy a developer a beer!
