                               Psi4 1.3.2 release

  ==> Input File <==

--------------------------------------------------------------------------
#psi4
#
memory 32 gb

molecule  {
0 1
  O        0.0787650     2.1311770    -0.2164080
  N        0.1333340    -0.1752640    -0.2334700
  C        1.5399255    -0.0001023    -0.5098275
  C        2.4562500     0.4082890     0.5600040
  C        2.4806620    -1.0501060     0.1884540
  C       -0.5399690     1.0666720    -0.0960400
  C       -0.5048870    -1.3883940    -0.2151950
  C       -1.9528000     0.9321040     0.1889810
  C       -1.8475120    -1.4809310     0.0203080
  C       -2.5801750    -0.2831070     0.2328620
  H        1.7757480     0.1884380    -1.5349100
  H        1.9894860     0.6779030     1.5004770
  H        3.2759230     1.0506550     0.2582410
  H        3.3211070    -1.4385120    -0.3773670
  H        2.0523810    -1.7508080     0.8974130
  H        0.1298880    -2.2506920    -0.3908910
  H       -2.4932330     1.8615660     0.3382590
  H       -2.3266410    -2.4532080     0.0346430
  H       -3.6480090    -0.3319380     0.4347920
units angstrom
no_reorient  #important for SAPT in psi4, default
symmetry c1  #important for SAPT in psi4, default
}

set PROPERTIES_ORIGIN ["COM"]
properties('MP2/aug-cc-pvtz', properties = ['dipole'])
--------------------------------------------------------------------------

    Molecular point group: c1
  Charge       = 0
  Multiplicity = 1
  Basis Set: AUG-CC-PVTZ
    Blend: AUG-CC-PVTZ
  Basis Set: (AUG-CC-PVTZ AUX)
    Blend: AUG-CC-PVTZ-JKFIT

    Orbital Energies [Eh]
    ---------------------

    Doubly Occupied:

       1A    -20.507942     2A    -15.627527     3A    -11.349078
       4A    -11.308411     5A    -11.281084     6A    -11.270589
       7A    -11.240814     8A    -11.240084     9A    -11.236716
      10A    -11.236677    11A     -1.371742    12A     -1.281934
      13A     -1.151737    14A     -1.094325    15A     -1.025158
      16A     -0.904168    17A     -0.865965    18A     -0.829380
      19A     -0.812728    20A     -0.727786    21A     -0.696583
      22A     -0.682485    23A     -0.660928    24A     -0.639141
      25A     -0.606708    26A     -0.593799    27A     -0.579608
      28A     -0.549376    29A     -0.535970    30A     -0.525205
      31A     -0.482376    32A     -0.466657    33A     -0.421336
      34A     -0.416682    35A     -0.403152    36A     -0.309555

  @DF-RHF Final Energy:  -437.60428725186472

   => Energetics <=

    Nuclear Repulsion Energy =            508.2235147639789261
    One-Electron Energy =               -1601.7887941408237111
    Two-Electron Energy =                 655.9609921249800664
    Total Energy =                       -437.6042872518646618
  Basis Set: (AUG-CC-PVTZ AUX)
    Blend: AUG-CC-PVTZ-RI
    Molecular point group: c1

    Geometry (in Angstrom), charge = 0, multiplicity = 1:

       Center              X                  Y                   Z               Mass
    ------------   -----------------  -----------------  -----------------  -----------------
         O            0.109464929339     2.089676068195    -0.208068315245    15.994914619570
         N            0.164033929339    -0.216764931805    -0.225130315245    14.003074004430
         C            1.570625429339    -0.041603231805    -0.501487815245    12.000000000000
         C            2.486949929339     0.366788068195     0.568343684755    12.000000000000
         C            2.511361929339    -1.091606931805     0.196793684755    12.000000000000
         C           -0.509269070661     1.025171068195    -0.087700315245    12.000000000000
         C           -0.474187070661    -1.429894931805    -0.206855315245    12.000000000000
         C           -1.922100070661     0.890603068195     0.197320684755    12.000000000000
         C           -1.816812070661    -1.522431931805     0.028647684755    12.000000000000
         C           -2.549475070661    -0.324607931805     0.241201684755    12.000000000000
         H            1.806447929339     0.146937068195    -1.526570315245     1.007825032230
         H            2.020185929339     0.636402068195     1.508816684755     1.007825032230
         H            3.306622929339     1.009154068195     0.266580684755     1.007825032230
         H            3.351806929339    -1.480012931805    -0.369027315245     1.007825032230
         H            2.083080929339    -1.792308931805     0.905752684755     1.007825032230
         H            0.160587929339    -2.292192931805    -0.382551315245     1.007825032230
         H           -2.462533070661     1.820065068195     0.346598684755     1.007825032230
         H           -2.295941070661    -2.494708931805     0.042982684755     1.007825032230
         H           -3.617309070661    -0.373438931805     0.443131684755     1.007825032230

  Basis Set: AUG-CC-PVTZ
    Blend: AUG-CC-PVTZ
  Basis Set: (AUG-CC-PVTZ AUX)
    Blend: AUG-CC-PVTZ-JKFIT
	 Reference Energy          =    -437.6042872518647187 [Eh]
	 Singles Energy            =      -0.0000000000000000 [Eh]
	 Same-Spin Energy          =      -0.4680359287205397 [Eh]
	 Opposite-Spin Energy      =      -1.4655167760638870 [Eh]
	 Correlation Energy        =      -1.9335527047844265 [Eh]
	 Total Energy              =    -439.5378399566491225 [Eh]

	 ================> DF-SCS-MP2 Energies <==================
	-----------------------------------------------------------
	 SCS Same-Spin Scale       =       0.3333333333333333 [-]
	 SCS Opposite-Spin Scale   =       1.2000000000000000 [-]
	 SCS Same-Spin Energy      =      -0.1560119762401799 [Eh]
	 SCS Opposite-Spin Energy  =      -1.7586201312766643 [Eh]
	 SCS Correlation Energy    =      -1.9146321075168442 [Eh]
	 SCS Total Energy          =    -439.5189193593815844 [Eh]
	-----------------------------------------------------------

  Dipole Moment: [D]
     X:    -0.0631      Y:    -3.7078      Z:     0.1599     Total:     3.7118

*** Psi4 exiting successfully. Buy a developer a beer!
