                               Psi4 1.3.2 release

  ==> Input File <==

--------------------------------------------------------------------------
#psi4
#
memory 32 gb

molecule  {
0 1
  O        0.0787650     2.1311770    -0.2164080
  N        0.1655232    -0.1206558    -0.0962418
  C        1.5484140    -0.1005230    -0.5118890
  C        2.4562500     0.4082890     0.5600040
  C        2.4806620    -1.0501060     0.1884540
  C       -0.5399690     1.0666720    -0.0960400
  C       -0.5048870    -1.3883940    -0.2151950
  C       -1.9528000     0.9321040     0.1889810
  C       -1.8475120    -1.4809310     0.0203080
  C       -2.5801750    -0.2831070     0.2328620
  H        1.7757480     0.1884380    -1.5349100
  H        1.9894860     0.6779030     1.5004770
  H        3.2759230     1.0506550     0.2582410
  H        3.3211070    -1.4385120    -0.3773670
  H        2.0523810    -1.7508080     0.8974130
  H        0.1298880    -2.2506920    -0.3908910
  H       -2.4932330     1.8615660     0.3382590
  H       -2.3266410    -2.4532080     0.0346430
  H       -3.6480090    -0.3319380     0.4347920
units angstrom
no_reorient  #important for SAPT in psi4, default
symmetry c1  #important for SAPT in psi4, default
}

set PROPERTIES_ORIGIN ["COM"]
properties('MP2/aug-cc-pvtz', properties = ['dipole'])
--------------------------------------------------------------------------

    Molecular point group: c1
  Charge       = 0
  Multiplicity = 1
  Basis Set: AUG-CC-PVTZ
    Blend: AUG-CC-PVTZ
  Basis Set: (AUG-CC-PVTZ AUX)
    Blend: AUG-CC-PVTZ-JKFIT

    Orbital Energies [Eh]
    ---------------------

    Doubly Occupied:

       1A    -20.503814     2A    -15.623746     3A    -11.345484
       4A    -11.309211     5A    -11.276712     6A    -11.271903
       7A    -11.246269     8A    -11.241367     9A    -11.241222
      10A    -11.228695    11A     -1.371273    12A     -1.271768
      13A     -1.154199    14A     -1.095941    15A     -1.025634
      16A     -0.899553    17A     -0.866888    18A     -0.828445
      19A     -0.802952    20A     -0.725539    21A     -0.701097
      22A     -0.679737    23A     -0.660320    24A     -0.640012
      25A     -0.607061    26A     -0.589152    27A     -0.578420
      28A     -0.545380    29A     -0.538880    30A     -0.522266
      31A     -0.474291    32A     -0.450698    33A     -0.437683
      34A     -0.421978    35A     -0.396299    36A     -0.315746

  @DF-RHF Final Energy:  -437.60163724703716

   => Energetics <=

    Nuclear Repulsion Energy =            508.4055115363401001
    One-Electron Energy =               -1602.2350284921210459
    Two-Electron Energy =                 656.2278797087437852
    Total Energy =                       -437.6016372470371607
  Basis Set: (AUG-CC-PVTZ AUX)
    Blend: AUG-CC-PVTZ-RI
    Molecular point group: c1

    Geometry (in Angstrom), charge = 0, multiplicity = 1:

       Center              X                  Y                   Z               Mass
    ------------   -----------------  -----------------  -----------------  -----------------
         O            0.105373597148     2.092936384367    -0.222112151144    15.994914619570
         N            0.192131797148    -0.158896415633    -0.101945951144    14.003074004430
         C            1.575022597148    -0.138763615633    -0.517593151144    12.000000000000
         C            2.482858597148     0.370048384367     0.554299848856    12.000000000000
         C            2.507270597148    -1.088346615633     0.182749848856    12.000000000000
         C           -0.513360402852     1.028431384367    -0.101744151144    12.000000000000
         C           -0.478278402852    -1.426634615633    -0.220899151144    12.000000000000
         C           -1.926191402852     0.893863384367     0.183276848856    12.000000000000
         C           -1.820903402852    -1.519171615633     0.014603848856    12.000000000000
         C           -2.553566402852    -0.321347615633     0.227157848856    12.000000000000
         H            1.802356597148     0.150197384367    -1.540614151144     1.007825032230
         H            2.016094597148     0.639662384367     1.494772848856     1.007825032230
         H            3.302531597148     1.012414384367     0.252536848856     1.007825032230
         H            3.347715597148    -1.476752615633    -0.383071151144     1.007825032230
         H            2.078989597148    -1.789048615633     0.891708848856     1.007825032230
         H            0.156496597148    -2.288932615633    -0.396595151144     1.007825032230
         H           -2.466624402852     1.823325384367     0.332554848856     1.007825032230
         H           -2.300032402852    -2.491448615633     0.028938848856     1.007825032230
         H           -3.621400402852    -0.370178615633     0.429087848856     1.007825032230

  Basis Set: AUG-CC-PVTZ
    Blend: AUG-CC-PVTZ
  Basis Set: (AUG-CC-PVTZ AUX)
    Blend: AUG-CC-PVTZ-JKFIT
	 Reference Energy          =    -437.6016372470371607 [Eh]
	 Singles Energy            =      -0.0000000000000000 [Eh]
	 Same-Spin Energy          =      -0.4671180278156625 [Eh]
	 Opposite-Spin Energy      =      -1.4654506884222982 [Eh]
	 Correlation Energy        =      -1.9325687162379608 [Eh]
	 Total Energy              =    -439.5342059632750988 [Eh]

	 ================> DF-SCS-MP2 Energies <==================
	-----------------------------------------------------------
	 SCS Same-Spin Scale       =       0.3333333333333333 [-]
	 SCS Opposite-Spin Scale   =       1.2000000000000000 [-]
	 SCS Same-Spin Energy      =      -0.1557060092718875 [Eh]
	 SCS Opposite-Spin Energy  =      -1.7585408261067579 [Eh]
	 SCS Correlation Energy    =      -1.9142468353786453 [Eh]
	 SCS Total Energy          =    -439.5158840824158233 [Eh]
	-----------------------------------------------------------

  Dipole Moment: [D]
     X:    -0.3127      Y:    -3.9009      Z:     0.0821     Total:     3.9142

*** Psi4 exiting successfully. Buy a developer a beer!
