                               Psi4 1.3.2 release

  ==> Input File <==

--------------------------------------------------------------------------
#psi4
#
memory 32 gb

molecule  {
0 1
  O        0.0787650     2.1311770    -0.2164080
  N        0.1333340    -0.1752640    -0.2334700
  C        1.5484140    -0.1005230    -0.5118890
  C        2.4562500     0.4082890     0.5600040
  C        2.4806620    -1.0501060     0.1884540
  C       -0.5874055     1.1541707    -0.0863576
  C       -0.5048870    -1.3883940    -0.2151950
  C       -1.9528000     0.9321040     0.1889810
  C       -1.8475120    -1.4809310     0.0203080
  C       -2.5801750    -0.2831070     0.2328620
  H        1.7757480     0.1884380    -1.5349100
  H        1.9894860     0.6779030     1.5004770
  H        3.2759230     1.0506550     0.2582410
  H        3.3211070    -1.4385120    -0.3773670
  H        2.0523810    -1.7508080     0.8974130
  H        0.1298880    -2.2506920    -0.3908910
  H       -2.4932330     1.8615660     0.3382590
  H       -2.3266410    -2.4532080     0.0346430
  H       -3.6480090    -0.3319380     0.4347920
units angstrom
no_reorient  #important for SAPT in psi4, default
symmetry c1  #important for SAPT in psi4, default
}

set PROPERTIES_ORIGIN ["COM"]
properties('MP2/aug-cc-pvtz', properties = ['dipole'])
--------------------------------------------------------------------------

    Molecular point group: c1
  Charge       = 0
  Multiplicity = 1
  Basis Set: AUG-CC-PVTZ
    Blend: AUG-CC-PVTZ
  Basis Set: (AUG-CC-PVTZ AUX)
    Blend: AUG-CC-PVTZ-JKFIT

    Orbital Energies [Eh]
    ---------------------

    Doubly Occupied:

       1A    -20.521931     2A    -15.615168     3A    -11.353644
       4A    -11.305391     5A    -11.275055     6A    -11.274724
       7A    -11.240197     8A    -11.232134     9A    -11.231491
      10A    -11.230683    11A     -1.398330    12A     -1.273417
      13A     -1.151811    14A     -1.091480    15A     -1.022778
      16A     -0.902506    17A     -0.853074    18A     -0.821867
      19A     -0.811210    20A     -0.720977    21A     -0.693297
      22A     -0.682893    23A     -0.664135    24A     -0.634698
      25A     -0.620553    26A     -0.590706    27A     -0.578991
      28A     -0.548492    29A     -0.533608    30A     -0.524279
      31A     -0.497261    32A     -0.453903    33A     -0.439508
      34A     -0.420091    35A     -0.395164    36A     -0.306243

  @DF-RHF Final Energy:  -437.60178327674538

   => Energetics <=

    Nuclear Repulsion Energy =            507.3433522159510289
    One-Electron Energy =               -1600.0668954695574939
    Two-Electron Energy =                 655.1217599768611990
    Total Energy =                       -437.6017832767453228
  Basis Set: (AUG-CC-PVTZ AUX)
    Blend: AUG-CC-PVTZ-RI
    Molecular point group: c1

    Geometry (in Angstrom), charge = 0, multiplicity = 1:

       Center              X                  Y                   Z               Mass
    ------------   -----------------  -----------------  -----------------  -----------------
         O            0.112925220212     2.090824108625    -0.208745385460    15.994914619570
         N            0.167494220212    -0.215616891375    -0.225807385460    14.003074004430
         C            1.582574220212    -0.140875891375    -0.504226385460    12.000000000000
         C            2.490410220212     0.367936108625     0.567666614540    12.000000000000
         C            2.514822220212    -1.090458891375     0.196116614540    12.000000000000
         C           -0.553245279788     1.113817808625    -0.078694985460    12.000000000000
         C           -0.470726779788    -1.428746891375    -0.207532385460    12.000000000000
         C           -1.918639779788     0.891751108625     0.196643614540    12.000000000000
         C           -1.813351779788    -1.521283891375     0.027970614540    12.000000000000
         C           -2.546014779788    -0.323459891375     0.240524614540    12.000000000000
         H            1.809908220212     0.148085108625    -1.527247385460     1.007825032230
         H            2.023646220212     0.637550108625     1.508139614540     1.007825032230
         H            3.310083220212     1.010302108625     0.265903614540     1.007825032230
         H            3.355267220212    -1.478864891375    -0.369704385460     1.007825032230
         H            2.086541220212    -1.791160891375     0.905075614540     1.007825032230
         H            0.164048220212    -2.291044891375    -0.383228385460     1.007825032230
         H           -2.459072779788     1.821213108625     0.345921614540     1.007825032230
         H           -2.292480779788    -2.493560891375     0.042305614540     1.007825032230
         H           -3.613848779788    -0.372290891375     0.442454614540     1.007825032230

  Basis Set: AUG-CC-PVTZ
    Blend: AUG-CC-PVTZ
  Basis Set: (AUG-CC-PVTZ AUX)
    Blend: AUG-CC-PVTZ-JKFIT
	 Reference Energy          =    -437.6017832767453797 [Eh]
	 Singles Energy            =      -0.0000000000000000 [Eh]
	 Same-Spin Energy          =      -0.4684111971166308 [Eh]
	 Opposite-Spin Energy      =      -1.4647489958750466 [Eh]
	 Correlation Energy        =      -1.9331601929916773 [Eh]
	 Total Energy              =    -439.5349434697370725 [Eh]

	 ================> DF-SCS-MP2 Energies <==================
	-----------------------------------------------------------
	 SCS Same-Spin Scale       =       0.3333333333333333 [-]
	 SCS Opposite-Spin Scale   =       1.2000000000000000 [-]
	 SCS Same-Spin Energy      =      -0.1561370657055436 [Eh]
	 SCS Opposite-Spin Energy  =      -1.7576987950500558 [Eh]
	 SCS Correlation Energy    =      -1.9138358607555994 [Eh]
	 SCS Total Energy          =    -439.5156191375010053 [Eh]
	-----------------------------------------------------------

  Dipole Moment: [D]
     X:     0.0053      Y:    -3.2580      Z:     0.1239     Total:     3.2603

*** Psi4 exiting successfully. Buy a developer a beer!
