                               Psi4 1.3.2 release

  ==> Input File <==

--------------------------------------------------------------------------
#psi4
#
memory 32 gb

molecule  {
0 1
  O        0.0787650     2.1311770    -0.2164080
  N        0.1166487    -0.2290533    -0.3737486
  C        1.5484140    -0.1005230    -0.5118890
  C        2.4562500     0.4082890     0.5600040
  C        2.4806620    -1.0501060     0.1884540
  C       -0.5399690     1.0666720    -0.0960400
  C       -0.5048870    -1.3883940    -0.2151950
  C       -1.9528000     0.9321040     0.1889810
  C       -1.8475120    -1.4809310     0.0203080
  C       -2.5801750    -0.2831070     0.2328620
  H        1.7757480     0.1884380    -1.5349100
  H        1.9894860     0.6779030     1.5004770
  H        3.2759230     1.0506550     0.2582410
  H        3.3211070    -1.4385120    -0.3773670
  H        2.0523810    -1.7508080     0.8974130
  H        0.1298880    -2.2506920    -0.3908910
  H       -2.4932330     1.8615660     0.3382590
  H       -2.3266410    -2.4532080     0.0346430
  H       -3.6480090    -0.3319380     0.4347920
units angstrom
no_reorient  #important for SAPT in psi4, default
symmetry c1  #important for SAPT in psi4, default
}

set PROPERTIES_ORIGIN ["COM"]
properties('MP2/aug-cc-pvtz', properties = ['dipole'])
--------------------------------------------------------------------------

    Molecular point group: c1
  Charge       = 0
  Multiplicity = 1
  Basis Set: AUG-CC-PVTZ
    Blend: AUG-CC-PVTZ
  Basis Set: (AUG-CC-PVTZ AUX)
    Blend: AUG-CC-PVTZ-JKFIT

    Orbital Energies [Eh]
    ---------------------

    Doubly Occupied:

       1A    -20.515085     2A    -15.628560     3A    -11.356794
       4A    -11.304106     5A    -11.280362     6A    -11.270580
       7A    -11.243917     8A    -11.238571     9A    -11.233903
      10A    -11.233357    11A     -1.369861    12A     -1.291550
      13A     -1.156908    14A     -1.096302    15A     -1.020687
      16A     -0.904098    17A     -0.865058    18A     -0.829924
      19A     -0.814868    20A     -0.723926    21A     -0.692769
      22A     -0.684307    23A     -0.665815    24A     -0.640186
      25A     -0.606077    26A     -0.595997    27A     -0.575704
      28A     -0.545726    29A     -0.533466    30A     -0.528199
      31A     -0.488029    32A     -0.459106    33A     -0.440202
      34A     -0.419597    35A     -0.402730    36A     -0.303421

  @DF-RHF Final Energy:  -437.60078824965785

   => Energetics <=

    Nuclear Repulsion Energy =            507.3977141401982749
    One-Electron Energy =               -1600.0775063870803478
    Two-Electron Energy =                 655.0790039972241630
    Total Energy =                       -437.6007882496578532
  Basis Set: (AUG-CC-PVTZ AUX)
    Blend: AUG-CC-PVTZ-RI
    Molecular point group: c1

    Geometry (in Angstrom), charge = 0, multiplicity = 1:

       Center              X                  Y                   Z               Mass
    ------------   -----------------  -----------------  -----------------  -----------------
         O            0.110440608899     2.104174379768    -0.193341929117    15.994914619570
         N            0.148324308899    -0.256055920232    -0.350682529117    14.003074004430
         C            1.580089608899    -0.127525620232    -0.488822929117    12.000000000000
         C            2.487925608899     0.381286379768     0.583070070883    12.000000000000
         C            2.512337608899    -1.077108620232     0.211520070883    12.000000000000
         C           -0.508293391101     1.039669379768    -0.072973929117    12.000000000000
         C           -0.473211391101    -1.415396620232    -0.192128929117    12.000000000000
         C           -1.921124391101     0.905101379768     0.212047070883    12.000000000000
         C           -1.815836391101    -1.507933620232     0.043374070883    12.000000000000
         C           -2.548499391101    -0.310109620232     0.255928070883    12.000000000000
         H            1.807423608899     0.161435379768    -1.511843929117     1.007825032230
         H            2.021161608899     0.650900379768     1.523543070883     1.007825032230
         H            3.307598608899     1.023652379768     0.281307070883     1.007825032230
         H            3.352782608899    -1.465514620232    -0.354300929117     1.007825032230
         H            2.084056608899    -1.777810620232     0.920479070883     1.007825032230
         H            0.161563608899    -2.277694620232    -0.367824929117     1.007825032230
         H           -2.461557391101     1.834563379768     0.361325070883     1.007825032230
         H           -2.294965391101    -2.480210620232     0.057709070883     1.007825032230
         H           -3.616333391101    -0.358940620232     0.457858070883     1.007825032230

  Basis Set: AUG-CC-PVTZ
    Blend: AUG-CC-PVTZ
  Basis Set: (AUG-CC-PVTZ AUX)
    Blend: AUG-CC-PVTZ-JKFIT
	 Reference Energy          =    -437.6007882496578532 [Eh]
	 Singles Energy            =      -0.0000000000000000 [Eh]
	 Same-Spin Energy          =      -0.4685810879651401 [Eh]
	 Opposite-Spin Energy      =      -1.4656000141456371 [Eh]
	 Correlation Energy        =      -1.9341811021107773 [Eh]
	 Total Energy              =    -439.5349693517686092 [Eh]

	 ================> DF-SCS-MP2 Energies <==================
	-----------------------------------------------------------
	 SCS Same-Spin Scale       =       0.3333333333333333 [-]
	 SCS Opposite-Spin Scale   =       1.2000000000000000 [-]
	 SCS Same-Spin Energy      =      -0.1561936959883800 [Eh]
	 SCS Opposite-Spin Energy  =      -1.7587200169747645 [Eh]
	 SCS Correlation Energy    =      -1.9149137129631446 [Eh]
	 SCS Total Energy          =    -439.5157019626209944 [Eh]
	-----------------------------------------------------------

  Dipole Moment: [D]
     X:     0.1708      Y:    -3.5617      Z:     0.2284     Total:     3.5731

*** Psi4 exiting successfully. Buy a developer a beer!
