                               Psi4 1.3.2 release

  ==> Input File <==

--------------------------------------------------------------------------
#psi4
#
memory 32 gb

molecule  {
0 1
  O        0.0787650     2.1311770    -0.2164080
  N        0.1333340    -0.1752640    -0.2334700
  C        1.5331076     0.0498184    -0.5082910
  C        2.4562500     0.4082890     0.5600040
  C        2.4806620    -1.0501060     0.1884540
  C       -0.5399690     1.0666720    -0.0960400
  C       -0.5048870    -1.3883940    -0.2151950
  C       -1.9528000     0.9321040     0.1889810
  C       -1.8475120    -1.4809310     0.0203080
  C       -2.5801750    -0.2831070     0.2328620
  H        1.7757480     0.1884380    -1.5349100
  H        1.9894860     0.6779030     1.5004770
  H        3.2759230     1.0506550     0.2582410
  H        3.3211070    -1.4385120    -0.3773670
  H        2.0523810    -1.7508080     0.8974130
  H        0.1298880    -2.2506920    -0.3908910
  H       -2.4932330     1.8615660     0.3382590
  H       -2.3266410    -2.4532080     0.0346430
  H       -3.6480090    -0.3319380     0.4347920
units angstrom
no_reorient  #important for SAPT in psi4, default
symmetry c1  #important for SAPT in psi4, default
}

set PROPERTIES_ORIGIN ["COM"]
properties('MP2/aug-cc-pvtz', properties = ['dipole'])
--------------------------------------------------------------------------

    Molecular point group: c1
  Charge       = 0
  Multiplicity = 1
  Basis Set: AUG-CC-PVTZ
    Blend: AUG-CC-PVTZ
  Basis Set: (AUG-CC-PVTZ AUX)
    Blend: AUG-CC-PVTZ-JKFIT

    Orbital Energies [Eh]
    ---------------------

    Doubly Occupied:

       1A    -20.508537     2A    -15.627953     3A    -11.348873
       4A    -11.309195     5A    -11.283272     6A    -11.270782
       7A    -11.240571     8A    -11.239598     9A    -11.238143
      10A    -11.236678    11A     -1.372930    12A     -1.281686
      13A     -1.149646    14A     -1.093533    15A     -1.025600
      16A     -0.905605    17A     -0.864729    18A     -0.829611
      19A     -0.813333    20A     -0.728531    21A     -0.696181
      22A     -0.682687    23A     -0.659375    24A     -0.638366
      25A     -0.607152    26A     -0.593731    27A     -0.580311
      28A     -0.550753    29A     -0.536328    30A     -0.524649
      31A     -0.484256    32A     -0.472590    33A     -0.421575
      34A     -0.411577    35A     -0.396360    36A     -0.310035

  @DF-RHF Final Energy:  -437.59676092816602

   => Energetics <=

    Nuclear Repulsion Energy =            508.2204068979777958
    One-Electron Energy =               -1601.7648771108442816
    Two-Electron Energy =                 655.9477092847005224
    Total Energy =                       -437.5967609281660771
  Basis Set: (AUG-CC-PVTZ AUX)
    Blend: AUG-CC-PVTZ-RI
    Molecular point group: c1

    Geometry (in Angstrom), charge = 0, multiplicity = 1:

       Center              X                  Y                   Z               Mass
    ------------   -----------------  -----------------  -----------------  -----------------
         O            0.110070657929     2.085240920238    -0.208204823845    15.994914619570
         N            0.164639657929    -0.221200079762    -0.225266823845    14.003074004430
         C            1.564413257929     0.003882320238    -0.500087823845    12.000000000000
         C            2.487555657929     0.362352920238     0.568207176155    12.000000000000
         C            2.511967657929    -1.096042079762     0.196657176155    12.000000000000
         C           -0.508663342071     1.020735920238    -0.087836823845    12.000000000000
         C           -0.473581342071    -1.434330079762    -0.206991823845    12.000000000000
         C           -1.921494342071     0.886167920238     0.197184176155    12.000000000000
         C           -1.816206342071    -1.526867079762     0.028511176155    12.000000000000
         C           -2.548869342071    -0.329043079762     0.241065176155    12.000000000000
         H            1.807053657929     0.142501920238    -1.526706823845     1.007825032230
         H            2.020791657929     0.631966920238     1.508680176155     1.007825032230
         H            3.307228657929     1.004718920238     0.266444176155     1.007825032230
         H            3.352412657929    -1.484448079762    -0.369163823845     1.007825032230
         H            2.083686657929    -1.796744079762     0.905616176155     1.007825032230
         H            0.161193657929    -2.296628079762    -0.382687823845     1.007825032230
         H           -2.461927342071     1.815629920238     0.346462176155     1.007825032230
         H           -2.295335342071    -2.499144079762     0.042846176155     1.007825032230
         H           -3.616703342071    -0.377874079762     0.442995176155     1.007825032230

  Basis Set: AUG-CC-PVTZ
    Blend: AUG-CC-PVTZ
  Basis Set: (AUG-CC-PVTZ AUX)
    Blend: AUG-CC-PVTZ-JKFIT
	 Reference Energy          =    -437.5967609281660202 [Eh]
	 Singles Energy            =      -0.0000000000000000 [Eh]
	 Same-Spin Energy          =      -0.4684804135447690 [Eh]
	 Opposite-Spin Energy      =      -1.4665496427886759 [Eh]
	 Correlation Energy        =      -1.9350300563334448 [Eh]
	 Total Energy              =    -439.5317909844994801 [Eh]

	 ================> DF-SCS-MP2 Energies <==================
	-----------------------------------------------------------
	 SCS Same-Spin Scale       =       0.3333333333333333 [-]
	 SCS Opposite-Spin Scale   =       1.2000000000000000 [-]
	 SCS Same-Spin Energy      =      -0.1561601378482563 [Eh]
	 SCS Opposite-Spin Energy  =      -1.7598595713464111 [Eh]
	 SCS Correlation Energy    =      -1.9160197091946674 [Eh]
	 SCS Total Energy          =    -439.5127806373606631 [Eh]
	-----------------------------------------------------------

  Dipole Moment: [D]
     X:    -0.1004      Y:    -3.6627      Z:     0.1613     Total:     3.6676

*** Psi4 exiting successfully. Buy a developer a beer!
