                               Psi4 1.3.2 release

  ==> Input File <==

--------------------------------------------------------------------------
#psi4
#
memory 32 gb

molecule  {
0 1
  O        0.0787650     2.1311770    -0.2164080
  N        0.1423550    -0.1571228    -0.1873132
  C        1.5484140    -0.1005230    -0.5118890
  C        2.4562500     0.4082890     0.5600040
  C        2.4806620    -1.0501060     0.1884540
  C       -0.5399690     1.0666720    -0.0960400
  C       -0.5048870    -1.3883940    -0.2151950
  C       -1.9528000     0.9321040     0.1889810
  C       -1.8475120    -1.4809310     0.0203080
  C       -2.5801750    -0.2831070     0.2328620
  H        1.7757480     0.1884380    -1.5349100
  H        1.9894860     0.6779030     1.5004770
  H        3.2759230     1.0506550     0.2582410
  H        3.3211070    -1.4385120    -0.3773670
  H        2.0523810    -1.7508080     0.8974130
  H        0.1298880    -2.2506920    -0.3908910
  H       -2.4932330     1.8615660     0.3382590
  H       -2.3266410    -2.4532080     0.0346430
  H       -3.6480090    -0.3319380     0.4347920
units angstrom
no_reorient  #important for SAPT in psi4, default
symmetry c1  #important for SAPT in psi4, default
}

set PROPERTIES_ORIGIN ["COM"]
properties('MP2/aug-cc-pvtz', properties = ['dipole'])
--------------------------------------------------------------------------

    Molecular point group: c1
  Charge       = 0
  Multiplicity = 1
  Basis Set: AUG-CC-PVTZ
    Blend: AUG-CC-PVTZ
  Basis Set: (AUG-CC-PVTZ AUX)
    Blend: AUG-CC-PVTZ-JKFIT

    Orbital Energies [Eh]
    ---------------------

    Doubly Occupied:

       1A    -20.505526     2A    -15.626314     3A    -11.348169
       4A    -11.307929     5A    -11.278554     6A    -11.270763
       7A    -11.242670     8A    -11.241635     9A    -11.238346
      10A    -11.232350    11A     -1.370368    12A     -1.279446
      13A     -1.155577    14A     -1.095855    15A     -1.025297
      16A     -0.900920    17A     -0.868908    18A     -0.829208
      19A     -0.808488    20A     -0.725928    21A     -0.699053
      22A     -0.681390    23A     -0.662828    24A     -0.640386
      25A     -0.606394    26A     -0.592750    27A     -0.577693
      28A     -0.545990    29A     -0.536448    30A     -0.525071
      31A     -0.478328    32A     -0.453923    33A     -0.439581
      34A     -0.420916    35A     -0.398667    36A     -0.311047

  @DF-RHF Final Energy:  -437.60987603905573

   => Energetics <=

    Nuclear Repulsion Energy =            508.3397125571002562
    One-Electron Energy =               -1602.0537406490511785
    Two-Electron Energy =                 656.1041520528951878
    Total Energy =                       -437.6098760390557345
  Basis Set: (AUG-CC-PVTZ AUX)
    Blend: AUG-CC-PVTZ-RI
    Molecular point group: c1

    Geometry (in Angstrom), charge = 0, multiplicity = 1:

       Center              X                  Y                   Z               Mass
    ------------   -----------------  -----------------  -----------------  -----------------
         O            0.107775535616     2.096717061765    -0.212670420713    15.994914619570
         N            0.171365535616    -0.191582738235    -0.183575620713    14.003074004430
         C            1.577424535616    -0.134982938235    -0.508151420713    12.000000000000
         C            2.485260535616     0.373829061765     0.563741579287    12.000000000000
         C            2.509672535616    -1.084565938235     0.192191579287    12.000000000000
         C           -0.510958464384     1.032212061765    -0.092302420713    12.000000000000
         C           -0.475876464384    -1.422853938235    -0.211457420713    12.000000000000
         C           -1.923789464384     0.897644061765     0.192718579287    12.000000000000
         C           -1.818501464384    -1.515390938235     0.024045579287    12.000000000000
         C           -2.551164464384    -0.317566938235     0.236599579287    12.000000000000
         H            1.804758535616     0.153978061765    -1.531172420713     1.007825032230
         H            2.018496535616     0.643443061765     1.504214579287     1.007825032230
         H            3.304933535616     1.016195061765     0.261978579287     1.007825032230
         H            3.350117535616    -1.472971938235    -0.373629420713     1.007825032230
         H            2.081391535616    -1.785267938235     0.901150579287     1.007825032230
         H            0.158898535616    -2.285151938235    -0.387153420713     1.007825032230
         H           -2.464222464384     1.827106061765     0.341996579287     1.007825032230
         H           -2.297630464384    -2.487667938235     0.038380579287     1.007825032230
         H           -3.618998464384    -0.366397938235     0.438529579287     1.007825032230

  Basis Set: AUG-CC-PVTZ
    Blend: AUG-CC-PVTZ
  Basis Set: (AUG-CC-PVTZ AUX)
    Blend: AUG-CC-PVTZ-JKFIT
	 Reference Energy          =    -437.6098760390557345 [Eh]
	 Singles Energy            =      -0.0000000000000000 [Eh]
	 Same-Spin Energy          =      -0.4675035368735228 [Eh]
	 Opposite-Spin Energy      =      -1.4646953994659455 [Eh]
	 Correlation Energy        =      -1.9321989363394683 [Eh]
	 Total Energy              =    -439.5420749753952236 [Eh]

	 ================> DF-SCS-MP2 Energies <==================
	-----------------------------------------------------------
	 SCS Same-Spin Scale       =       0.3333333333333333 [-]
	 SCS Opposite-Spin Scale   =       1.2000000000000000 [-]
	 SCS Same-Spin Energy      =      -0.1558345122911742 [Eh]
	 SCS Opposite-Spin Energy  =      -1.7576344793591345 [Eh]
	 SCS Correlation Energy    =      -1.9134689916503087 [Eh]
	 SCS Total Energy          =    -439.5233450307060252 [Eh]
	-----------------------------------------------------------

  Dipole Moment: [D]
     X:    -0.1036      Y:    -3.8439      Z:     0.1333     Total:     3.8476

*** Psi4 exiting successfully. Buy a developer a beer!
