                               Psi4 1.3.2 release

  ==> Input File <==

--------------------------------------------------------------------------
#psi4
#
memory 32 gb

molecule  {
0 1
  O        0.0787650     2.1311770    -0.2164080
  N        0.1333340    -0.1752640    -0.2334700
  C        1.5473565    -0.0754641    -0.5093962
  C        2.4562500     0.4082890     0.5600040
  C        2.4806620    -1.0501060     0.1884540
  C       -0.5399690     1.0666720    -0.0960400
  C       -0.5048870    -1.3883940    -0.2151950
  C       -1.9528000     0.9321040     0.1889810
  C       -1.8475120    -1.4809310     0.0203080
  C       -2.5801750    -0.2831070     0.2328620
  H        1.7757480     0.1884380    -1.5349100
  H        1.9894860     0.6779030     1.5004770
  H        3.2759230     1.0506550     0.2582410
  H        3.3211070    -1.4385120    -0.3773670
  H        2.0523810    -1.7508080     0.8974130
  H        0.1298880    -2.2506920    -0.3908910
  H       -2.4932330     1.8615660     0.3382590
  H       -2.3266410    -2.4532080     0.0346430
  H       -3.6480090    -0.3319380     0.4347920
units angstrom
no_reorient  #important for SAPT in psi4, default
symmetry c1  #important for SAPT in psi4, default
}

set PROPERTIES_ORIGIN ["COM"]
properties('MP2/aug-cc-pvtz', properties = ['dipole'])
--------------------------------------------------------------------------

    Molecular point group: c1
  Charge       = 0
  Multiplicity = 1
  Basis Set: AUG-CC-PVTZ
    Blend: AUG-CC-PVTZ
  Basis Set: (AUG-CC-PVTZ AUX)
    Blend: AUG-CC-PVTZ-JKFIT

    Orbital Energies [Eh]
    ---------------------

    Doubly Occupied:

       1A    -20.507367     2A    -15.627312     3A    -11.349726
       4A    -11.307399     5A    -11.279442     6A    -11.270448
       7A    -11.242532     8A    -11.239506     9A    -11.236865
      10A    -11.234610    11A     -1.370445    12A     -1.282741
      13A     -1.155406    14A     -1.095604    15A     -1.024721
      16A     -0.902234    17A     -0.868154    18A     -0.829483
      19A     -0.811191    20A     -0.726315    21A     -0.697392
      22A     -0.682281    23A     -0.663320    24A     -0.640123
      25A     -0.606304    26A     -0.594076    27A     -0.577672
      28A     -0.546832    29A     -0.535520    30A     -0.525995
      31A     -0.480944    32A     -0.457457    33A     -0.435170
      34A     -0.420569    35A     -0.401452    36A     -0.308991

  @DF-RHF Final Energy:  -437.61034932849975

   => Energetics <=

    Nuclear Repulsion Energy =            508.2369754030901845
    One-Electron Energy =               -1601.8234558364381428
    Two-Electron Energy =                 655.9761311048482639
    Total Energy =                       -437.6103493284997512
  Basis Set: (AUG-CC-PVTZ AUX)
    Blend: AUG-CC-PVTZ-RI
    Molecular point group: c1

    Geometry (in Angstrom), charge = 0, multiplicity = 1:

       Center              X                  Y                   Z               Mass
    ------------   -----------------  -----------------  -----------------  -----------------
         O            0.108804730574     2.096371501818    -0.208106633604    15.994914619570
         N            0.163373730574    -0.210069498182    -0.225168633604    14.003074004430
         C            1.577396230574    -0.110269598182    -0.501094833604    12.000000000000
         C            2.486289730574     0.373483501818     0.568305366396    12.000000000000
         C            2.510701730574    -1.084911498182     0.196755366396    12.000000000000
         C           -0.509929269426     1.031866501818    -0.087738633604    12.000000000000
         C           -0.474847269426    -1.423199498182    -0.206893633604    12.000000000000
         C           -1.922760269426     0.897298501818     0.197282366396    12.000000000000
         C           -1.817472269426    -1.515736498182     0.028609366396    12.000000000000
         C           -2.550135269426    -0.317912498182     0.241163366396    12.000000000000
         H            1.805787730574     0.153632501818    -1.526608633604     1.007825032230
         H            2.019525730574     0.643097501818     1.508778366396     1.007825032230
         H            3.305962730574     1.015849501818     0.266542366396     1.007825032230
         H            3.351146730574    -1.473317498182    -0.369065633604     1.007825032230
         H            2.082420730574    -1.785613498182     0.905714366396     1.007825032230
         H            0.159927730574    -2.285497498182    -0.382589633604     1.007825032230
         H           -2.463193269426     1.826760501818     0.346560366396     1.007825032230
         H           -2.296601269426    -2.488013498182     0.042944366396     1.007825032230
         H           -3.617969269426    -0.366743498182     0.443093366396     1.007825032230

  Basis Set: AUG-CC-PVTZ
    Blend: AUG-CC-PVTZ
  Basis Set: (AUG-CC-PVTZ AUX)
    Blend: AUG-CC-PVTZ-JKFIT
	 Reference Energy          =    -437.6103493284997512 [Eh]
	 Singles Energy            =      -0.0000000000000000 [Eh]
	 Same-Spin Energy          =      -0.4677472008167681 [Eh]
	 Opposite-Spin Energy      =      -1.4646861085740257 [Eh]
	 Correlation Energy        =      -1.9324333093907939 [Eh]
	 Total Energy              =    -439.5427826378905252 [Eh]

	 ================> DF-SCS-MP2 Energies <==================
	-----------------------------------------------------------
	 SCS Same-Spin Scale       =       0.3333333333333333 [-]
	 SCS Opposite-Spin Scale   =       1.2000000000000000 [-]
	 SCS Same-Spin Energy      =      -0.1559157336055894 [Eh]
	 SCS Opposite-Spin Energy  =      -1.7576233302888309 [Eh]
	 SCS Correlation Energy    =      -1.9135390638944203 [Eh]
	 SCS Total Energy          =    -439.5238883923941557 [Eh]
	-----------------------------------------------------------

  Dipole Moment: [D]
     X:    -0.0227      Y:    -3.7726      Z:     0.1586     Total:     3.7760

*** Psi4 exiting successfully. Buy a developer a beer!
