                               Psi4 1.4a3.dev225

  ==> Input File <==

--------------------------------------------------------------------------
#psi4
#
memory 32 gb

molecule  {
0 1
  O        0.0787650     2.1311770    -0.2164080
  N        0.1333340    -0.1752640    -0.2334700
  C        1.5484140    -0.1005230    -0.5118890
  C        2.4562500     0.4082890     0.5600040
  C        2.4806620    -1.0501060     0.1884540
  C       -0.5162507     1.0229226    -0.1008812
  C       -0.5048870    -1.3883940    -0.2151950
  C       -1.9528000     0.9321040     0.1889810
  C       -1.8475120    -1.4809310     0.0203080
  C       -2.5801750    -0.2831070     0.2328620
  H        1.7757480     0.1884380    -1.5349100
  H        1.9894860     0.6779030     1.5004770
  H        3.2759230     1.0506550     0.2582410
  H        3.3211070    -1.4385120    -0.3773670
  H        2.0523810    -1.7508080     0.8974130
  H        0.1298880    -2.2506920    -0.3908910
  H       -2.4932330     1.8615660     0.3382590
  H       -2.3266410    -2.4532080     0.0346430
  H       -3.6480090    -0.3319380     0.4347920
units angstrom
no_reorient  #important for SAPT in psi4, default
symmetry c1  #important for SAPT in psi4, default
}

set PROPERTIES_ORIGIN ["COM"]
properties('MP2/aug-cc-pvtz', properties = ['dipole'])
--------------------------------------------------------------------------

    Molecular point group: c1
  Charge       = 0
  Multiplicity = 1
  Basis Set: AUG-CC-PVTZ
    Blend: AUG-CC-PVTZ
  Basis Set: (AUG-CC-PVTZ AUX)
    Blend: AUG-CC-PVTZ-JKFIT

    Orbital Energies [Eh]
    ---------------------

    Doubly Occupied:

       1A    -20.499745     2A    -15.632309     3A    -11.348165
       4A    -11.307536     5A    -11.281517     6A    -11.268192
       7A    -11.244633     8A    -11.243346     9A    -11.240779
      10A    -11.235378    11A     -1.364082    12A     -1.281590
      13A     -1.158422    14A     -1.098784    15A     -1.026077
      16A     -0.902068    17A     -0.878858    18A     -0.832252
      19A     -0.809867    20A     -0.729005    21A     -0.700156
      22A     -0.681891    23A     -0.664563    24A     -0.642993
      25A     -0.600551    26A     -0.597221    27A     -0.576792
      28A     -0.543554    29A     -0.535735    30A     -0.527007
      31A     -0.470532    32A     -0.456416    33A     -0.442529
      34A     -0.416414    35A     -0.401146    36A     -0.310116

  @DF-RHF Final Energy:  -437.60790880501730

   => Energetics <=

    Nuclear Repulsion Energy =            508.6799987577675211
    One-Electron Energy =               -1602.6753728560347554
    Two-Electron Energy =                 656.3874652932499885
    Total Energy =                       -437.6079088050173596
  Basis Set: (AUG-CC-PVTZ AUX)
    Blend: AUG-CC-PVTZ-RI
    Molecular point group: c1

    Geometry (in Angstrom), charge = 0, multiplicity = 1:

       Center              X                  Y                   Z               Mass
    ------------   -----------------  -----------------  -----------------  -----------------
         O            0.106603552731     2.102484697169    -0.207455052695    15.994914619570
         N            0.161172552731    -0.203956302831    -0.224517052695    14.003074004430
         C            1.576252552731    -0.129215302831    -0.502936052695    12.000000000000
         C            2.484088552731     0.379596697169     0.568956947305    12.000000000000
         C            2.508500552731    -1.078798302831     0.197406947305    12.000000000000
         C           -0.488412147269     0.994230297169    -0.091928252695    12.000000000000
         C           -0.477048447269    -1.417086302831    -0.206242052695    12.000000000000
         C           -1.924961447269     0.903411697169     0.197933947305    12.000000000000
         C           -1.819673447269    -1.509623302831     0.029260947305    12.000000000000
         C           -2.552336447269    -0.311799302831     0.241814947305    12.000000000000
         H            1.803586552731     0.159745697169    -1.525957052695     1.007825032230
         H            2.017324552731     0.649210697169     1.509429947305     1.007825032230
         H            3.303761552731     1.021962697169     0.267193947305     1.007825032230
         H            3.348945552731    -1.467204302831    -0.368414052695     1.007825032230
         H            2.080219552731    -1.779500302831     0.906365947305     1.007825032230
         H            0.157726552731    -2.279384302831    -0.381938052695     1.007825032230
         H           -2.465394447269     1.832873697169     0.347211947305     1.007825032230
         H           -2.298802447269    -2.481900302831     0.043595947305     1.007825032230
         H           -3.620170447269    -0.360630302831     0.443744947305     1.007825032230

  Basis Set: AUG-CC-PVTZ
    Blend: AUG-CC-PVTZ
  Basis Set: (AUG-CC-PVTZ AUX)
    Blend: AUG-CC-PVTZ-JKFIT
	 Reference Energy          =    -437.6079088050173027 [Eh]
	 Singles Energy            =      -0.0000000000000000 [Eh]
	 Same-Spin Energy          =      -0.4676502394635322 [Eh]
	 Opposite-Spin Energy      =      -1.4649881374616402 [Eh]
	 Correlation Energy        =      -1.9326383769251725 [Eh]
	 Total Energy              =    -439.5405471819424861 [Eh]

	 ================> DF-SCS-MP2 Energies <==================
	-----------------------------------------------------------
	 SCS Same-Spin Scale       =       0.3333333333333333 [-]
	 SCS Opposite-Spin Scale   =       1.2000000000000000 [-]
	 SCS Same-Spin Energy      =      -0.1558834131545107 [Eh]
	 SCS Opposite-Spin Energy  =      -1.7579857649539683 [Eh]
	 SCS Correlation Energy    =      -1.9138691781084791 [Eh]
	 SCS Total Energy          =    -439.5217779831257872 [Eh]
	-----------------------------------------------------------

  Dipole Moment: [D]
     X:    -0.0217      Y:    -4.0552      Z:     0.1733     Total:     4.0589

*** Psi4 exiting successfully. Buy a developer a beer!
