                               Psi4 1.3.2 release

  ==> Input File <==

--------------------------------------------------------------------------
#psi4
#
memory 32 gb

molecule  {
0 1
  O        0.0787650     2.1311770    -0.2164080
  N        0.1333340    -0.1752640    -0.2334700
  C        1.5494598    -0.1257042    -0.5121927
  C        2.4562500     0.4082890     0.5600040
  C        2.4806620    -1.0501060     0.1884540
  C       -0.5399690     1.0666720    -0.0960400
  C       -0.5048870    -1.3883940    -0.2151950
  C       -1.9528000     0.9321040     0.1889810
  C       -1.8475120    -1.4809310     0.0203080
  C       -2.5801750    -0.2831070     0.2328620
  H        1.7757480     0.1884380    -1.5349100
  H        1.9894860     0.6779030     1.5004770
  H        3.2759230     1.0506550     0.2582410
  H        3.3211070    -1.4385120    -0.3773670
  H        2.0523810    -1.7508080     0.8974130
  H        0.1298880    -2.2506920    -0.3908910
  H       -2.4932330     1.8615660     0.3382590
  H       -2.3266410    -2.4532080     0.0346430
  H       -3.6480090    -0.3319380     0.4347920
units angstrom
no_reorient  #important for SAPT in psi4, default
symmetry c1  #important for SAPT in psi4, default
}

set PROPERTIES_ORIGIN ["COM"]
properties('MP2/aug-cc-pvtz', properties = ['dipole'])
--------------------------------------------------------------------------

    Molecular point group: c1
  Charge       = 0
  Multiplicity = 1
  Basis Set: AUG-CC-PVTZ
    Blend: AUG-CC-PVTZ
  Basis Set: (AUG-CC-PVTZ AUX)
    Blend: AUG-CC-PVTZ-JKFIT

    Orbital Energies [Eh]
    ---------------------

    Doubly Occupied:

       1A    -20.507135     2A    -15.627441     3A    -11.350318
       4A    -11.306793     5A    -11.279397     6A    -11.270434
       7A    -11.243799     8A    -11.239194     9A    -11.237091
      10A    -11.233519    11A     -1.369827    12A     -1.283453
      13A     -1.157264    14A     -1.096228    15A     -1.024544
      16A     -0.901179    17A     -0.869738    18A     -0.829667
      19A     -0.810228    20A     -0.725388    21A     -0.697919
      22A     -0.682127    23A     -0.664492    24A     -0.640641
      25A     -0.606170    26A     -0.594265    27A     -0.576470
      28A     -0.545231    29A     -0.535191    30A     -0.526454
      31A     -0.480419    32A     -0.455892    33A     -0.443119
      34A     -0.420548    35A     -0.397785    36A     -0.308693

  @DF-RHF Final Energy:  -437.61031245832521

   => Energetics <=

    Nuclear Repulsion Energy =            508.1981510268838633
    One-Electron Energy =               -1601.7408197436404862
    Two-Electron Energy =                 655.9323562584314686
    Total Energy =                       -437.6103124583252111
  Basis Set: (AUG-CC-PVTZ AUX)
    Blend: AUG-CC-PVTZ-RI
    Molecular point group: c1

    Geometry (in Angstrom), charge = 0, multiplicity = 1:

       Center              X                  Y                   Z               Mass
    ------------   -----------------  -----------------  -----------------  -----------------
         O            0.108617865272     2.100835026506    -0.207858181735    15.994914619570
         N            0.163186865272    -0.205605973494    -0.224920181735    14.003074004430
         C            1.579312665272    -0.156046173494    -0.503642881735    12.000000000000
         C            2.486102865272     0.377947026506     0.568553818265    12.000000000000
         C            2.510514865272    -1.080447973494     0.197003818265    12.000000000000
         C           -0.510116134728     1.036330026506    -0.087490181735    12.000000000000
         C           -0.475034134728    -1.418735973494    -0.206645181735    12.000000000000
         C           -1.922947134728     0.901762026506     0.197530818265    12.000000000000
         C           -1.817659134728    -1.511272973494     0.028857818265    12.000000000000
         C           -2.550322134728    -0.313448973494     0.241411818265    12.000000000000
         H            1.805600865272     0.158096026506    -1.526360181735     1.007825032230
         H            2.019338865272     0.647561026506     1.509026818265     1.007825032230
         H            3.305775865272     1.020313026506     0.266790818265     1.007825032230
         H            3.350959865272    -1.468853973494    -0.368817181735     1.007825032230
         H            2.082233865272    -1.781149973494     0.905962818265     1.007825032230
         H            0.159740865272    -2.281033973494    -0.382341181735     1.007825032230
         H           -2.463380134728     1.831224026506     0.346808818265     1.007825032230
         H           -2.296788134728    -2.483549973494     0.043192818265     1.007825032230
         H           -3.618156134728    -0.362279973494     0.443341818265     1.007825032230

  Basis Set: AUG-CC-PVTZ
    Blend: AUG-CC-PVTZ
  Basis Set: (AUG-CC-PVTZ AUX)
    Blend: AUG-CC-PVTZ-JKFIT
	 Reference Energy          =    -437.6103124583252111 [Eh]
	 Singles Energy            =      -0.0000000000000000 [Eh]
	 Same-Spin Energy          =      -0.4677940183189194 [Eh]
	 Opposite-Spin Energy      =      -1.4646576820575143 [Eh]
	 Correlation Energy        =      -1.9324517003764337 [Eh]
	 Total Energy              =    -439.5427641587016296 [Eh]

	 ================> DF-SCS-MP2 Energies <==================
	-----------------------------------------------------------
	 SCS Same-Spin Scale       =       0.3333333333333333 [-]
	 SCS Opposite-Spin Scale   =       1.2000000000000000 [-]
	 SCS Same-Spin Energy      =      -0.1559313394396398 [Eh]
	 SCS Opposite-Spin Energy  =      -1.7575892184690172 [Eh]
	 SCS Correlation Energy    =      -1.9135205579086569 [Eh]
	 SCS Total Energy          =    -439.5238330162338798 [Eh]
	-----------------------------------------------------------

  Dipole Moment: [D]
     X:    -0.0063      Y:    -3.8128      Z:     0.1558     Total:     3.8160

*** Psi4 exiting successfully. Buy a developer a beer!
