                               Psi4 1.3.2 release

  ==> Input File <==

--------------------------------------------------------------------------
#psi4
#
memory 32 gb

molecule  {
0 1
  O        0.0787650     2.1311770    -0.2164080
  N        0.1333340    -0.1752640    -0.2334700
  C        1.5484140    -0.1005230    -0.5118890
  C        2.4562500     0.4082890     0.5600040
  C        2.4806620    -1.0501060     0.1884540
  C       -0.5399690     1.0666720    -0.0960400
  C       -0.5979973    -1.5653781    -0.2125289
  C       -1.9528000     0.9321040     0.1889810
  C       -1.8475120    -1.4809310     0.0203080
  C       -2.5801750    -0.2831070     0.2328620
  H        1.7757480     0.1884380    -1.5349100
  H        1.9894860     0.6779030     1.5004770
  H        3.2759230     1.0506550     0.2582410
  H        3.3211070    -1.4385120    -0.3773670
  H        2.0523810    -1.7508080     0.8974130
  H        0.1298880    -2.2506920    -0.3908910
  H       -2.4932330     1.8615660     0.3382590
  H       -2.3266410    -2.4532080     0.0346430
  H       -3.6480090    -0.3319380     0.4347920
units angstrom
no_reorient  #important for SAPT in psi4, default
symmetry c1  #important for SAPT in psi4, default
}

set PROPERTIES_ORIGIN ["COM"]
properties('MP2/aug-cc-pvtz', properties = ['dipole'])
--------------------------------------------------------------------------

    Molecular point group: c1
  Charge       = 0
  Multiplicity = 1
  Basis Set: AUG-CC-PVTZ
    Blend: AUG-CC-PVTZ
  Basis Set: (AUG-CC-PVTZ AUX)
    Blend: AUG-CC-PVTZ-JKFIT

    Orbital Energies [Eh]
    ---------------------

    Doubly Occupied:

       1A    -20.507368     2A    -15.603788     3A    -11.347201
       4A    -11.299992     5A    -11.276241     6A    -11.267830
       7A    -11.251267     8A    -11.245362     9A    -11.235177
      10A    -11.225373    11A     -1.361144    12A     -1.241621
      13A     -1.152739    14A     -1.090994    15A     -1.045962
      16A     -0.902064    17A     -0.855291    18A     -0.824031
      19A     -0.797319    20A     -0.717981    21A     -0.698411
      22A     -0.687796    23A     -0.660571    24A     -0.633834
      25A     -0.616026    26A     -0.580778    27A     -0.571674
      28A     -0.552020    29A     -0.523197    30A     -0.516315
      31A     -0.480285    32A     -0.450977    33A     -0.428608
      34A     -0.415805    35A     -0.384339    36A     -0.334020

  @DF-RHF Final Energy:  -437.57204470950842

   => Energetics <=

    Nuclear Repulsion Energy =            505.1512138359038886
    One-Electron Energy =               -1595.8797206050678597
    Two-Electron Energy =                 653.1564620596554960
    Total Energy =                       -437.5720447095084182
  Basis Set: (AUG-CC-PVTZ AUX)
    Blend: AUG-CC-PVTZ-RI
    Molecular point group: c1

    Geometry (in Angstrom), charge = 0, multiplicity = 1:

       Center              X                  Y                   Z               Mass
    ------------   -----------------  -----------------  -----------------  -----------------
         O            0.116983057157     2.114321782937    -0.208122030246    15.994914619570
         N            0.171552057157    -0.192119217063    -0.225184030246    14.003074004430
         C            1.586632057157    -0.117378217063    -0.503603030246    12.000000000000
         C            2.494468057157     0.391433782937     0.568289969754    12.000000000000
         C            2.518880057157    -1.066961217063     0.196739969754    12.000000000000
         C           -0.501750942843     1.049816782937    -0.087754030246    12.000000000000
         C           -0.559779242843    -1.582233317063    -0.204242930246    12.000000000000
         C           -1.914581942843     0.915248782937     0.197266969754    12.000000000000
         C           -1.809293942843    -1.497786217063     0.028593969754    12.000000000000
         C           -2.541956942843    -0.299962217063     0.241147969754    12.000000000000
         H            1.813966057157     0.171582782937    -1.526624030246     1.007825032230
         H            2.027704057157     0.661047782937     1.508762969754     1.007825032230
         H            3.314141057157     1.033799782937     0.266526969754     1.007825032230
         H            3.359325057157    -1.455367217063    -0.369081030246     1.007825032230
         H            2.090599057157    -1.767663217063     0.905698969754     1.007825032230
         H            0.168106057157    -2.267547217063    -0.382605030246     1.007825032230
         H           -2.455014942843     1.844710782937     0.346544969754     1.007825032230
         H           -2.288422942843    -2.470063217063     0.042928969754     1.007825032230
         H           -3.609790942843    -0.348793217063     0.443077969754     1.007825032230

  Basis Set: AUG-CC-PVTZ
    Blend: AUG-CC-PVTZ
  Basis Set: (AUG-CC-PVTZ AUX)
    Blend: AUG-CC-PVTZ-JKFIT
	 Reference Energy          =    -437.5720447095084182 [Eh]
	 Singles Energy            =      -0.0000000000000000 [Eh]
	 Same-Spin Energy          =      -0.4662097114816006 [Eh]
	 Opposite-Spin Energy      =      -1.4665325748982598 [Eh]
	 Correlation Energy        =      -1.9327422863798605 [Eh]
	 Total Energy              =    -439.5047869958882529 [Eh]

	 ================> DF-SCS-MP2 Energies <==================
	-----------------------------------------------------------
	 SCS Same-Spin Scale       =       0.3333333333333333 [-]
	 SCS Opposite-Spin Scale   =       1.2000000000000000 [-]
	 SCS Same-Spin Energy      =      -0.1554032371605335 [Eh]
	 SCS Opposite-Spin Energy  =      -1.7598390898779117 [Eh]
	 SCS Correlation Energy    =      -1.9152423270384453 [Eh]
	 SCS Total Energy          =    -439.4872870365468884 [Eh]
	-----------------------------------------------------------

  Dipole Moment: [D]
     X:    -0.6905      Y:    -3.9933      Z:     0.1969     Total:     4.0574

*** Psi4 exiting successfully. Buy a developer a beer!
