                               Psi4 1.4a3.dev225

  ==> Input File <==

--------------------------------------------------------------------------
#psi4
#
memory 32 gb

molecule  {
0 1
  O        0.0787650     2.1311770    -0.2164080
  N        0.1333340    -0.1752640    -0.2334700
  C        1.5484140    -0.1005230    -0.5118890
  C        2.4562500     0.4082890     0.5600040
  C        2.4806620    -1.0501060     0.1884540
  C       -0.5304817     1.0491723    -0.0979765
  C       -0.5048870    -1.3883940    -0.2151950
  C       -1.9528000     0.9321040     0.1889810
  C       -1.8475120    -1.4809310     0.0203080
  C       -2.5801750    -0.2831070     0.2328620
  H        1.7757480     0.1884380    -1.5349100
  H        1.9894860     0.6779030     1.5004770
  H        3.2759230     1.0506550     0.2582410
  H        3.3211070    -1.4385120    -0.3773670
  H        2.0523810    -1.7508080     0.8974130
  H        0.1298880    -2.2506920    -0.3908910
  H       -2.4932330     1.8615660     0.3382590
  H       -2.3266410    -2.4532080     0.0346430
  H       -3.6480090    -0.3319380     0.4347920
units angstrom
no_reorient  #important for SAPT in psi4, default
symmetry c1  #important for SAPT in psi4, default
}

set PROPERTIES_ORIGIN ["COM"]
properties('MP2/aug-cc-pvtz', properties = ['dipole'])
--------------------------------------------------------------------------

    Molecular point group: c1
  Charge       = 0
  Multiplicity = 1
  Basis Set: AUG-CC-PVTZ
    Blend: AUG-CC-PVTZ
  Basis Set: (AUG-CC-PVTZ AUX)
    Blend: AUG-CC-PVTZ-JKFIT

    Orbital Energies [Eh]
    ---------------------

    Doubly Occupied:

       1A    -20.504261     2A    -15.629404     3A    -11.349286
       4A    -11.307284     5A    -11.280175     6A    -11.269524
       7A    -11.243790     8A    -11.240903     9A    -11.238442
      10A    -11.234601    11A     -1.366744    12A     -1.283230
      13A     -1.157031    14A     -1.096952    15A     -1.025154
      16A     -0.901779    17A     -0.872771    18A     -0.830671
      19A     -0.810489    20A     -0.727090    21A     -0.698625
      22A     -0.682034    23A     -0.664088    24A     -0.641445
      25A     -0.603529    26A     -0.595485    27A     -0.576994
      28A     -0.545138    29A     -0.535728    30A     -0.526566
      31A     -0.476665    32A     -0.455826    33A     -0.441010
      34A     -0.419043    35A     -0.400495    36A     -0.309342

  @DF-RHF Final Energy:  -437.61028352840850

   => Energetics <=

    Nuclear Repulsion Energy =            508.3920803386336047
    One-Electron Energy =               -1602.1215412370047488
    Two-Electron Energy =                 656.1191773699625855
    Total Energy =                       -437.6102835284085586
  Basis Set: (AUG-CC-PVTZ AUX)
    Blend: AUG-CC-PVTZ-RI
    Molecular point group: c1

    Geometry (in Angstrom), charge = 0, multiplicity = 1:

       Center              X                  Y                   Z               Mass
    ------------   -----------------  -----------------  -----------------  -----------------
         O            0.107867889781     2.100152572353    -0.207713117471    15.994914619570
         N            0.162436889781    -0.206288427647    -0.224775117471    14.003074004430
         C            1.577516889781    -0.131547427647    -0.503194117471    12.000000000000
         C            2.485352889781     0.377264572353     0.568698882529    12.000000000000
         C            2.509764889781    -1.081130427647     0.197148882529    12.000000000000
         C           -0.501378810219     1.018147872353    -0.089281617471    12.000000000000
         C           -0.475784110219    -1.419418427647    -0.206500117471    12.000000000000
         C           -1.923697110219     0.901079572353     0.197675882529    12.000000000000
         C           -1.818409110219    -1.511955427647     0.029002882529    12.000000000000
         C           -2.551072110219    -0.314131427647     0.241556882529    12.000000000000
         H            1.804850889781     0.157413572353    -1.526215117471     1.007825032230
         H            2.018588889781     0.646878572353     1.509171882529     1.007825032230
         H            3.305025889781     1.019630572353     0.266935882529     1.007825032230
         H            3.350209889781    -1.469536427647    -0.368672117471     1.007825032230
         H            2.081483889781    -1.781832427647     0.906107882529     1.007825032230
         H            0.158990889781    -2.281716427647    -0.382196117471     1.007825032230
         H           -2.464130110219     1.830541572353     0.346953882529     1.007825032230
         H           -2.297538110219    -2.484232427647     0.043337882529     1.007825032230
         H           -3.618906110219    -0.362962427647     0.443486882529     1.007825032230

  Basis Set: AUG-CC-PVTZ
    Blend: AUG-CC-PVTZ
  Basis Set: (AUG-CC-PVTZ AUX)
    Blend: AUG-CC-PVTZ-JKFIT
	 Reference Energy          =    -437.6102835284085018 [Eh]
	 Singles Energy            =      -0.0000000000000000 [Eh]
	 Same-Spin Energy          =      -0.4676887074471566 [Eh]
	 Opposite-Spin Energy      =      -1.4647402119637061 [Eh]
	 Correlation Energy        =      -1.9324289194108626 [Eh]
	 Total Energy              =    -439.5427124478193832 [Eh]

	 ================> DF-SCS-MP2 Energies <==================
	-----------------------------------------------------------
	 SCS Same-Spin Scale       =       0.3333333333333333 [-]
	 SCS Opposite-Spin Scale   =       1.2000000000000000 [-]
	 SCS Same-Spin Energy      =      -0.1558962358157188 [Eh]
	 SCS Opposite-Spin Energy  =      -1.7576882543564472 [Eh]
	 SCS Correlation Energy    =      -1.9135844901721659 [Eh]
	 SCS Total Energy          =    -439.5238680185806857 [Eh]
	-----------------------------------------------------------

  Dipole Moment: [D]
     X:    -0.0166      Y:    -3.8980      Z:     0.1633     Total:     3.9014

*** Psi4 exiting successfully. Buy a developer a beer!
