                               Psi4 1.4a3.dev225

  ==> Input File <==

--------------------------------------------------------------------------
#psi4
#
memory 32 gb

molecule  {
0 1
  O        0.0787650     2.1311770    -0.2164080
  N        0.1333340    -0.1752640    -0.2334700
  C        1.5974077    -0.0979353    -0.5215286
  C        2.4562500     0.4082890     0.5600040
  C        2.4806620    -1.0501060     0.1884540
  C       -0.5399690     1.0666720    -0.0960400
  C       -0.5048870    -1.3883940    -0.2151950
  C       -1.9528000     0.9321040     0.1889810
  C       -1.8475120    -1.4809310     0.0203080
  C       -2.5801750    -0.2831070     0.2328620
  H        1.7757480     0.1884380    -1.5349100
  H        1.9894860     0.6779030     1.5004770
  H        3.2759230     1.0506550     0.2582410
  H        3.3211070    -1.4385120    -0.3773670
  H        2.0523810    -1.7508080     0.8974130
  H        0.1298880    -2.2506920    -0.3908910
  H       -2.4932330     1.8615660     0.3382590
  H       -2.3266410    -2.4532080     0.0346430
  H       -3.6480090    -0.3319380     0.4347920
units angstrom
no_reorient  #important for SAPT in psi4, default
symmetry c1  #important for SAPT in psi4, default
}

set PROPERTIES_ORIGIN ["COM"]
properties('MP2/aug-cc-pvtz', properties = ['dipole'])
--------------------------------------------------------------------------

    Molecular point group: c1
  Charge       = 0
  Multiplicity = 1
  Basis Set: AUG-CC-PVTZ
    Blend: AUG-CC-PVTZ
  Basis Set: (AUG-CC-PVTZ AUX)
    Blend: AUG-CC-PVTZ-JKFIT

    Orbital Energies [Eh]
    ---------------------

    Doubly Occupied:

       1A    -20.505221     2A    -15.625710     3A    -11.348349
       4A    -11.305824     5A    -11.281303     6A    -11.269065
       7A    -11.243214     8A    -11.237718     9A    -11.235463
      10A    -11.234244    11A     -1.366417    12A     -1.276235
      13A     -1.163752    14A     -1.094874    15A     -1.022561
      16A     -0.895769    17A     -0.866042    18A     -0.832076
      19A     -0.812153    20A     -0.725455    21A     -0.696209
      22A     -0.681665    23A     -0.663543    24A     -0.640593
      25A     -0.604656    26A     -0.591493    27A     -0.578743
      28A     -0.543239    29A     -0.533214    30A     -0.526190
      31A     -0.478771    32A     -0.455226    33A     -0.449888
      34A     -0.418597    35A     -0.401487    36A     -0.307334

  @DF-RHF Final Energy:  -437.60870035691096

   => Energetics <=

    Nuclear Repulsion Energy =            507.6168553867696005
    One-Electron Energy =               -1600.6265222247291149
    Two-Electron Energy =                 655.4009664810484992
    Total Energy =                       -437.6087003569109584
  Basis Set: (AUG-CC-PVTZ AUX)
    Blend: AUG-CC-PVTZ-RI
    Molecular point group: c1

    Geometry (in Angstrom), charge = 0, multiplicity = 1:

       Center              X                  Y                   Z               Mass
    ------------   -----------------  -----------------  -----------------  -----------------
         O            0.104357988493     2.098367930089    -0.207028744291    15.994914619570
         N            0.158926988493    -0.208073069911    -0.224090744291    14.003074004430
         C            1.623000688493    -0.130744369911    -0.512149344291    12.000000000000
         C            2.481842988493     0.375479930089     0.569383255709    12.000000000000
         C            2.506254988493    -1.082915069911     0.197833255709    12.000000000000
         C           -0.514376011507     1.033862930089    -0.086660744291    12.000000000000
         C           -0.479294011507    -1.421203069911    -0.205815744291    12.000000000000
         C           -1.927207011507     0.899294930089     0.198360255709    12.000000000000
         C           -1.821919011507    -1.513740069911     0.029687255709    12.000000000000
         C           -2.554582011507    -0.315916069911     0.242241255709    12.000000000000
         H            1.801340988493     0.155628930089    -1.525530744291     1.007825032230
         H            2.015078988493     0.645093930089     1.509856255709     1.007825032230
         H            3.301515988493     1.017845930089     0.267620255709     1.007825032230
         H            3.346699988493    -1.471321069911    -0.367987744291     1.007825032230
         H            2.077973988493    -1.783617069911     0.906792255709     1.007825032230
         H            0.155480988493    -2.283501069911    -0.381511744291     1.007825032230
         H           -2.467640011507     1.828756930089     0.347638255709     1.007825032230
         H           -2.301048011507    -2.486017069911     0.044022255709     1.007825032230
         H           -3.622416011507    -0.364747069911     0.444171255709     1.007825032230

  Basis Set: AUG-CC-PVTZ
    Blend: AUG-CC-PVTZ
  Basis Set: (AUG-CC-PVTZ AUX)
    Blend: AUG-CC-PVTZ-JKFIT
	 Reference Energy          =    -437.6087003569109584 [Eh]
	 Singles Energy            =      -0.0000000000000000 [Eh]
	 Same-Spin Energy          =      -0.4676045568258766 [Eh]
	 Opposite-Spin Energy      =      -1.4642688933633461 [Eh]
	 Correlation Energy        =      -1.9318734501892227 [Eh]
	 Total Energy              =    -439.5405738071002020 [Eh]

	 ================> DF-SCS-MP2 Energies <==================
	-----------------------------------------------------------
	 SCS Same-Spin Scale       =       0.3333333333333333 [-]
	 SCS Opposite-Spin Scale   =       1.2000000000000000 [-]
	 SCS Same-Spin Energy      =      -0.1558681856086255 [Eh]
	 SCS Opposite-Spin Energy  =      -1.7571226720360154 [Eh]
	 SCS Correlation Energy    =      -1.9129908576446408 [Eh]
	 SCS Total Energy          =    -439.5216912145555739 [Eh]
	-----------------------------------------------------------

  Dipole Moment: [D]
     X:     0.1376      Y:    -3.8120      Z:     0.1327     Total:     3.8168

*** Psi4 exiting successfully. Buy a developer a beer!
