                               Psi4 1.4a3.dev225

  ==> Input File <==

--------------------------------------------------------------------------
#psi4
#
memory 32 gb

molecule  {
0 1
  O        0.0787650     2.1311770    -0.2164080
  N        0.1333340    -0.1752640    -0.2334700
  C        1.5484140    -0.1005230    -0.5118890
  C        2.4562500     0.4082890     0.5600040
  C        2.4806620    -1.0501060     0.1884540
  C       -0.5399690     1.0666720    -0.0960400
  C       -0.4955760    -1.3706956    -0.2154616
  C       -1.9528000     0.9321040     0.1889810
  C       -1.8475120    -1.4809310     0.0203080
  C       -2.5801750    -0.2831070     0.2328620
  H        1.7757480     0.1884380    -1.5349100
  H        1.9894860     0.6779030     1.5004770
  H        3.2759230     1.0506550     0.2582410
  H        3.3211070    -1.4385120    -0.3773670
  H        2.0523810    -1.7508080     0.8974130
  H        0.1298880    -2.2506920    -0.3908910
  H       -2.4932330     1.8615660     0.3382590
  H       -2.3266410    -2.4532080     0.0346430
  H       -3.6480090    -0.3319380     0.4347920
units angstrom
no_reorient  #important for SAPT in psi4, default
symmetry c1  #important for SAPT in psi4, default
}

set PROPERTIES_ORIGIN ["COM"]
properties('MP2/aug-cc-pvtz', properties = ['dipole'])
--------------------------------------------------------------------------

    Molecular point group: c1
  Charge       = 0
  Multiplicity = 1
  Basis Set: AUG-CC-PVTZ
    Blend: AUG-CC-PVTZ
  Basis Set: (AUG-CC-PVTZ AUX)
    Blend: AUG-CC-PVTZ-JKFIT

    Orbital Energies [Eh]
    ---------------------

    Doubly Occupied:

       1A    -20.507148     2A    -15.629645     3A    -11.350135
       4A    -11.308282     5A    -11.280594     6A    -11.269699
       7A    -11.244161     8A    -11.238728     9A    -11.235235
      10A    -11.235095    11A     -1.371756    12A     -1.288307
      13A     -1.157085    14A     -1.095980    15A     -1.022531
      16A     -0.902316    17A     -0.870901    18A     -0.830329
      19A     -0.812258    20A     -0.727411    21A     -0.698218
      22A     -0.682546    23A     -0.663161    24A     -0.640338
      25A     -0.604476    26A     -0.596208    27A     -0.577872
      28A     -0.547792    29A     -0.533426    30A     -0.526476
      31A     -0.481716    32A     -0.455538    33A     -0.441331
      34A     -0.420666    35A     -0.401196    36A     -0.306061

  @DF-RHF Final Energy:  -437.61031118566547

   => Energetics <=

    Nuclear Repulsion Energy =            508.5450984630260791
    One-Electron Energy =               -1602.4015850072844387
    Two-Electron Energy =                 656.2461753585928363
    Total Energy =                       -437.6103111856655232
  Basis Set: (AUG-CC-PVTZ AUX)
    Blend: AUG-CC-PVTZ-RI
    Molecular point group: c1

    Geometry (in Angstrom), charge = 0, multiplicity = 1:

       Center              X                  Y                   Z               Mass
    ------------   -----------------  -----------------  -----------------  -----------------
         O            0.107883552955     2.097025437091    -0.207861477842    15.994914619570
         N            0.162452552955    -0.209415562909    -0.224923477842    14.003074004430
         C            1.577532552955    -0.134674562909    -0.503342477842    12.000000000000
         C            2.485368552955     0.374137437091     0.568550522158    12.000000000000
         C            2.509780552955    -1.084257562909     0.197000522158    12.000000000000
         C           -0.510850447045     1.032520437091    -0.087493477842    12.000000000000
         C           -0.466457447045    -1.404847162909    -0.206915077842    12.000000000000
         C           -1.923681447045     0.897952437091     0.197527522158    12.000000000000
         C           -1.818393447045    -1.515082562909     0.028854522158    12.000000000000
         C           -2.551056447045    -0.317258562909     0.241408522158    12.000000000000
         H            1.804866552955     0.154286437091    -1.526363477842     1.007825032230
         H            2.018604552955     0.643751437091     1.509023522158     1.007825032230
         H            3.305041552955     1.016503437091     0.266787522158     1.007825032230
         H            3.350225552955    -1.472663562909    -0.368820477842     1.007825032230
         H            2.081499552955    -1.784959562909     0.905959522158     1.007825032230
         H            0.159006552955    -2.284843562909    -0.382344477842     1.007825032230
         H           -2.464114447045     1.827414437091     0.346805522158     1.007825032230
         H           -2.297522447045    -2.487359562909     0.043189522158     1.007825032230
         H           -3.618890447045    -0.366089562909     0.443338522158     1.007825032230

  Basis Set: AUG-CC-PVTZ
    Blend: AUG-CC-PVTZ
  Basis Set: (AUG-CC-PVTZ AUX)
    Blend: AUG-CC-PVTZ-JKFIT
	 Reference Energy          =    -437.6103111856654664 [Eh]
	 Singles Energy            =      -0.0000000000000000 [Eh]
	 Same-Spin Energy          =      -0.4679844962043855 [Eh]
	 Opposite-Spin Energy      =      -1.4645798775361847 [Eh]
	 Correlation Energy        =      -1.9325643737405702 [Eh]
	 Total Energy              =    -439.5428755594060135 [Eh]

	 ================> DF-SCS-MP2 Energies <==================
	-----------------------------------------------------------
	 SCS Same-Spin Scale       =       0.3333333333333333 [-]
	 SCS Opposite-Spin Scale   =       1.2000000000000000 [-]
	 SCS Same-Spin Energy      =      -0.1559948320681285 [Eh]
	 SCS Opposite-Spin Energy  =      -1.7574958530434215 [Eh]
	 SCS Correlation Energy    =      -1.9134906851115501 [Eh]
	 SCS Total Energy          =    -439.5238018707769925 [Eh]
	-----------------------------------------------------------

  Dipole Moment: [D]
     X:     0.0626      Y:    -3.7812      Z:     0.1512     Total:     3.7847

*** Psi4 exiting successfully. Buy a developer a beer!
