                               Psi4 1.4a3.dev225

  ==> Input File <==

--------------------------------------------------------------------------
#psi4
#
memory 32 gb

molecule  {
0 1
  O        0.0787650     2.1311770    -0.2164080
  N        0.1333340    -0.1752640    -0.2334700
  C        1.5484140    -0.1005230    -0.5118890
  C        2.4562500     0.4082890     0.5600040
  C        2.4806620    -1.0501060     0.1884540
  C       -0.5299663     1.0838813    -0.0979859
  C       -0.5048870    -1.3883940    -0.2151950
  C       -1.9528000     0.9321040     0.1889810
  C       -1.8475120    -1.4809310     0.0203080
  C       -2.5801750    -0.2831070     0.2328620
  H        1.7757480     0.1884380    -1.5349100
  H        1.9894860     0.6779030     1.5004770
  H        3.2759230     1.0506550     0.2582410
  H        3.3211070    -1.4385120    -0.3773670
  H        2.0523810    -1.7508080     0.8974130
  H        0.1298880    -2.2506920    -0.3908910
  H       -2.4932330     1.8615660     0.3382590
  H       -2.3266410    -2.4532080     0.0346430
  H       -3.6480090    -0.3319380     0.4347920
units angstrom
no_reorient  #important for SAPT in psi4, default
symmetry c1  #important for SAPT in psi4, default
}

set PROPERTIES_ORIGIN ["COM"]
properties('MP2/aug-cc-pvtz', properties = ['dipole'])
--------------------------------------------------------------------------

    Molecular point group: c1
  Charge       = 0
  Multiplicity = 1
  Basis Set: AUG-CC-PVTZ
    Blend: AUG-CC-PVTZ
  Basis Set: (AUG-CC-PVTZ AUX)
    Blend: AUG-CC-PVTZ-JKFIT

    Orbital Energies [Eh]
    ---------------------

    Doubly Occupied:

       1A    -20.512346     2A    -15.624575     3A    -11.350931
       4A    -11.305747     5A    -11.278429     6A    -11.268947
       7A    -11.242757     8A    -11.237401     9A    -11.236430
      10A    -11.233963    11A     -1.381172    12A     -1.284865
      13A     -1.154866    14A     -1.093777    15A     -1.022207
      16A     -0.899546    17A     -0.866701    18A     -0.828698
      19A     -0.809415    20A     -0.724810    21A     -0.696726
      22A     -0.681870    23A     -0.663920    24A     -0.639085
      25A     -0.610693    26A     -0.594459    27A     -0.577785
      28A     -0.547120    29A     -0.535106    30A     -0.526209
      31A     -0.486950    32A     -0.455094    33A     -0.439866
      34A     -0.421733    35A     -0.399037    36A     -0.307683

  @DF-RHF Final Energy:  -437.61133149246444

   => Energetics <=

    Nuclear Repulsion Energy =            508.1700983192860690
    One-Electron Energy =               -1601.6810228577990074
    Two-Electron Energy =                 655.8995930460483805
    Total Energy =                       -437.6113314924645010
  Basis Set: (AUG-CC-PVTZ AUX)
    Blend: AUG-CC-PVTZ-RI
    Molecular point group: c1

    Geometry (in Angstrom), charge = 0, multiplicity = 1:

       Center              X                  Y                   Z               Mass
    ------------   -----------------  -----------------  -----------------  -----------------
         O            0.107822099653     2.097068890625    -0.207712282339    15.994914619570
         N            0.162391099653    -0.209372109375    -0.224774282339    14.003074004430
         C            1.577471099653    -0.134631109375    -0.503193282339    12.000000000000
         C            2.485307099653     0.374180890625     0.568699717661    12.000000000000
         C            2.509719099653    -1.084214109375     0.197149717661    12.000000000000
         C           -0.500909200347     1.049773190625    -0.089290182339    12.000000000000
         C           -0.475829900347    -1.422502109375    -0.206499282339    12.000000000000
         C           -1.923742900347     0.897995890625     0.197676717661    12.000000000000
         C           -1.818454900347    -1.515039109375     0.029003717661    12.000000000000
         C           -2.551117900347    -0.317215109375     0.241557717661    12.000000000000
         H            1.804805099653     0.154329890625    -1.526214282339     1.007825032230
         H            2.018543099653     0.643794890625     1.509172717661     1.007825032230
         H            3.304980099653     1.016546890625     0.266936717661     1.007825032230
         H            3.350164099653    -1.472620109375    -0.368671282339     1.007825032230
         H            2.081438099653    -1.784916109375     0.906108717661     1.007825032230
         H            0.158945099653    -2.284800109375    -0.382195282339     1.007825032230
         H           -2.464175900347     1.827457890625     0.346954717661     1.007825032230
         H           -2.297583900347    -2.487316109375     0.043338717661     1.007825032230
         H           -3.618951900347    -0.366046109375     0.443487717661     1.007825032230

  Basis Set: AUG-CC-PVTZ
    Blend: AUG-CC-PVTZ
  Basis Set: (AUG-CC-PVTZ AUX)
    Blend: AUG-CC-PVTZ-JKFIT
	 Reference Energy          =    -437.6113314924644442 [Eh]
	 Singles Energy            =      -0.0000000000000000 [Eh]
	 Same-Spin Energy          =      -0.4673234897879033 [Eh]
	 Opposite-Spin Energy      =      -1.4639609352793506 [Eh]
	 Correlation Energy        =      -1.9312844250672538 [Eh]
	 Total Energy              =    -439.5426159175316911 [Eh]

	 ================> DF-SCS-MP2 Energies <==================
	-----------------------------------------------------------
	 SCS Same-Spin Scale       =       0.3333333333333333 [-]
	 SCS Opposite-Spin Scale   =       1.2000000000000000 [-]
	 SCS Same-Spin Energy      =      -0.1557744965959678 [Eh]
	 SCS Opposite-Spin Energy  =      -1.7567531223352206 [Eh]
	 SCS Correlation Energy    =      -1.9125276189311884 [Eh]
	 SCS Total Energy          =    -439.5238591113956090 [Eh]
	-----------------------------------------------------------

  Dipole Moment: [D]
     X:     0.0503      Y:    -3.6266      Z:     0.1374     Total:     3.6295

*** Psi4 exiting successfully. Buy a developer a beer!
