                               Psi4 1.3.2 release

  ==> Input File <==

--------------------------------------------------------------------------
#psi4
#
memory 32 gb

molecule  {
0 1
  O        0.0787650     2.1311770    -0.2164080
  N        0.1333340    -0.1752640    -0.2334700
  C        1.5492358    -0.1507014    -0.5166195
  C        2.4562500     0.4082890     0.5600040
  C        2.4806620    -1.0501060     0.1884540
  C       -0.5399690     1.0666720    -0.0960400
  C       -0.5048870    -1.3883940    -0.2151950
  C       -1.9528000     0.9321040     0.1889810
  C       -1.8475120    -1.4809310     0.0203080
  C       -2.5801750    -0.2831070     0.2328620
  H        1.7757480     0.1884380    -1.5349100
  H        1.9894860     0.6779030     1.5004770
  H        3.2759230     1.0506550     0.2582410
  H        3.3211070    -1.4385120    -0.3773670
  H        2.0523810    -1.7508080     0.8974130
  H        0.1298880    -2.2506920    -0.3908910
  H       -2.4932330     1.8615660     0.3382590
  H       -2.3266410    -2.4532080     0.0346430
  H       -3.6480090    -0.3319380     0.4347920
units angstrom
no_reorient  #important for SAPT in psi4, default
symmetry c1  #important for SAPT in psi4, default
}

set PROPERTIES_ORIGIN ["COM"]
properties('MP2/aug-cc-pvtz', properties = ['dipole'])
--------------------------------------------------------------------------

    Molecular point group: c1
  Charge       = 0
  Multiplicity = 1
  Basis Set: AUG-CC-PVTZ
    Blend: AUG-CC-PVTZ
  Basis Set: (AUG-CC-PVTZ AUX)
    Blend: AUG-CC-PVTZ-JKFIT

    Orbital Energies [Eh]
    ---------------------

    Doubly Occupied:

       1A    -20.507044     2A    -15.627571     3A    -11.350633
       4A    -11.306491     5A    -11.279660     6A    -11.270440
       7A    -11.244582     8A    -11.239044     9A    -11.237219
      10A    -11.233157    11A     -1.369565    12A     -1.283805
      13A     -1.157578    14A     -1.096359    15A     -1.024472
      16A     -0.900752    17A     -0.870513    18A     -0.829692
      19A     -0.809952    20A     -0.725007    21A     -0.698126
      22A     -0.681970    23A     -0.664776    24A     -0.640842
      25A     -0.606127    26A     -0.594305    27A     -0.576136
      28A     -0.544663    29A     -0.535028    30A     -0.526640
      31A     -0.480248    32A     -0.459666    33A     -0.442200
      34A     -0.420598    35A     -0.395255    36A     -0.308557

  @DF-RHF Final Energy:  -437.60904469860520

   => Energetics <=

    Nuclear Repulsion Energy =            508.1404672282603201
    One-Electron Energy =               -1601.6216795138166162
    Two-Electron Energy =                 655.8721675869510364
    Total Energy =                       -437.6090446986052029
  Basis Set: (AUG-CC-PVTZ AUX)
    Blend: AUG-CC-PVTZ-RI
    Molecular point group: c1

    Geometry (in Angstrom), charge = 0, multiplicity = 1:

       Center              X                  Y                   Z               Mass
    ------------   -----------------  -----------------  -----------------  -----------------
         O            0.108637766298     2.103055874381    -0.207464887711    15.994914619570
         N            0.163206766298    -0.203385125619    -0.224526887711    14.003074004430
         C            1.579108566298    -0.178822525619    -0.507676387711    12.000000000000
         C            2.486122766298     0.380167874381     0.568947112289    12.000000000000
         C            2.510534766298    -1.078227125619     0.197397112289    12.000000000000
         C           -0.510096233702     1.038550874381    -0.087096887711    12.000000000000
         C           -0.475014233702    -1.416515125619    -0.206251887711    12.000000000000
         C           -1.922927233702     0.903982874381     0.197924112289    12.000000000000
         C           -1.817639233702    -1.509052125619     0.029251112289    12.000000000000
         C           -2.550302233702    -0.311228125619     0.241805112289    12.000000000000
         H            1.805620766298     0.160316874381    -1.525966887711     1.007825032230
         H            2.019358766298     0.649781874381     1.509420112289     1.007825032230
         H            3.305795766298     1.022533874381     0.267184112289     1.007825032230
         H            3.350979766298    -1.466633125619    -0.368423887711     1.007825032230
         H            2.082253766298    -1.778929125619     0.906356112289     1.007825032230
         H            0.159760766298    -2.278813125619    -0.381947887711     1.007825032230
         H           -2.463360233702     1.833444874381     0.347202112289     1.007825032230
         H           -2.296768233702    -2.481329125619     0.043586112289     1.007825032230
         H           -3.618136233702    -0.360059125619     0.443735112289     1.007825032230

  Basis Set: AUG-CC-PVTZ
    Blend: AUG-CC-PVTZ
  Basis Set: (AUG-CC-PVTZ AUX)
    Blend: AUG-CC-PVTZ-JKFIT
	 Reference Energy          =    -437.6090446986052029 [Eh]
	 Singles Energy            =      -0.0000000000000000 [Eh]
	 Same-Spin Energy          =      -0.4678828882834608 [Eh]
	 Opposite-Spin Energy      =      -1.4648153755067461 [Eh]
	 Correlation Energy        =      -1.9326982637902068 [Eh]
	 Total Energy              =    -439.5417429623954035 [Eh]

	 ================> DF-SCS-MP2 Energies <==================
	-----------------------------------------------------------
	 SCS Same-Spin Scale       =       0.3333333333333333 [-]
	 SCS Opposite-Spin Scale   =       1.2000000000000000 [-]
	 SCS Same-Spin Energy      =      -0.1559609627611536 [Eh]
	 SCS Opposite-Spin Energy  =      -1.7577784506080953 [Eh]
	 SCS Correlation Energy    =      -1.9137394133692489 [Eh]
	 SCS Total Energy          =    -439.5227841119744312 [Eh]
	-----------------------------------------------------------

  Dipole Moment: [D]
     X:    -0.0010      Y:    -3.8313      Z:     0.1528     Total:     3.8343

*** Psi4 exiting successfully. Buy a developer a beer!
