                               Psi4 1.3.2 release

  ==> Input File <==

--------------------------------------------------------------------------
#psi4
#
memory 32 gb

molecule  {
0 1
  O        0.0787650     2.1311770    -0.2164080
  N        0.1333340    -0.1752640    -0.2334700
  C        1.5484140    -0.1005230    -0.5118890
  C        2.4562500     0.4082890     0.5600040
  C        2.4806620    -1.0501060     0.1884540
  C       -0.5399690     1.0666720    -0.0960400
  C       -0.4117767    -1.2114099    -0.2178611
  C       -1.9528000     0.9321040     0.1889810
  C       -1.8475120    -1.4809310     0.0203080
  C       -2.5801750    -0.2831070     0.2328620
  H        1.7757480     0.1884380    -1.5349100
  H        1.9894860     0.6779030     1.5004770
  H        3.2759230     1.0506550     0.2582410
  H        3.3211070    -1.4385120    -0.3773670
  H        2.0523810    -1.7508080     0.8974130
  H        0.1298880    -2.2506920    -0.3908910
  H       -2.4932330     1.8615660     0.3382590
  H       -2.3266410    -2.4532080     0.0346430
  H       -3.6480090    -0.3319380     0.4347920
units angstrom
no_reorient  #important for SAPT in psi4, default
symmetry c1  #important for SAPT in psi4, default
}

set PROPERTIES_ORIGIN ["COM"]
properties('MP2/aug-cc-pvtz', properties = ['dipole'])
--------------------------------------------------------------------------

    Molecular point group: c1
  Charge       = 0
  Multiplicity = 1
  Basis Set: AUG-CC-PVTZ
    Blend: AUG-CC-PVTZ
  Basis Set: (AUG-CC-PVTZ AUX)
    Blend: AUG-CC-PVTZ-JKFIT

    Orbital Energies [Eh]
    ---------------------

    Doubly Occupied:

       1A    -20.507355     2A    -15.649077     3A    -11.351044
       4A    -11.317584     5A    -11.293887     6A    -11.261816
       7A    -11.253701     8A    -11.245387     9A    -11.232776
      10A    -11.218069    11A     -1.410642    12A     -1.331652
      13A     -1.170384    14A     -1.093928    15A     -1.007405
      16A     -0.917041    17A     -0.890948    18A     -0.842081
      19A     -0.815296    20A     -0.745751    21A     -0.702681
      22A     -0.691340    23A     -0.656322    24A     -0.637639
      25A     -0.622689    26A     -0.589191    27A     -0.585182
      28A     -0.553462    29A     -0.537734    30A     -0.502414
      31A     -0.495433    32A     -0.458276    33A     -0.453062
      34A     -0.418679    35A     -0.409783    36A     -0.281989

  @DF-RHF Final Energy:  -437.55024767130925

   => Energetics <=

    Nuclear Repulsion Energy =            511.9971090097836850
    One-Electron Energy =               -1608.7913145029624502
    Two-Electron Energy =                 659.2439578218694578
    Total Energy =                       -437.5502476713091937
  Basis Set: (AUG-CC-PVTZ AUX)
    Blend: AUG-CC-PVTZ-RI
    Molecular point group: c1

    Geometry (in Angstrom), charge = 0, multiplicity = 1:

       Center              X                  Y                   Z               Mass
    ------------   -----------------  -----------------  -----------------  -----------------
         O            0.100438499216     2.082873879783    -0.207648296987    15.994914619570
         N            0.155007499216    -0.223567120217    -0.224710296987    14.003074004430
         C            1.570087499216    -0.148826120217    -0.503129296987    12.000000000000
         C            2.477923499216     0.359985879783     0.568763703013    12.000000000000
         C            2.502335499216    -1.098409120217     0.197213703013    12.000000000000
         C           -0.518295500784     1.018368879783    -0.087280296987    12.000000000000
         C           -0.390103200784    -1.259713020217    -0.209101396987    12.000000000000
         C           -1.931126500784     0.883800879783     0.197740703013    12.000000000000
         C           -1.825838500784    -1.529234120217     0.029067703013    12.000000000000
         C           -2.558501500784    -0.331410120217     0.241621703013    12.000000000000
         H            1.797421499216     0.140134879783    -1.526150296987     1.007825032230
         H            2.011159499216     0.629599879783     1.509236703013     1.007825032230
         H            3.297596499216     1.002351879783     0.267000703013     1.007825032230
         H            3.342780499216    -1.486815120217    -0.368607296987     1.007825032230
         H            2.074054499216    -1.799111120217     0.906172703013     1.007825032230
         H            0.151561499216    -2.298995120217    -0.382131296987     1.007825032230
         H           -2.471559500784     1.813262879783     0.347018703013     1.007825032230
         H           -2.304967500784    -2.501511120217     0.043402703013     1.007825032230
         H           -3.626335500784    -0.380241120217     0.443551703013     1.007825032230

  Basis Set: AUG-CC-PVTZ
    Blend: AUG-CC-PVTZ
  Basis Set: (AUG-CC-PVTZ AUX)
    Blend: AUG-CC-PVTZ-JKFIT
	 Reference Energy          =    -437.5502476713092506 [Eh]
	 Singles Energy            =      -0.0000000000000000 [Eh]
	 Same-Spin Energy          =      -0.4697131917525730 [Eh]
	 Opposite-Spin Energy      =      -1.4647412241101163 [Eh]
	 Correlation Energy        =      -1.9344544158626893 [Eh]
	 Total Energy              =    -439.4847020871719678 [Eh]

	 ================> DF-SCS-MP2 Energies <==================
	-----------------------------------------------------------
	 SCS Same-Spin Scale       =       0.3333333333333333 [-]
	 SCS Opposite-Spin Scale   =       1.2000000000000000 [-]
	 SCS Same-Spin Energy      =      -0.1565710639175243 [Eh]
	 SCS Opposite-Spin Energy  =      -1.7576894689321396 [Eh]
	 SCS Correlation Energy    =      -1.9142605328496640 [Eh]
	 SCS Total Energy          =    -439.4645082041589035 [Eh]
	-----------------------------------------------------------

  Dipole Moment: [D]
     X:     0.8681      Y:    -3.7389      Z:     0.0825     Total:     3.8392

*** Psi4 exiting successfully. Buy a developer a beer!
