                               Psi4 1.4a3.dev225

  ==> Input File <==

--------------------------------------------------------------------------
#psi4
#
memory 32 gb

molecule  {
0 1
  O        0.0787650     2.1311770    -0.2164080
  N        0.1333340    -0.1752640    -0.2334700
  C        1.5484140    -0.1005230    -0.5118890
  C        2.4562500     0.4082890     0.5600040
  C        2.4806620    -1.0501060     0.1884540
  C       -0.5636873     1.1104214    -0.0911988
  C       -0.5048870    -1.3883940    -0.2151950
  C       -1.9528000     0.9321040     0.1889810
  C       -1.8475120    -1.4809310     0.0203080
  C       -2.5801750    -0.2831070     0.2328620
  H        1.7757480     0.1884380    -1.5349100
  H        1.9894860     0.6779030     1.5004770
  H        3.2759230     1.0506550     0.2582410
  H        3.3211070    -1.4385120    -0.3773670
  H        2.0523810    -1.7508080     0.8974130
  H        0.1298880    -2.2506920    -0.3908910
  H       -2.4932330     1.8615660     0.3382590
  H       -2.3266410    -2.4532080     0.0346430
  H       -3.6480090    -0.3319380     0.4347920
units angstrom
no_reorient  #important for SAPT in psi4, default
symmetry c1  #important for SAPT in psi4, default
}

set PROPERTIES_ORIGIN ["COM"]
properties('MP2/aug-cc-pvtz', properties = ['dipole'])
--------------------------------------------------------------------------

    Molecular point group: c1
  Charge       = 0
  Multiplicity = 1
  Basis Set: AUG-CC-PVTZ
    Blend: AUG-CC-PVTZ
  Basis Set: (AUG-CC-PVTZ AUX)
    Blend: AUG-CC-PVTZ-JKFIT

    Orbital Energies [Eh]
    ---------------------

    Doubly Occupied:

       1A    -20.514551     2A    -15.621658     3A    -11.351735
       4A    -11.306374     5A    -11.277035     6A    -11.272724
       7A    -11.241759     8A    -11.235599     9A    -11.233566
      10A    -11.232800    11A     -1.382503    12A     -1.279442
      13A     -1.153933    14A     -1.093434    15A     -1.023508
      16A     -0.901887    17A     -0.860161    18A     -0.826030
      19A     -0.811362    20A     -0.723228    21A     -0.695288
      22A     -0.682494    23A     -0.663592    24A     -0.637578
      25A     -0.613512    26A     -0.591555    27A     -0.578026
      28A     -0.547784    29A     -0.534278    30A     -0.525300
      31A     -0.489801    32A     -0.454598    33A     -0.438885
      34A     -0.422269    35A     -0.397593    36A     -0.307544

  @DF-RHF Final Energy:  -437.60843766877929

   => Energetics <=

    Nuclear Repulsion Energy =            507.7645700332730598
    One-Electron Energy =               -1600.8992462617682122
    Two-Electron Energy =                 655.5262385597159209
    Total Energy =                       -437.6084376687792883
  Basis Set: (AUG-CC-PVTZ AUX)
    Blend: AUG-CC-PVTZ-RI
    Molecular point group: c1

    Geometry (in Angstrom), charge = 0, multiplicity = 1:

       Center              X                  Y                   Z               Mass
    ------------   -----------------  -----------------  -----------------  -----------------
         O            0.110818003642     2.094710965550    -0.208315274538    15.994914619570
         N            0.165387003642    -0.211730034450    -0.225377274538    14.003074004430
         C            1.580467003642    -0.136989034450    -0.503796274538    12.000000000000
         C            2.488303003642     0.371822965550     0.568096725462    12.000000000000
         C            2.512715003642    -1.086572034450     0.196546725462    12.000000000000
         C           -0.531634296358     1.073955365550    -0.083106074538    12.000000000000
         C           -0.472833996358    -1.424860034450    -0.207102274538    12.000000000000
         C           -1.920746996358     0.895637965550     0.197073725462    12.000000000000
         C           -1.815458996358    -1.517397034450     0.028400725462    12.000000000000
         C           -2.548121996358    -0.319573034450     0.240954725462    12.000000000000
         H            1.807801003642     0.151971965550    -1.526817274538     1.007825032230
         H            2.021539003642     0.641436965550     1.508569725462     1.007825032230
         H            3.307976003642     1.014188965550     0.266333725462     1.007825032230
         H            3.353160003642    -1.474978034450    -0.369274274538     1.007825032230
         H            2.084434003642    -1.787274034450     0.905505725462     1.007825032230
         H            0.161941003642    -2.287158034450    -0.382798274538     1.007825032230
         H           -2.461179996358     1.825099965550     0.346351725462     1.007825032230
         H           -2.294587996358    -2.489674034450     0.042735725462     1.007825032230
         H           -3.615955996358    -0.368404034450     0.442884725462     1.007825032230

  Basis Set: AUG-CC-PVTZ
    Blend: AUG-CC-PVTZ
  Basis Set: (AUG-CC-PVTZ AUX)
    Blend: AUG-CC-PVTZ-JKFIT
	 Reference Energy          =    -437.6084376687792883 [Eh]
	 Singles Energy            =      -0.0000000000000000 [Eh]
	 Same-Spin Energy          =      -0.4679890847385857 [Eh]
	 Opposite-Spin Energy      =      -1.4645424354750991 [Eh]
	 Correlation Energy        =      -1.9325315202136848 [Eh]
	 Total Energy              =    -439.5409691889929604 [Eh]

	 ================> DF-SCS-MP2 Energies <==================
	-----------------------------------------------------------
	 SCS Same-Spin Scale       =       0.3333333333333333 [-]
	 SCS Opposite-Spin Scale   =       1.2000000000000000 [-]
	 SCS Same-Spin Energy      =      -0.1559963615795286 [Eh]
	 SCS Opposite-Spin Energy  =      -1.7574509225701189 [Eh]
	 SCS Correlation Energy    =      -1.9134472841496475 [Eh]
	 SCS Total Energy          =    -439.5218849529289287 [Eh]
	-----------------------------------------------------------

  Dipole Moment: [D]
     X:    -0.0041      Y:    -3.5286      Z:     0.1403     Total:     3.5314

*** Psi4 exiting successfully. Buy a developer a beer!
