                               Psi4 1.4a3.dev225

  ==> Input File <==

--------------------------------------------------------------------------
#psi4
#
memory 32 gb

molecule  {
0 1
  O        0.0787650     2.1311770    -0.2164080
  N        0.1333340    -0.1752640    -0.2334700
  C        1.5680115    -0.0994879    -0.5157448
  C        2.4562500     0.4082890     0.5600040
  C        2.4806620    -1.0501060     0.1884540
  C       -0.5399690     1.0666720    -0.0960400
  C       -0.5048870    -1.3883940    -0.2151950
  C       -1.9528000     0.9321040     0.1889810
  C       -1.8475120    -1.4809310     0.0203080
  C       -2.5801750    -0.2831070     0.2328620
  H        1.7757480     0.1884380    -1.5349100
  H        1.9894860     0.6779030     1.5004770
  H        3.2759230     1.0506550     0.2582410
  H        3.3211070    -1.4385120    -0.3773670
  H        2.0523810    -1.7508080     0.8974130
  H        0.1298880    -2.2506920    -0.3908910
  H       -2.4932330     1.8615660     0.3382590
  H       -2.3266410    -2.4532080     0.0346430
  H       -3.6480090    -0.3319380     0.4347920
units angstrom
no_reorient  #important for SAPT in psi4, default
symmetry c1  #important for SAPT in psi4, default
}

set PROPERTIES_ORIGIN ["COM"]
properties('MP2/aug-cc-pvtz', properties = ['dipole'])
--------------------------------------------------------------------------

    Molecular point group: c1
  Charge       = 0
  Multiplicity = 1
  Basis Set: AUG-CC-PVTZ
    Blend: AUG-CC-PVTZ
  Basis Set: (AUG-CC-PVTZ AUX)
    Blend: AUG-CC-PVTZ-JKFIT

    Orbital Energies [Eh]
    ---------------------

    Doubly Occupied:

       1A    -20.506425     2A    -15.626779     3A    -11.349355
       4A    -11.306600     5A    -11.280026     6A    -11.269895
       7A    -11.243176     8A    -11.238697     9A    -11.236372
      10A    -11.234110    11A     -1.368570    12A     -1.280224
      13A     -1.159042    14A     -1.095567    15A     -1.023797
      16A     -0.899226    17A     -0.867706    18A     -0.830524
      19A     -0.811283    20A     -0.725803    21A     -0.696968
      22A     -0.681941    23A     -0.663626    24A     -0.640419
      25A     -0.605590    26A     -0.593041    27A     -0.578008
      28A     -0.544968    29A     -0.534347    30A     -0.526445
      31A     -0.479893    32A     -0.455305    33A     -0.444092
      34A     -0.419804    35A     -0.400631    36A     -0.308251

  @DF-RHF Final Energy:  -437.61055546924058

   => Energetics <=

    Nuclear Repulsion Energy =            507.9670062788019891
    One-Electron Energy =               -1601.3021156070649340
    Two-Electron Energy =                 655.7245538590223077
    Total Energy =                       -437.6105554692405804
  Basis Set: (AUG-CC-PVTZ AUX)
    Blend: AUG-CC-PVTZ-RI
    Molecular point group: c1

    Geometry (in Angstrom), charge = 0, multiplicity = 1:

       Center              X                  Y                   Z               Mass
    ------------   -----------------  -----------------  -----------------  -----------------
         O            0.106969660532     2.098505869075    -0.207542599440    15.994914619570
         N            0.161538660532    -0.207935130925    -0.224604599440    14.003074004430
         C            1.596216160532    -0.132159030925    -0.506879399440    12.000000000000
         C            2.484454660532     0.375617869075     0.568869400560    12.000000000000
         C            2.508866660532    -1.082777130925     0.197319400560    12.000000000000
         C           -0.511764339468     1.034000869075    -0.087174599440    12.000000000000
         C           -0.476682339468    -1.421065130925    -0.206329599440    12.000000000000
         C           -1.924595339468     0.899432869075     0.197846400560    12.000000000000
         C           -1.819307339468    -1.513602130925     0.029173400560    12.000000000000
         C           -2.551970339468    -0.315778130925     0.241727400560    12.000000000000
         H            1.803952660532     0.155766869075    -1.526044599440     1.007825032230
         H            2.017690660532     0.645231869075     1.509342400560     1.007825032230
         H            3.304127660532     1.017983869075     0.267106400560     1.007825032230
         H            3.349311660532    -1.471183130925    -0.368501599440     1.007825032230
         H            2.080585660532    -1.783479130925     0.906278400560     1.007825032230
         H            0.158092660532    -2.283363130925    -0.382025599440     1.007825032230
         H           -2.465028339468     1.828894869075     0.347124400560     1.007825032230
         H           -2.298436339468    -2.485879130925     0.043508400560     1.007825032230
         H           -3.619804339468    -0.364609130925     0.443657400560     1.007825032230

  Basis Set: AUG-CC-PVTZ
    Blend: AUG-CC-PVTZ
  Basis Set: (AUG-CC-PVTZ AUX)
    Blend: AUG-CC-PVTZ-JKFIT
	 Reference Energy          =    -437.6105554692405804 [Eh]
	 Singles Energy            =      -0.0000000000000000 [Eh]
	 Same-Spin Energy          =      -0.4676573700598304 [Eh]
	 Opposite-Spin Energy      =      -1.4644366388261933 [Eh]
	 Correlation Energy        =      -1.9320940088860237 [Eh]
	 Total Energy              =    -439.5426494781265774 [Eh]

	 ================> DF-SCS-MP2 Energies <==================
	-----------------------------------------------------------
	 SCS Same-Spin Scale       =       0.3333333333333333 [-]
	 SCS Opposite-Spin Scale   =       1.2000000000000000 [-]
	 SCS Same-Spin Energy      =      -0.1558857900199435 [Eh]
	 SCS Opposite-Spin Energy  =      -1.7573239665914320 [Eh]
	 SCS Correlation Energy    =      -1.9132097566113755 [Eh]
	 SCS Total Energy          =    -439.5237652258519461 [Eh]
	-----------------------------------------------------------

  Dipole Moment: [D]
     X:     0.0461      Y:    -3.8007      Z:     0.1465     Total:     3.8038

*** Psi4 exiting successfully. Buy a developer a beer!
