                               Psi4 1.4a3.dev225

  ==> Input File <==

--------------------------------------------------------------------------
#psi4
#
memory 32 gb

molecule  {
0 1
  O        0.0787650     2.1311770    -0.2164080
  N        0.1333340    -0.1752640    -0.2334700
  C        1.5484140    -0.1005230    -0.5118890
  C        2.4562500     0.4082890     0.5600040
  C        2.4806620    -1.0501060     0.1884540
  C       -0.5399690     1.0666720    -0.0960400
  C       -0.4816094    -1.3441480    -0.2158615
  C       -1.9528000     0.9321040     0.1889810
  C       -1.8475120    -1.4809310     0.0203080
  C       -2.5801750    -0.2831070     0.2328620
  H        1.7757480     0.1884380    -1.5349100
  H        1.9894860     0.6779030     1.5004770
  H        3.2759230     1.0506550     0.2582410
  H        3.3211070    -1.4385120    -0.3773670
  H        2.0523810    -1.7508080     0.8974130
  H        0.1298880    -2.2506920    -0.3908910
  H       -2.4932330     1.8615660     0.3382590
  H       -2.3266410    -2.4532080     0.0346430
  H       -3.6480090    -0.3319380     0.4347920
units angstrom
no_reorient  #important for SAPT in psi4, default
symmetry c1  #important for SAPT in psi4, default
}

set PROPERTIES_ORIGIN ["COM"]
properties('MP2/aug-cc-pvtz', properties = ['dipole'])
--------------------------------------------------------------------------

    Molecular point group: c1
  Charge       = 0
  Multiplicity = 1
  Basis Set: AUG-CC-PVTZ
    Blend: AUG-CC-PVTZ
  Basis Set: (AUG-CC-PVTZ AUX)
    Blend: AUG-CC-PVTZ-JKFIT

    Orbital Energies [Eh]
    ---------------------

    Doubly Occupied:

       1A    -20.507048     2A    -15.633099     3A    -11.350323
       4A    -11.310135     5A    -11.282633     6A    -11.268548
       7A    -11.245625     8A    -11.237788     9A    -11.236669
      10A    -11.232549    11A     -1.374844    12A     -1.296411
      13A     -1.158747    14A     -1.096031    15A     -1.019499
      16A     -0.903599    17A     -0.874076    18A     -0.831797
      19A     -0.814077    20A     -0.729906    21A     -0.699079
      22A     -0.683407    23A     -0.662099    24A     -0.640068
      25A     -0.601959    26A     -0.599359    27A     -0.578960
      28A     -0.549938    29A     -0.531879    30A     -0.525243
      31A     -0.483606    32A     -0.455682    33A     -0.443191
      34A     -0.420722    35A     -0.403196    36A     -0.301894

  @DF-RHF Final Energy:  -437.60772148131070

   => Energetics <=

    Nuclear Repulsion Energy =            509.0667591947497499
    One-Electron Energy =               -1603.3815939816186074
    Two-Electron Energy =                 656.7071133055582095
    Total Energy =                       -437.6077214813107048
  Basis Set: (AUG-CC-PVTZ AUX)
    Blend: AUG-CC-PVTZ-RI
    Molecular point group: c1

    Geometry (in Angstrom), charge = 0, multiplicity = 1:

       Center              X                  Y                   Z               Mass
    ------------   -----------------  -----------------  -----------------  -----------------
         O            0.106642706223     2.094666845687    -0.207825949180    15.994914619570
         N            0.161211706223    -0.211774154313    -0.224887949180    14.003074004430
         C            1.576291706223    -0.137033154313    -0.503306949180    12.000000000000
         C            2.484127706223     0.371778845687     0.568586050820    12.000000000000
         C            2.508539706223    -1.086616154313     0.197036050820    12.000000000000
         C           -0.512091293777     1.030161845687    -0.087457949180    12.000000000000
         C           -0.453731693777    -1.380658154313    -0.207279449180    12.000000000000
         C           -1.924922293777     0.895593845687     0.197563050820    12.000000000000
         C           -1.819634293777    -1.517441154313     0.028890050820    12.000000000000
         C           -2.552297293777    -0.319617154313     0.241444050820    12.000000000000
         H            1.803625706223     0.151927845687    -1.526327949180     1.007825032230
         H            2.017363706223     0.641392845687     1.509059050820     1.007825032230
         H            3.303800706223     1.014144845687     0.266823050820     1.007825032230
         H            3.348984706223    -1.475022154313    -0.368784949180     1.007825032230
         H            2.080258706223    -1.787318154313     0.905995050820     1.007825032230
         H            0.157765706223    -2.287202154313    -0.382308949180     1.007825032230
         H           -2.465355293777     1.825055845687     0.346841050820     1.007825032230
         H           -2.298763293777    -2.489718154313     0.043225050820     1.007825032230
         H           -3.620131293777    -0.368448154313     0.443374050820     1.007825032230

  Basis Set: AUG-CC-PVTZ
    Blend: AUG-CC-PVTZ
  Basis Set: (AUG-CC-PVTZ AUX)
    Blend: AUG-CC-PVTZ-JKFIT
	 Reference Energy          =    -437.6077214813107048 [Eh]
	 Singles Energy            =      -0.0000000000000000 [Eh]
	 Same-Spin Energy          =      -0.4683482850351640 [Eh]
	 Opposite-Spin Energy      =      -1.4645425828399572 [Eh]
	 Correlation Energy        =      -1.9328908678751211 [Eh]
	 Total Energy              =    -439.5406123491858352 [Eh]

	 ================> DF-SCS-MP2 Energies <==================
	-----------------------------------------------------------
	 SCS Same-Spin Scale       =       0.3333333333333333 [-]
	 SCS Opposite-Spin Scale   =       1.2000000000000000 [-]
	 SCS Same-Spin Energy      =      -0.1561160950117213 [Eh]
	 SCS Opposite-Spin Energy  =      -1.7574510994079486 [Eh]
	 SCS Correlation Energy    =      -1.9135671944196699 [Eh]
	 SCS Total Energy          =    -439.5212886757303750 [Eh]
	-----------------------------------------------------------

  Dipole Moment: [D]
     X:     0.1800      Y:    -3.7660      Z:     0.1424     Total:     3.7730

*** Psi4 exiting successfully. Buy a developer a beer!
