                               Psi4 1.3.2 release

  ==> Input File <==

--------------------------------------------------------------------------
#psi4
#
memory 32 gb

molecule  {
0 1
  O        2.5396650    -0.5551780     0.7057380
  C        0.3025760    -0.4378200    -0.2720190
  C       -0.0927650     0.9034730    -0.0869930
  C        1.7537560    -0.7902540    -0.4711970
  C       -0.6708623    -1.4481056    -0.3403663
  C       -1.4454780     1.1756780     0.1425470
  C        0.9085990     2.0263450    -0.1815640
  C       -1.9974120    -1.1732570     0.0382800
  C       -2.3931980     0.1517110     0.2151080
  H        1.8374090    -1.8385530    -0.7929100
  H        2.2124050    -0.1698090    -1.2460060
  H       -0.3343640    -2.4925800    -0.3335330
  H       -1.7609160     2.2085530     0.2816270
  H        1.7975830     1.8046110     0.4123870
  H        1.2313290     2.1813940    -1.2178320
  H        0.4699250     2.9630620     0.1727880
  H       -2.7264860    -1.9781040     0.0926730
  H       -3.4380290     0.3918270     0.3981780
  H        2.0803190    -1.0071740     1.4349120
units angstrom
no_reorient  #important for SAPT in psi4, default
symmetry c1  #important for SAPT in psi4, default
}

set PROPERTIES_ORIGIN ["COM"]
properties('MP2/aug-cc-pvtz', properties = ['dipole'])
--------------------------------------------------------------------------

    Molecular point group: c1
  Charge       = 0
  Multiplicity = 1
  Basis Set: AUG-CC-PVTZ
    Blend: AUG-CC-PVTZ
  Basis Set: (AUG-CC-PVTZ AUX)
    Blend: AUG-CC-PVTZ-JKFIT

    Orbital Energies [Eh]
    ---------------------

    Doubly Occupied:

       1A    -20.561501     2A    -11.282951     3A    -11.245575
       4A    -11.241969     5A    -11.239924     6A    -11.238603
       7A    -11.237104     8A    -11.234530     9A    -11.219933
      10A     -1.357811    11A     -1.156895    12A     -1.048849
      13A     -1.032234    14A     -0.943089    15A     -0.908444
      16A     -0.818067    17A     -0.791187    18A     -0.701094
      19A     -0.674200    20A     -0.643822    21A     -0.623071
      22A     -0.607192    23A     -0.586427    24A     -0.572059
      25A     -0.568421    26A     -0.543302    27A     -0.525947
      28A     -0.495060    29A     -0.485835    30A     -0.478038
      31A     -0.447499    32A     -0.337529    33A     -0.324646

  @DF-RHF Final Energy:  -383.75347280352810

   => Energetics <=

    Nuclear Repulsion Energy =            426.5241699199337972
    One-Electron Energy =               -1366.2096710797263768
    Two-Electron Energy =                 555.9320283562644818
    Total Energy =                       -383.7534728035280978
  Basis Set: (AUG-CC-PVTZ AUX)
    Blend: AUG-CC-PVTZ-RI
    Molecular point group: c1

    Geometry (in Angstrom), charge = 0, multiplicity = 1:

       Center              X                  Y                   Z               Mass
    ------------   -----------------  -----------------  -----------------  -----------------
         O            2.552901307299    -0.539552878035     0.713849452669    15.994914619570
         C            0.315812307299    -0.422194878035    -0.263907547331    12.000000000000
         C           -0.079528692701     0.919098121965    -0.078881547331    12.000000000000
         C            1.766992307299    -0.774628878035    -0.463085547331    12.000000000000
         C           -0.657625992701    -1.432480478035    -0.332254847331    12.000000000000
         C           -1.432241692701     1.191303121965     0.150658452669    12.000000000000
         C            0.921835307299     2.041970121965    -0.173452547331    12.000000000000
         C           -1.984175692701    -1.157631878035     0.046391452669    12.000000000000
         C           -2.379961692701     0.167336121965     0.223219452669    12.000000000000
         H            1.850645307299    -1.822927878035    -0.784798547331     1.007825032230
         H            2.225641307299    -0.154183878035    -1.237894547331     1.007825032230
         H           -0.321127692701    -2.476954878035    -0.325421547331     1.007825032230
         H           -1.747679692701     2.224178121965     0.289738452669     1.007825032230
         H            1.810819307299     1.820236121965     0.420498452669     1.007825032230
         H            1.244565307299     2.197019121965    -1.209720547331     1.007825032230
         H            0.483161307299     2.978687121965     0.180899452669     1.007825032230
         H           -2.713249692701    -1.962478878035     0.100784452669     1.007825032230
         H           -3.424792692701     0.407452121965     0.406289452669     1.007825032230
         H            2.093555307299    -0.991548878035     1.443023452669     1.007825032230

  Basis Set: AUG-CC-PVTZ
    Blend: AUG-CC-PVTZ
  Basis Set: (AUG-CC-PVTZ AUX)
    Blend: AUG-CC-PVTZ-JKFIT
	 Reference Energy          =    -383.7534728035280978 [Eh]
	 Singles Energy            =      -0.0000000000000000 [Eh]
	 Same-Spin Energy          =      -0.4134484784956263 [Eh]
	 Opposite-Spin Energy      =      -1.3216371548056940 [Eh]
	 Correlation Energy        =      -1.7350856333013203 [Eh]
	 Total Energy              =    -385.4885584368294076 [Eh]

	 ================> DF-SCS-MP2 Energies <==================
	-----------------------------------------------------------
	 SCS Same-Spin Scale       =       0.3333333333333333 [-]
	 SCS Opposite-Spin Scale   =       1.2000000000000000 [-]
	 SCS Same-Spin Energy      =      -0.1378161594985421 [Eh]
	 SCS Opposite-Spin Energy  =      -1.5859645857668327 [Eh]
	 SCS Correlation Energy    =      -1.7237807452653748 [Eh]
	 SCS Total Energy          =    -385.4772535487934988 [Eh]
	-----------------------------------------------------------

  Dipole Moment: [D]
     X:    -1.1868      Y:    -0.3737      Z:    -0.0016     Total:     1.2443

*** Psi4 exiting successfully. Buy a developer a beer!
