                               Psi4 1.3.2 release

  ==> Input File <==

--------------------------------------------------------------------------
#psi4
#
memory 32 gb

molecule  {
0 1
  O        2.5396650    -0.5551780     0.7057380
  C        0.3025760    -0.4378200    -0.2720190
  C       -0.0927650     0.9034730    -0.0869930
  C        1.7537560    -0.7902540    -0.4711970
  C       -0.6572828    -1.4557085    -0.2415848
  C       -1.4454780     1.1756780     0.1425470
  C        0.9085990     2.0263450    -0.1815640
  C       -1.9974120    -1.1732570     0.0382800
  C       -2.3931980     0.1517110     0.2151080
  H        1.8374090    -1.8385530    -0.7929100
  H        2.2124050    -0.1698090    -1.2460060
  H       -0.3343640    -2.4925800    -0.3335330
  H       -1.7609160     2.2085530     0.2816270
  H        1.7975830     1.8046110     0.4123870
  H        1.2313290     2.1813940    -1.2178320
  H        0.4699250     2.9630620     0.1727880
  H       -2.7264860    -1.9781040     0.0926730
  H       -3.4380290     0.3918270     0.3981780
  H        2.0803190    -1.0071740     1.4349120
units angstrom
no_reorient  #important for SAPT in psi4, default
symmetry c1  #important for SAPT in psi4, default
}

set PROPERTIES_ORIGIN ["COM"]
properties('MP2/aug-cc-pvtz', properties = ['dipole'])
--------------------------------------------------------------------------

    Molecular point group: c1
  Charge       = 0
  Multiplicity = 1
  Basis Set: AUG-CC-PVTZ
    Blend: AUG-CC-PVTZ
  Basis Set: (AUG-CC-PVTZ AUX)
    Blend: AUG-CC-PVTZ-JKFIT

    Orbital Energies [Eh]
    ---------------------

    Doubly Occupied:

       1A    -20.561053     2A    -11.282795     3A    -11.245811
       4A    -11.240333     5A    -11.238701     6A    -11.238290
       7A    -11.235446     8A    -11.233641     9A    -11.219855
      10A     -1.357431    11A     -1.157486    12A     -1.049200
      13A     -1.032695    14A     -0.943539    15A     -0.908537
      16A     -0.818305    17A     -0.792239    18A     -0.701059
      19A     -0.674684    20A     -0.644666    21A     -0.624827
      22A     -0.605990    23A     -0.586763    24A     -0.572836
      25A     -0.568601    26A     -0.543411    27A     -0.526094
      28A     -0.494417    29A     -0.487856    30A     -0.478327
      31A     -0.447447    32A     -0.337536    33A     -0.325475

  @DF-RHF Final Energy:  -383.75913316602396

   => Energetics <=

    Nuclear Repulsion Energy =            426.8360719001413486
    One-Electron Energy =               -1366.8397182304993294
    Two-Electron Energy =                 556.2445131643339664
    Total Energy =                       -383.7591331660239575
  Basis Set: (AUG-CC-PVTZ AUX)
    Blend: AUG-CC-PVTZ-RI
    Molecular point group: c1

    Geometry (in Angstrom), charge = 0, multiplicity = 1:

       Center              X                  Y                   Z               Mass
    ------------   -----------------  -----------------  -----------------  -----------------
         O            2.551566419324    -0.538805500017     0.704139062998    15.994914619570
         C            0.314477419324    -0.421447500017    -0.273617937002    12.000000000000
         C           -0.080863580676     0.919845499983    -0.088591937002    12.000000000000
         C            1.765657419324    -0.773881500017    -0.472795937002    12.000000000000
         C           -0.645381380676    -1.439336000017    -0.243183737002    12.000000000000
         C           -1.433576580676     1.192050499983     0.140948062998    12.000000000000
         C            0.920500419324     2.042717499983    -0.183162937002    12.000000000000
         C           -1.985510580676    -1.156884500017     0.036681062998    12.000000000000
         C           -2.381296580676     0.168083499983     0.213509062998    12.000000000000
         H            1.849310419324    -1.822180500017    -0.794508937002     1.007825032230
         H            2.224306419324    -0.153436500017    -1.247604937002     1.007825032230
         H           -0.322462580676    -2.476207500017    -0.335131937002     1.007825032230
         H           -1.749014580676     2.224925499983     0.280028062998     1.007825032230
         H            1.809484419324     1.820983499983     0.410788062998     1.007825032230
         H            1.243230419324     2.197766499983    -1.219430937002     1.007825032230
         H            0.481826419324     2.979434499983     0.171189062998     1.007825032230
         H           -2.714584580676    -1.961731500017     0.091074062998     1.007825032230
         H           -3.426127580676     0.408199499983     0.396579062998     1.007825032230
         H            2.092220419324    -0.990801500017     1.433313062998     1.007825032230

  Basis Set: AUG-CC-PVTZ
    Blend: AUG-CC-PVTZ
  Basis Set: (AUG-CC-PVTZ AUX)
    Blend: AUG-CC-PVTZ-JKFIT
	 Reference Energy          =    -383.7591331660239575 [Eh]
	 Singles Energy            =      -0.0000000000000000 [Eh]
	 Same-Spin Energy          =      -0.4131858036530917 [Eh]
	 Opposite-Spin Energy      =      -1.3208276236931726 [Eh]
	 Correlation Energy        =      -1.7340134273462644 [Eh]
	 Total Energy              =    -385.4931465933702270 [Eh]

	 ================> DF-SCS-MP2 Energies <==================
	-----------------------------------------------------------
	 SCS Same-Spin Scale       =       0.3333333333333333 [-]
	 SCS Opposite-Spin Scale   =       1.2000000000000000 [-]
	 SCS Same-Spin Energy      =      -0.1377286012176972 [Eh]
	 SCS Opposite-Spin Energy  =      -1.5849931484318072 [Eh]
	 SCS Correlation Energy    =      -1.7227217496495044 [Eh]
	 SCS Total Energy          =    -385.4818549156734662 [Eh]
	-----------------------------------------------------------

  Dipole Moment: [D]
     X:    -1.1949      Y:    -0.4027      Z:    -0.0702     Total:     1.2629

*** Psi4 exiting successfully. Buy a developer a beer!
