                               Psi4 1.3.2 release

  ==> Input File <==

--------------------------------------------------------------------------
#psi4
#
memory 32 gb

molecule  {
0 1
  O        2.5396650    -0.5551780     0.7057380
  C        0.3025760    -0.4378200    -0.2720190
  C       -0.0927650     0.9034730    -0.0869930
  C        1.7537560    -0.7902540    -0.4711970
  C       -0.6844419    -1.4405026    -0.4391478
  C       -1.4454780     1.1756780     0.1425470
  C        0.9085990     2.0263450    -0.1815640
  C       -1.9974120    -1.1732570     0.0382800
  C       -2.3931980     0.1517110     0.2151080
  H        1.8374090    -1.8385530    -0.7929100
  H        2.2124050    -0.1698090    -1.2460060
  H       -0.3343640    -2.4925800    -0.3335330
  H       -1.7609160     2.2085530     0.2816270
  H        1.7975830     1.8046110     0.4123870
  H        1.2313290     2.1813940    -1.2178320
  H        0.4699250     2.9630620     0.1727880
  H       -2.7264860    -1.9781040     0.0926730
  H       -3.4380290     0.3918270     0.3981780
  H        2.0803190    -1.0071740     1.4349120
units angstrom
no_reorient  #important for SAPT in psi4, default
symmetry c1  #important for SAPT in psi4, default
}

set PROPERTIES_ORIGIN ["COM"]
properties('MP2/aug-cc-pvtz', properties = ['dipole'])
--------------------------------------------------------------------------

    Molecular point group: c1
  Charge       = 0
  Multiplicity = 1
  Basis Set: AUG-CC-PVTZ
    Blend: AUG-CC-PVTZ
  Basis Set: (AUG-CC-PVTZ AUX)
    Blend: AUG-CC-PVTZ-JKFIT

    Orbital Energies [Eh]
    ---------------------

    Doubly Occupied:

       1A    -20.562181     2A    -11.283224     3A    -11.245414
       4A    -11.245042     5A    -11.243198     6A    -11.241001
       7A    -11.237935     8A    -11.236362     9A    -11.220110
      10A     -1.358398    11A     -1.155834    12A     -1.048445
      13A     -1.031045    14A     -0.942374    15A     -0.908315
      16A     -0.817498    17A     -0.789401    18A     -0.701156
      19A     -0.673332    20A     -0.642203    21A     -0.620245
      22A     -0.607893    23A     -0.585748    24A     -0.571171
      25A     -0.567573    26A     -0.543129    27A     -0.526010
      28A     -0.495351    29A     -0.482751    30A     -0.476740
      31A     -0.447674    32A     -0.337674    33A     -0.323310

  @DF-RHF Final Energy:  -383.74134052803174

   => Energetics <=

    Nuclear Repulsion Energy =            425.9960535617465780
    One-Electron Energy =               -1365.1393178208522841
    Two-Electron Energy =                 555.4019237310740209
    Total Energy =                       -383.7413405280317420
  Basis Set: (AUG-CC-PVTZ AUX)
    Blend: AUG-CC-PVTZ-RI
    Molecular point group: c1

    Geometry (in Angstrom), charge = 0, multiplicity = 1:

       Center              X                  Y                   Z               Mass
    ------------   -----------------  -----------------  -----------------  -----------------
         O            2.554236205105    -0.540300265882     0.723559842341    15.994914619570
         C            0.317147205105    -0.422942265882    -0.254197157659    12.000000000000
         C           -0.078193794895     0.918350734118    -0.069171157659    12.000000000000
         C            1.768327205105    -0.775376265882    -0.453375157659    12.000000000000
         C           -0.669870694895    -1.425624865882    -0.421325957659    12.000000000000
         C           -1.430906794895     1.190555734118     0.160368842341    12.000000000000
         C            0.923170205105     2.041222734118    -0.163742157659    12.000000000000
         C           -1.982840794895    -1.158379265882     0.056101842341    12.000000000000
         C           -2.378626794895     0.166588734118     0.232929842341    12.000000000000
         H            1.851980205105    -1.823675265882    -0.775088157659     1.007825032230
         H            2.226976205105    -0.154931265882    -1.228184157659     1.007825032230
         H           -0.319792794895    -2.477702265882    -0.315711157659     1.007825032230
         H           -1.746344794895     2.223430734118     0.299448842341     1.007825032230
         H            1.812154205105     1.819488734118     0.430208842341     1.007825032230
         H            1.245900205105     2.196271734118    -1.200010157659     1.007825032230
         H            0.484496205105     2.977939734118     0.190609842341     1.007825032230
         H           -2.711914794895    -1.963226265882     0.110494842341     1.007825032230
         H           -3.423457794895     0.406704734118     0.415999842341     1.007825032230
         H            2.094890205105    -0.992296265882     1.452733842341     1.007825032230

  Basis Set: AUG-CC-PVTZ
    Blend: AUG-CC-PVTZ
  Basis Set: (AUG-CC-PVTZ AUX)
    Blend: AUG-CC-PVTZ-JKFIT
	 Reference Energy          =    -383.7413405280317420 [Eh]
	 Singles Energy            =      -0.0000000000000000 [Eh]
	 Same-Spin Energy          =      -0.4140162972189742 [Eh]
	 Opposite-Spin Energy      =      -1.3234167529132197 [Eh]
	 Correlation Energy        =      -1.7374330501321940 [Eh]
	 Total Energy              =    -385.4787735781639526 [Eh]

	 ================> DF-SCS-MP2 Energies <==================
	-----------------------------------------------------------
	 SCS Same-Spin Scale       =       0.3333333333333333 [-]
	 SCS Opposite-Spin Scale   =       1.2000000000000000 [-]
	 SCS Same-Spin Energy      =      -0.1380054324063247 [Eh]
	 SCS Opposite-Spin Energy  =      -1.5881001034958635 [Eh]
	 SCS Correlation Energy    =      -1.7261055359021882 [Eh]
	 SCS Total Energy          =    -385.4674460639339486 [Eh]
	-----------------------------------------------------------

  Dipole Moment: [D]
     X:    -1.1849      Y:    -0.3013      Z:     0.0754     Total:     1.2249

*** Psi4 exiting successfully. Buy a developer a beer!
