                               Psi4 1.3.2 release

  ==> Input File <==

--------------------------------------------------------------------------
#psi4
#
memory 32 gb

molecule  {
0 1
  O        2.5396650    -0.5551780     0.7057380
  C        0.3025760    -0.4378200    -0.2720190
  C       -0.0927650     0.9034730    -0.0869930
  C        1.7537560    -0.7902540    -0.4711970
  C       -0.6776521    -1.4443041    -0.3897571
  C       -1.4454780     1.1756780     0.1425470
  C        0.9085990     2.0263450    -0.1815640
  C       -1.9974120    -1.1732570     0.0382800
  C       -2.3931980     0.1517110     0.2151080
  H        1.8374090    -1.8385530    -0.7929100
  H        2.2124050    -0.1698090    -1.2460060
  H       -0.3343640    -2.4925800    -0.3335330
  H       -1.7609160     2.2085530     0.2816270
  H        1.7975830     1.8046110     0.4123870
  H        1.2313290     2.1813940    -1.2178320
  H        0.4699250     2.9630620     0.1727880
  H       -2.7264860    -1.9781040     0.0926730
  H       -3.4380290     0.3918270     0.3981780
  H        2.0803190    -1.0071740     1.4349120
units angstrom
no_reorient  #important for SAPT in psi4, default
symmetry c1  #important for SAPT in psi4, default
}

set PROPERTIES_ORIGIN ["COM"]
properties('MP2/aug-cc-pvtz', properties = ['dipole'])
--------------------------------------------------------------------------

    Molecular point group: c1
  Charge       = 0
  Multiplicity = 1
  Basis Set: AUG-CC-PVTZ
    Blend: AUG-CC-PVTZ
  Basis Set: (AUG-CC-PVTZ AUX)
    Blend: AUG-CC-PVTZ-JKFIT

    Orbital Energies [Eh]
    ---------------------

    Doubly Occupied:

       1A    -20.561812     2A    -11.283073     3A    -11.245433
       4A    -11.243372     5A    -11.241381     6A    -11.239264
       7A    -11.237832     8A    -11.235351     9A    -11.220007
      10A     -1.358078    11A     -1.156416    12A     -1.048645
      13A     -1.031735    14A     -0.942762    15A     -0.908385
      16A     -0.817818    17A     -0.790370    18A     -0.701111
      19A     -0.673790    20A     -0.643091    21A     -0.621776
      22A     -0.607616    23A     -0.586110    24A     -0.571587
      25A     -0.568139    26A     -0.543226    27A     -0.525951
      28A     -0.495277    29A     -0.484363    30A     -0.477566
      31A     -0.447574    32A     -0.337573    33A     -0.324034

  @DF-RHF Final Energy:  -383.74822848754911

   => Energetics <=

    Nuclear Repulsion Energy =            426.2862655177460738
    One-Electron Energy =               -1365.7279567531104476
    Two-Electron Energy =                 555.6934627478152606
    Total Energy =                       -383.7482284875491132
  Basis Set: (AUG-CC-PVTZ AUX)
    Blend: AUG-CC-PVTZ-RI
    Molecular point group: c1

    Geometry (in Angstrom), charge = 0, multiplicity = 1:

       Center              X                  Y                   Z               Mass
    ------------   -----------------  -----------------  -----------------  -----------------
         O            2.553568756202    -0.539926571959     0.718704652420    15.994914619570
         C            0.316479756202    -0.422568571959    -0.259052347580    12.000000000000
         C           -0.078861243798     0.918724428041    -0.074026347580    12.000000000000
         C            1.767659756202    -0.775002571959    -0.458230347580    12.000000000000
         C           -0.663748343798    -1.429052671959    -0.376790447580    12.000000000000
         C           -1.431574243798     1.190929428041     0.155513652420    12.000000000000
         C            0.922502756202     2.041596428041    -0.168597347580    12.000000000000
         C           -1.983508243798    -1.158005571959     0.051246652420    12.000000000000
         C           -2.379294243798     0.166962428041     0.228074652420    12.000000000000
         H            1.851312756202    -1.823301571959    -0.779943347580     1.007825032230
         H            2.226308756202    -0.154557571959    -1.233039347580     1.007825032230
         H           -0.320460243798    -2.477328571959    -0.320566347580     1.007825032230
         H           -1.747012243798     2.223804428041     0.294593652420     1.007825032230
         H            1.811486756202     1.819862428041     0.425353652420     1.007825032230
         H            1.245232756202     2.196645428041    -1.204865347580     1.007825032230
         H            0.483828756202     2.978313428041     0.185754652420     1.007825032230
         H           -2.712582243798    -1.962852571959     0.105639652420     1.007825032230
         H           -3.424125243798     0.407078428041     0.411144652420     1.007825032230
         H            2.094222756202    -0.991922571959     1.447878652420     1.007825032230

  Basis Set: AUG-CC-PVTZ
    Blend: AUG-CC-PVTZ
  Basis Set: (AUG-CC-PVTZ AUX)
    Blend: AUG-CC-PVTZ-JKFIT
	 Reference Energy          =    -383.7482284875491132 [Eh]
	 Singles Energy            =      -0.0000000000000000 [Eh]
	 Same-Spin Energy          =      -0.4136969365837901 [Eh]
	 Opposite-Spin Energy      =      -1.3224113088578757 [Eh]
	 Correlation Energy        =      -1.7361082454416659 [Eh]
	 Total Energy              =    -385.4843367329907551 [Eh]

	 ================> DF-SCS-MP2 Energies <==================
	-----------------------------------------------------------
	 SCS Same-Spin Scale       =       0.3333333333333333 [-]
	 SCS Opposite-Spin Scale   =       1.2000000000000000 [-]
	 SCS Same-Spin Energy      =      -0.1378989788612634 [Eh]
	 SCS Opposite-Spin Energy  =      -1.5868935706294509 [Eh]
	 SCS Correlation Energy    =      -1.7247925494907144 [Eh]
	 SCS Total Energy          =    -385.4730210370398140 [Eh]
	-----------------------------------------------------------

  Dipole Moment: [D]
     X:    -1.1851      Y:    -0.3428      Z:     0.0358     Total:     1.2342

*** Psi4 exiting successfully. Buy a developer a beer!
