                               Psi4 1.3.2 release

  ==> Input File <==

--------------------------------------------------------------------------
#psi4
#
memory 32 gb

molecule  {
0 1
  O        2.5396650    -0.5551780     0.7057380
  C        0.3025760    -0.4378200    -0.2720190
  C       -0.0927650     0.9034730    -0.0869930
  C        1.7537560    -0.7902540    -0.4711970
  C       -0.6640726    -1.4519071    -0.2909755
  C       -1.4454780     1.1756780     0.1425470
  C        0.9085990     2.0263450    -0.1815640
  C       -1.9974120    -1.1732570     0.0382800
  C       -2.3931980     0.1517110     0.2151080
  H        1.8374090    -1.8385530    -0.7929100
  H        2.2124050    -0.1698090    -1.2460060
  H       -0.3343640    -2.4925800    -0.3335330
  H       -1.7609160     2.2085530     0.2816270
  H        1.7975830     1.8046110     0.4123870
  H        1.2313290     2.1813940    -1.2178320
  H        0.4699250     2.9630620     0.1727880
  H       -2.7264860    -1.9781040     0.0926730
  H       -3.4380290     0.3918270     0.3981780
  H        2.0803190    -1.0071740     1.4349120
units angstrom
no_reorient  #important for SAPT in psi4, default
symmetry c1  #important for SAPT in psi4, default
}

set PROPERTIES_ORIGIN ["COM"]
properties('MP2/aug-cc-pvtz', properties = ['dipole'])
--------------------------------------------------------------------------

    Molecular point group: c1
  Charge       = 0
  Multiplicity = 1
  Basis Set: AUG-CC-PVTZ
    Blend: AUG-CC-PVTZ
  Basis Set: (AUG-CC-PVTZ AUX)
    Blend: AUG-CC-PVTZ-JKFIT

    Orbital Energies [Eh]
    ---------------------

    Doubly Occupied:

       1A    -20.561248     2A    -11.282858     3A    -11.245707
       4A    -11.240947     5A    -11.238897     6A    -11.238603
       7A    -11.236111     8A    -11.233957     9A    -11.219883
      10A     -1.357596    11A     -1.157255    12A     -1.049038
      13A     -1.032551    14A     -0.943350    15A     -0.908495
      16A     -0.818233    17A     -0.791819    18A     -0.701084
      19A     -0.674511    20A     -0.644357    21A     -0.624093
      22A     -0.606646    23A     -0.586656    24A     -0.572492
      25A     -0.568549    26A     -0.543362    27A     -0.525996
      28A     -0.494747    29A     -0.487038    30A     -0.478271
      31A     -0.447456    32A     -0.337522    33A     -0.325130

  @DF-RHF Final Energy:  -383.75709988492656

   => Energetics <=

    Nuclear Repulsion Energy =            426.7078981568073459
    One-Electron Energy =               -1366.5810789289039349
    Two-Electron Energy =                 556.1160808871700283
    Total Energy =                       -383.7570998849265607
  Basis Set: (AUG-CC-PVTZ AUX)
    Blend: AUG-CC-PVTZ-RI
    Molecular point group: c1

    Geometry (in Angstrom), charge = 0, multiplicity = 1:

       Center              X                  Y                   Z               Mass
    ------------   -----------------  -----------------  -----------------  -----------------
         O            2.552233868227    -0.539179184111     0.708994252919    15.994914619570
         C            0.315144868227    -0.421821184111    -0.268762747081    12.000000000000
         C           -0.080196131773     0.919471815889    -0.083736747081    12.000000000000
         C            1.766324868227    -0.774255184111    -0.467940747081    12.000000000000
         C           -0.651503731773    -1.435908284111    -0.287719247081    12.000000000000
         C           -1.432909131773     1.191676815889     0.145803252919    12.000000000000
         C            0.921167868227     2.042343815889    -0.178307747081    12.000000000000
         C           -1.984843131773    -1.157258184111     0.041536252919    12.000000000000
         C           -2.380629131773     0.167709815889     0.218364252919    12.000000000000
         H            1.849977868227    -1.822554184111    -0.789653747081     1.007825032230
         H            2.224973868227    -0.153810184111    -1.242749747081     1.007825032230
         H           -0.321795131773    -2.476581184111    -0.330276747081     1.007825032230
         H           -1.748347131773     2.224551815889     0.284883252919     1.007825032230
         H            1.810151868227     1.820609815889     0.415643252919     1.007825032230
         H            1.243897868227     2.197392815889    -1.214575747081     1.007825032230
         H            0.482493868227     2.979060815889     0.176044252919     1.007825032230
         H           -2.713917131773    -1.962105184111     0.095929252919     1.007825032230
         H           -3.425460131773     0.407825815889     0.401434252919     1.007825032230
         H            2.092887868227    -0.991175184111     1.438168252919     1.007825032230

  Basis Set: AUG-CC-PVTZ
    Blend: AUG-CC-PVTZ
  Basis Set: (AUG-CC-PVTZ AUX)
    Blend: AUG-CC-PVTZ-JKFIT
	 Reference Energy          =    -383.7570998849265607 [Eh]
	 Singles Energy            =      -0.0000000000000000 [Eh]
	 Same-Spin Energy          =      -0.4132768238304729 [Eh]
	 Opposite-Spin Energy      =      -1.3211074233559099 [Eh]
	 Correlation Energy        =      -1.7343842471863828 [Eh]
	 Total Energy              =    -385.4914841321129302 [Eh]

	 ================> DF-SCS-MP2 Energies <==================
	-----------------------------------------------------------
	 SCS Same-Spin Scale       =       0.3333333333333333 [-]
	 SCS Opposite-Spin Scale   =       1.2000000000000000 [-]
	 SCS Same-Spin Energy      =      -0.1377589412768243 [Eh]
	 SCS Opposite-Spin Energy  =      -1.5853289080270918 [Eh]
	 SCS Correlation Energy    =      -1.7230878493039161 [Eh]
	 SCS Total Energy          =    -385.4801877342304692 [Eh]
	-----------------------------------------------------------

  Dipole Moment: [D]
     X:    -1.1900      Y:    -0.3936      Z:    -0.0368     Total:     1.2540

*** Psi4 exiting successfully. Buy a developer a beer!
