                               Psi4 1.3.2 release

  ==> Input File <==

--------------------------------------------------------------------------
#psi4
#
memory 32 gb

molecule  {
1 1
  C        0.0002390     0.0000000     0.0000070
  N        1.3351690    -0.0037410     0.0000090
  N       -0.6645470     1.1579100     0.0000060
  N       -0.7715822    -1.3270537    -0.0000436
  H       -1.6824900    -1.1797440    -0.0000320
  H       -0.1917480    -2.0454120     0.0002210
  H        1.8634770    -0.8669560    -0.0001490
  H        1.8683040     0.8565010     0.0001050
  H       -0.1802750     2.0464480    -0.0001350
  H       -1.6758440     1.1891650     0.0001080
units angstrom
no_reorient  #important for SAPT in psi4, default
symmetry c1  #important for SAPT in psi4, default
}

set PROPERTIES_ORIGIN ["COM"]
properties('MP2/aug-cc-pvtz', properties = ['dipole'])
--------------------------------------------------------------------------

    Molecular point group: c1
  Charge       = 1
  Multiplicity = 1
  Basis Set: AUG-CC-PVTZ
    Blend: AUG-CC-PVTZ
  Basis Set: (AUG-CC-PVTZ AUX)
    Blend: AUG-CC-PVTZ-JKFIT

    Orbital Energies [Eh]
    ---------------------

    Doubly Occupied:

       1A    -15.816276     2A    -15.816138     3A    -15.782568
       4A    -11.630480     5A     -1.532752     6A     -1.410108
       7A     -1.389129     8A     -1.081330     9A     -0.996414
      10A     -0.973279    11A     -0.925464    12A     -0.879670
      13A     -0.817179    14A     -0.800293    15A     -0.639223
      16A     -0.627785

  @DF-RHF Final Energy:  -204.56504381077511

   => Energetics <=

    Nuclear Repulsion Energy =            129.9619648724512615
    One-Electron Energy =                -526.8178402017661028
    Two-Electron Energy =                 192.2908315185397043
    Total Energy =                       -204.5650438107751086
  Basis Set: (AUG-CC-PVTZ AUX)
    Blend: AUG-CC-PVTZ-RI
    Molecular point group: c1

    Geometry (in Angstrom), charge = 1, multiplicity = 1:

       Center              X                  Y                   Z               Mass
    ------------   -----------------  -----------------  -----------------  -----------------
         C            0.023707861858     0.040310848057     0.000010289663    12.000000000000
         N            1.358637861858     0.036569848057     0.000012289663    14.003074004430
         N           -0.641078138142     1.198220848057     0.000009289663    14.003074004430
         N           -0.748113338142    -1.286742851943    -0.000040310337    14.003074004430
         H           -1.659021138142    -1.139433151943    -0.000028710337     1.007825032230
         H           -0.168279138142    -2.005101151943     0.000224289663     1.007825032230
         H            1.886945861858    -0.826645151943    -0.000145710337     1.007825032230
         H            1.891772861858     0.896811848057     0.000108289663     1.007825032230
         H           -0.156806138142     2.086758848057    -0.000131710337     1.007825032230
         H           -1.652375138142     1.229475848057     0.000111289663     1.007825032230

  Basis Set: AUG-CC-PVTZ
    Blend: AUG-CC-PVTZ
  Basis Set: (AUG-CC-PVTZ AUX)
    Blend: AUG-CC-PVTZ-JKFIT
	 Reference Energy          =    -204.5650438107751086 [Eh]
	 Singles Energy            =      -0.0000000000000000 [Eh]
	 Same-Spin Energy          =      -0.2027416215003339 [Eh]
	 Opposite-Spin Energy      =      -0.6556159812332027 [Eh]
	 Correlation Energy        =      -0.8583576027335367 [Eh]
	 Total Energy              =    -205.4234014135086568 [Eh]

	 ================> DF-SCS-MP2 Energies <==================
	-----------------------------------------------------------
	 SCS Same-Spin Scale       =       0.3333333333333333 [-]
	 SCS Opposite-Spin Scale   =       1.2000000000000000 [-]
	 SCS Same-Spin Energy      =      -0.0675805405001113 [Eh]
	 SCS Opposite-Spin Energy  =      -0.7867391774798432 [Eh]
	 SCS Correlation Energy    =      -0.8543197179799545 [Eh]
	 SCS Total Energy          =    -205.4193635287550705 [Eh]
	-----------------------------------------------------------

  Dipole Moment: [D]
     X:     0.6549      Y:     1.1194      Z:     0.0003     Total:     1.2969

*** Psi4 exiting successfully. Buy a developer a beer!
