                               Psi4 1.3.2 release

  ==> Input File <==

--------------------------------------------------------------------------
#psi4
#
memory 32 gb

molecule  {
1 1
  C        0.0002390     0.0000000     0.0000070
  N        1.3351690    -0.0037410     0.0000090
  N       -0.6645470     1.1579100     0.0000060
  N       -0.6710310    -1.1541680    -0.0000370
  H       -1.6796225    -1.0738776    -0.0000625
  H       -0.1917480    -2.0454120     0.0002210
  H        1.8634770    -0.8669560    -0.0001490
  H        1.8683040     0.8565010     0.0001050
  H       -0.1802750     2.0464480    -0.0001350
  H       -1.6758440     1.1891650     0.0001080
units angstrom
no_reorient  #important for SAPT in psi4, default
symmetry c1  #important for SAPT in psi4, default
}

set PROPERTIES_ORIGIN ["COM"]
properties('MP2/aug-cc-pvtz', properties = ['dipole'])
--------------------------------------------------------------------------

    Molecular point group: c1
  Charge       = 1
  Multiplicity = 1
  Basis Set: AUG-CC-PVTZ
    Blend: AUG-CC-PVTZ
  Basis Set: (AUG-CC-PVTZ AUX)
    Blend: AUG-CC-PVTZ-JKFIT

    Orbital Energies [Eh]
    ---------------------

    Doubly Occupied:

       1A    -15.800391     2A    -15.800319     3A    -15.799291
       4A    -11.610088     5A     -1.548532     6A     -1.401093
       7A     -1.400509     8A     -1.076444     9A     -0.987459
      10A     -0.978650    11A     -0.875059    12A     -0.868379
      13A     -0.863603    14A     -0.816224    15A     -0.632440
      16A     -0.631851

  @DF-RHF Final Energy:  -204.61312796939953

   => Energetics <=

    Nuclear Repulsion Energy =            133.3919017007332286
    One-Electron Energy =                -533.8293979248915093
    Two-Electron Energy =                 195.8243682547587525
    Total Energy =                       -204.6131279693995282
  Basis Set: (AUG-CC-PVTZ AUX)
    Blend: AUG-CC-PVTZ-RI
    Molecular point group: c1

    Geometry (in Angstrom), charge = 1, multiplicity = 1:

       Center              X                  Y                   Z               Mass
    ------------   -----------------  -----------------  -----------------  -----------------
         C            0.000214592453    -0.001776850285     0.000009262597    12.000000000000
         N            1.335144592453    -0.005517850285     0.000011262597    14.003074004430
         N           -0.664571407547     1.156133149715     0.000008262597    14.003074004430
         N           -0.671055407547    -1.155944850285    -0.000034737403    14.003074004430
         H           -1.679646907547    -1.075654450285    -0.000060237403     1.007825032230
         H           -0.191772407547    -2.047188850285     0.000223262597     1.007825032230
         H            1.863452592453    -0.868732850285    -0.000146737403     1.007825032230
         H            1.868279592453     0.854724149715     0.000107262597     1.007825032230
         H           -0.180299407547     2.044671149715    -0.000132737403     1.007825032230
         H           -1.675868407547     1.187388149715     0.000110262597     1.007825032230

  Basis Set: AUG-CC-PVTZ
    Blend: AUG-CC-PVTZ
  Basis Set: (AUG-CC-PVTZ AUX)
    Blend: AUG-CC-PVTZ-JKFIT
	 Reference Energy          =    -204.6131279693995282 [Eh]
	 Singles Energy            =      -0.0000000000000000 [Eh]
	 Same-Spin Energy          =      -0.2033595913337176 [Eh]
	 Opposite-Spin Energy      =      -0.6541023585934783 [Eh]
	 Correlation Energy        =      -0.8574619499271959 [Eh]
	 Total Energy              =    -205.4705899193267271 [Eh]

	 ================> DF-SCS-MP2 Energies <==================
	-----------------------------------------------------------
	 SCS Same-Spin Scale       =       0.3333333333333333 [-]
	 SCS Opposite-Spin Scale   =       1.2000000000000000 [-]
	 SCS Same-Spin Energy      =      -0.0677865304445725 [Eh]
	 SCS Opposite-Spin Energy  =      -0.7849228303121739 [Eh]
	 SCS Correlation Energy    =      -0.8527093607567464 [Eh]
	 SCS Total Energy          =    -205.4658373301562619 [Eh]
	-----------------------------------------------------------

  Dipole Moment: [D]
     X:     0.0335      Y:     0.0780      Z:     0.0002     Total:     0.0849

*** Psi4 exiting successfully. Buy a developer a beer!
