                               Psi4 1.3.2 release

  ==> Input File <==

--------------------------------------------------------------------------
#psi4
#
memory 32 gb

molecule  {
1 1
  C        0.0002390     0.0000000     0.0000070
  N        1.3351690    -0.0037410     0.0000090
  N       -0.6645470     1.1579100     0.0000060
  N       -0.6710310    -1.1541680    -0.0000370
  H       -1.6818896    -1.1973925    -0.0000269
  H       -0.1917480    -2.0454120     0.0002210
  H        1.8634770    -0.8669560    -0.0001490
  H        1.8683040     0.8565010     0.0001050
  H       -0.1802750     2.0464480    -0.0001350
  H       -1.6758440     1.1891650     0.0001080
units angstrom
no_reorient  #important for SAPT in psi4, default
symmetry c1  #important for SAPT in psi4, default
}

set PROPERTIES_ORIGIN ["COM"]
properties('MP2/aug-cc-pvtz', properties = ['dipole'])
--------------------------------------------------------------------------

    Molecular point group: c1
  Charge       = 1
  Multiplicity = 1
  Basis Set: AUG-CC-PVTZ
    Blend: AUG-CC-PVTZ
  Basis Set: (AUG-CC-PVTZ AUX)
    Blend: AUG-CC-PVTZ-JKFIT

    Orbital Energies [Eh]
    ---------------------

    Doubly Occupied:

       1A    -15.799682     2A    -15.799369     3A    -15.799340
       4A    -11.612010     5A     -1.547131     6A     -1.400021
       7A     -1.399916     8A     -1.079953     9A     -0.983045
      10A     -0.981699    11A     -0.868338    12A     -0.867646
      13A     -0.866219    14A     -0.815782    15A     -0.631650
      16A     -0.631466

  @DF-RHF Final Energy:  -204.61422907819244

   => Energetics <=

    Nuclear Repulsion Energy =            133.2453045934285001
    One-Electron Energy =                -533.5525357737024024
    Two-Electron Energy =                 195.6930021020814650
    Total Energy =                       -204.6142290781924373
  Basis Set: (AUG-CC-PVTZ AUX)
    Blend: AUG-CC-PVTZ-RI
    Molecular point group: c1

    Geometry (in Angstrom), charge = 1, multiplicity = 1:

       Center              X                  Y                   Z               Mass
    ------------   -----------------  -----------------  -----------------  -----------------
         C            0.000252637504     0.000295899334     0.000008665180    12.000000000000
         N            1.335182637504    -0.003445100666     0.000010665180    14.003074004430
         N           -0.664533362496     1.158205899334     0.000007665180    14.003074004430
         N           -0.671017362496    -1.153872100666    -0.000035334820    14.003074004430
         H           -1.681875962496    -1.197096600666    -0.000025234820     1.007825032230
         H           -0.191734362496    -2.045116100666     0.000222665180     1.007825032230
         H            1.863490637504    -0.866660100666    -0.000147334820     1.007825032230
         H            1.868317637504     0.856796899334     0.000106665180     1.007825032230
         H           -0.180261362496     2.046743899334    -0.000133334820     1.007825032230
         H           -1.675830362496     1.189460899334     0.000109665180     1.007825032230

  Basis Set: AUG-CC-PVTZ
    Blend: AUG-CC-PVTZ
  Basis Set: (AUG-CC-PVTZ AUX)
    Blend: AUG-CC-PVTZ-JKFIT
	 Reference Energy          =    -204.6142290781924373 [Eh]
	 Singles Energy            =      -0.0000000000000000 [Eh]
	 Same-Spin Energy          =      -0.2032793513974943 [Eh]
	 Opposite-Spin Energy      =      -0.6540575324979011 [Eh]
	 Correlation Energy        =      -0.8573368838953954 [Eh]
	 Total Energy              =    -205.4715659620878228 [Eh]

	 ================> DF-SCS-MP2 Energies <==================
	-----------------------------------------------------------
	 SCS Same-Spin Scale       =       0.3333333333333333 [-]
	 SCS Opposite-Spin Scale   =       1.2000000000000000 [-]
	 SCS Same-Spin Energy      =      -0.0677597837991648 [Eh]
	 SCS Opposite-Spin Energy  =      -0.7848690389974813 [Eh]
	 SCS Correlation Energy    =      -0.8526288227966461 [Eh]
	 SCS Total Energy          =    -205.4668579009890834 [Eh]
	-----------------------------------------------------------

  Dipole Moment: [D]
     X:     0.0004      Y:    -0.0134      Z:     0.0003     Total:     0.0134

*** Psi4 exiting successfully. Buy a developer a beer!
