                               Psi4 1.3.2 release

  ==> Input File <==

--------------------------------------------------------------------------
#psi4
#
memory 32 gb

molecule  {
1 1
  C        0.0002390     0.0000000     0.0000070
  N        1.3344864     0.0428497     0.0000107
  N       -0.6645470     1.1579100     0.0000060
  N       -0.6710310    -1.1541680    -0.0000370
  H       -1.6824900    -1.1797440    -0.0000320
  H       -0.1917480    -2.0454120     0.0002210
  H        1.8634770    -0.8669560    -0.0001490
  H        1.8683040     0.8565010     0.0001050
  H       -0.1802750     2.0464480    -0.0001350
  H       -1.6758440     1.1891650     0.0001080
units angstrom
no_reorient  #important for SAPT in psi4, default
symmetry c1  #important for SAPT in psi4, default
}

set PROPERTIES_ORIGIN ["COM"]
properties('MP2/aug-cc-pvtz', properties = ['dipole'])
--------------------------------------------------------------------------

    Molecular point group: c1
  Charge       = 1
  Multiplicity = 1
  Basis Set: AUG-CC-PVTZ
    Blend: AUG-CC-PVTZ
  Basis Set: (AUG-CC-PVTZ AUX)
    Blend: AUG-CC-PVTZ-JKFIT

    Orbital Energies [Eh]
    ---------------------

    Doubly Occupied:

       1A    -15.801819     2A    -15.799603     3A    -15.797301
       4A    -11.612020     5A     -1.547475     6A     -1.403740
       7A     -1.396799     8A     -1.080844     9A     -0.987317
      10A     -0.978179    11A     -0.878668    12A     -0.867565
      13A     -0.854741    14A     -0.815961    15A     -0.633750
      16A     -0.629641

  @DF-RHF Final Energy:  -204.61076392595319

   => Energetics <=

    Nuclear Repulsion Energy =            133.2777015791888573
    One-Electron Energy =                -533.6060834212248665
    Two-Electron Energy =                 195.7176179160828440
    Total Energy =                       -204.6107639259531936
  Basis Set: (AUG-CC-PVTZ AUX)
    Blend: AUG-CC-PVTZ-RI
    Molecular point group: c1

    Geometry (in Angstrom), charge = 1, multiplicity = 1:

       Center              X                  Y                   Z               Mass
    ------------   -----------------  -----------------  -----------------  -----------------
         C            0.000421872340    -0.010863646729     0.000008354383    12.000000000000
         N            1.334669272340     0.031986053271     0.000012054383    14.003074004430
         N           -0.664364127660     1.147046353271     0.000007354383    14.003074004430
         N           -0.670848127660    -1.165031646729    -0.000035645617    14.003074004430
         H           -1.682307127660    -1.190607646729    -0.000030645617     1.007825032230
         H           -0.191565127660    -2.056275646729     0.000222354383     1.007825032230
         H            1.863659872340    -0.877819646729    -0.000147645617     1.007825032230
         H            1.868486872340     0.845637353271     0.000106354383     1.007825032230
         H           -0.180092127660     2.035584353271    -0.000133645617     1.007825032230
         H           -1.675661127660     1.178301353271     0.000109354383     1.007825032230

  Basis Set: AUG-CC-PVTZ
    Blend: AUG-CC-PVTZ
  Basis Set: (AUG-CC-PVTZ AUX)
    Blend: AUG-CC-PVTZ-JKFIT
	 Reference Energy          =    -204.6107639259531936 [Eh]
	 Singles Energy            =      -0.0000000000000000 [Eh]
	 Same-Spin Energy          =      -0.2033339606345974 [Eh]
	 Opposite-Spin Energy      =      -0.6542162526750457 [Eh]
	 Correlation Energy        =      -0.8575502133096431 [Eh]
	 Total Energy              =    -205.4683141392628443 [Eh]

	 ================> DF-SCS-MP2 Energies <==================
	-----------------------------------------------------------
	 SCS Same-Spin Scale       =       0.3333333333333333 [-]
	 SCS Opposite-Spin Scale   =       1.2000000000000000 [-]
	 SCS Same-Spin Energy      =      -0.0677779868781991 [Eh]
	 SCS Opposite-Spin Energy  =      -0.7850595032100548 [Eh]
	 SCS Correlation Energy    =      -0.8528374900882539 [Eh]
	 SCS Total Energy          =    -205.4636014160414561 [Eh]
	-----------------------------------------------------------

  Dipole Moment: [D]
     X:     0.0008      Y:    -0.1350      Z:     0.0003     Total:     0.1350

*** Psi4 exiting successfully. Buy a developer a beer!
