                               Psi4 1.3.2 release

  ==> Input File <==

--------------------------------------------------------------------------
#psi4
#
memory 32 gb

molecule  {
1 1
  C        0.0002390     0.0000000     0.0000070
  N        1.3351690    -0.0037410     0.0000090
  N       -0.6645470     1.1579100     0.0000060
  N       -0.6710310    -1.1541680    -0.0000370
  H       -1.7824580    -1.1822718    -0.0000315
  H       -0.1917480    -2.0454120     0.0002210
  H        1.8634770    -0.8669560    -0.0001490
  H        1.8683040     0.8565010     0.0001050
  H       -0.1802750     2.0464480    -0.0001350
  H       -1.6758440     1.1891650     0.0001080
units angstrom
no_reorient  #important for SAPT in psi4, default
symmetry c1  #important for SAPT in psi4, default
}

set PROPERTIES_ORIGIN ["COM"]
properties('MP2/aug-cc-pvtz', properties = ['dipole'])
--------------------------------------------------------------------------

    Molecular point group: c1
  Charge       = 1
  Multiplicity = 1
  Basis Set: AUG-CC-PVTZ
    Blend: AUG-CC-PVTZ
  Basis Set: (AUG-CC-PVTZ AUX)
    Blend: AUG-CC-PVTZ-JKFIT

    Orbital Energies [Eh]
    ---------------------

    Doubly Occupied:

       1A    -15.805607     2A    -15.798310     3A    -15.797992
       4A    -11.610111     5A     -1.543755     6A     -1.398706
       7A     -1.389597     8A     -1.073026     9A     -0.980617
      10A     -0.971089    11A     -0.866483    12A     -0.865826
      13A     -0.846309    14A     -0.813970    15A     -0.630497
      16A     -0.628408

  @DF-RHF Final Energy:  -204.60394388596225

   => Energetics <=

    Nuclear Repulsion Energy =            132.7940392096130324
    One-Electron Energy =                -532.7553650097914897
    Two-Electron Energy =                 195.3573819142161767
    Total Energy =                       -204.6039438859622521
  Basis Set: (AUG-CC-PVTZ AUX)
    Blend: AUG-CC-PVTZ-RI
    Molecular point group: c1

    Geometry (in Angstrom), charge = 1, multiplicity = 1:

       Center              X                  Y                   Z               Mass
    ------------   -----------------  -----------------  -----------------  -----------------
         C            0.001940313345     0.000042153226     0.000008742375    12.000000000000
         N            1.336870313345    -0.003698846774     0.000010742375    14.003074004430
         N           -0.662845686655     1.157952153226     0.000007742375    14.003074004430
         N           -0.669329686655    -1.154125846774    -0.000035257625    14.003074004430
         H           -1.780756686655    -1.182229646774    -0.000029757625     1.007825032230
         H           -0.190046686655    -2.045369846774     0.000222742375     1.007825032230
         H            1.865178313345    -0.866913846774    -0.000147257625     1.007825032230
         H            1.870005313345     0.856543153226     0.000106742375     1.007825032230
         H           -0.178573686655     2.046490153226    -0.000133257625     1.007825032230
         H           -1.674142686655     1.189207153226     0.000109742375     1.007825032230

  Basis Set: AUG-CC-PVTZ
    Blend: AUG-CC-PVTZ
  Basis Set: (AUG-CC-PVTZ AUX)
    Blend: AUG-CC-PVTZ-JKFIT
	 Reference Energy          =    -204.6039438859622521 [Eh]
	 Singles Energy            =      -0.0000000000000000 [Eh]
	 Same-Spin Energy          =      -0.2038856484543986 [Eh]
	 Opposite-Spin Energy      =      -0.6557213305152181 [Eh]
	 Correlation Energy        =      -0.8596069789696167 [Eh]
	 Total Energy              =    -205.4635508649318751 [Eh]

	 ================> DF-SCS-MP2 Energies <==================
	-----------------------------------------------------------
	 SCS Same-Spin Scale       =       0.3333333333333333 [-]
	 SCS Opposite-Spin Scale   =       1.2000000000000000 [-]
	 SCS Same-Spin Energy      =      -0.0679618828181329 [Eh]
	 SCS Opposite-Spin Energy  =      -0.7868655966182617 [Eh]
	 SCS Correlation Energy    =      -0.8548274794363946 [Eh]
	 SCS Total Energy          =    -205.4587713653986327 [Eh]
	-----------------------------------------------------------

  Dipole Moment: [D]
     X:    -0.1617      Y:    -0.0518      Z:     0.0002     Total:     0.1698

*** Psi4 exiting successfully. Buy a developer a beer!
