                               Psi4 1.3.2 release

  ==> Input File <==

--------------------------------------------------------------------------
#psi4
#
memory 32 gb

molecule  {
1 1
  C        0.0002390     0.0000000     0.0000070
  N        1.3351690    -0.0037410     0.0000090
  N       -0.6645470     1.1579100     0.0000060
  N       -0.6710310    -1.1541680    -0.0000370
  H       -1.5825220    -1.1772162    -0.0000325
  H       -0.1917480    -2.0454120     0.0002210
  H        1.8634770    -0.8669560    -0.0001490
  H        1.8683040     0.8565010     0.0001050
  H       -0.1802750     2.0464480    -0.0001350
  H       -1.6758440     1.1891650     0.0001080
units angstrom
no_reorient  #important for SAPT in psi4, default
symmetry c1  #important for SAPT in psi4, default
}

set PROPERTIES_ORIGIN ["COM"]
properties('MP2/aug-cc-pvtz', properties = ['dipole'])
--------------------------------------------------------------------------

    Molecular point group: c1
  Charge       = 1
  Multiplicity = 1
  Basis Set: AUG-CC-PVTZ
    Blend: AUG-CC-PVTZ
  Basis Set: (AUG-CC-PVTZ AUX)
    Blend: AUG-CC-PVTZ-JKFIT

    Orbital Energies [Eh]
    ---------------------

    Doubly Occupied:

       1A    -15.800943     2A    -15.800914     3A    -15.791566
       4A    -11.613271     5A     -1.551900     6A     -1.413567
       7A     -1.401400     8A     -1.088645     9A     -0.996408
      10A     -0.984228    11A     -0.885412    12A     -0.869266
      13A     -0.868924    14A     -0.817683    15A     -0.634967
      16A     -0.632760

  @DF-RHF Final Energy:  -204.60740397336934

   => Energetics <=

    Nuclear Repulsion Energy =            133.8132386828943368
    One-Electron Energy =                -534.5375806275588957
    Two-Electron Energy =                 196.1169379712952150
    Total Energy =                       -204.6074039733693439
  Basis Set: (AUG-CC-PVTZ AUX)
    Blend: AUG-CC-PVTZ-RI
    Molecular point group: c1

    Geometry (in Angstrom), charge = 1, multiplicity = 1:

       Center              X                  Y                   Z               Mass
    ------------   -----------------  -----------------  -----------------  -----------------
         C           -0.001414887265    -0.000042686684     0.000008759156    12.000000000000
         N            1.333515112735    -0.003783686684     0.000010759156    14.003074004430
         N           -0.666200887265     1.157867313316     0.000007759156    14.003074004430
         N           -0.672684887265    -1.154210686684    -0.000035240844    14.003074004430
         H           -1.584175887265    -1.177258886684    -0.000030740844     1.007825032230
         H           -0.193401887265    -2.045454686684     0.000222759156     1.007825032230
         H            1.861823112735    -0.866998686684    -0.000147240844     1.007825032230
         H            1.866650112735     0.856458313316     0.000106759156     1.007825032230
         H           -0.181928887265     2.046405313316    -0.000133240844     1.007825032230
         H           -1.677497887265     1.189122313316     0.000109759156     1.007825032230

  Basis Set: AUG-CC-PVTZ
    Blend: AUG-CC-PVTZ
  Basis Set: (AUG-CC-PVTZ AUX)
    Blend: AUG-CC-PVTZ-JKFIT
	 Reference Energy          =    -204.6074039733693439 [Eh]
	 Singles Energy            =      -0.0000000000000000 [Eh]
	 Same-Spin Energy          =      -0.2027423951432638 [Eh]
	 Opposite-Spin Energy      =      -0.6526935136737506 [Eh]
	 Correlation Energy        =      -0.8554359088170144 [Eh]
	 Total Energy              =    -205.4628398821863584 [Eh]

	 ================> DF-SCS-MP2 Energies <==================
	-----------------------------------------------------------
	 SCS Same-Spin Scale       =       0.3333333333333333 [-]
	 SCS Opposite-Spin Scale   =       1.2000000000000000 [-]
	 SCS Same-Spin Energy      =      -0.0675807983810879 [Eh]
	 SCS Opposite-Spin Energy  =      -0.7832322164085007 [Eh]
	 SCS Correlation Energy    =      -0.8508130147895886 [Eh]
	 SCS Total Energy          =    -205.4582169881589380 [Eh]
	-----------------------------------------------------------

  Dipole Moment: [D]
     X:     0.1574      Y:     0.0519      Z:     0.0003     Total:     0.1657

*** Psi4 exiting successfully. Buy a developer a beer!
