                               Psi4 1.3.2 release

  ==> Input File <==

--------------------------------------------------------------------------
#psi4
#
memory 32 gb

molecule  {
1 1
  C        0.0002390     0.0000000     0.0000070
  N        1.3349004    -0.0270382     0.0000081
  N       -0.6645470     1.1579100     0.0000060
  N       -0.6710310    -1.1541680    -0.0000370
  H       -1.6824900    -1.1797440    -0.0000320
  H       -0.1917480    -2.0454120     0.0002210
  H        1.8634770    -0.8669560    -0.0001490
  H        1.8683040     0.8565010     0.0001050
  H       -0.1802750     2.0464480    -0.0001350
  H       -1.6758440     1.1891650     0.0001080
units angstrom
no_reorient  #important for SAPT in psi4, default
symmetry c1  #important for SAPT in psi4, default
}

set PROPERTIES_ORIGIN ["COM"]
properties('MP2/aug-cc-pvtz', properties = ['dipole'])
--------------------------------------------------------------------------

    Molecular point group: c1
  Charge       = 1
  Multiplicity = 1
  Basis Set: AUG-CC-PVTZ
    Blend: AUG-CC-PVTZ
  Basis Set: (AUG-CC-PVTZ AUX)
    Blend: AUG-CC-PVTZ-JKFIT

    Orbital Energies [Eh]
    ---------------------

    Doubly Occupied:

       1A    -15.800639     2A    -15.799621     3A    -15.798378
       4A    -11.611788     5A     -1.547344     6A     -1.401856
       7A     -1.398378     8A     -1.079769     9A     -0.984818
      10A     -0.980214    11A     -0.873501    12A     -0.867529
      13A     -0.861506    14A     -0.815864    15A     -0.632679
      16A     -0.630622

  @DF-RHF Final Energy:  -204.61343227323991

   => Energetics <=

    Nuclear Repulsion Energy =            133.2678872110834618
    One-Electron Energy =                -533.5936267544008160
    Two-Electron Energy =                 195.7123072700774458
    Total Energy =                       -204.6134322732399085
  Basis Set: (AUG-CC-PVTZ AUX)
    Blend: AUG-CC-PVTZ-RI
    Molecular point group: c1

    Geometry (in Angstrom), charge = 1, multiplicity = 1:

       Center              X                  Y                   Z               Mass
    ------------   -----------------  -----------------  -----------------  -----------------
         C            0.000325341502     0.005431854629     0.000008960615    12.000000000000
         N            1.334986741502    -0.021606345371     0.000010060615    14.003074004430
         N           -0.664460658498     1.163341854629     0.000007960615    14.003074004430
         N           -0.670944658498    -1.148736145371    -0.000035039385    14.003074004430
         H           -1.682403658498    -1.174312145371    -0.000030039385     1.007825032230
         H           -0.191661658498    -2.039980145371     0.000222960615     1.007825032230
         H            1.863563341502    -0.861524145371    -0.000147039385     1.007825032230
         H            1.868390341502     0.861932854629     0.000106960615     1.007825032230
         H           -0.180188658498     2.051879854629    -0.000133039385     1.007825032230
         H           -1.675757658498     1.194596854629     0.000109960615     1.007825032230

  Basis Set: AUG-CC-PVTZ
    Blend: AUG-CC-PVTZ
  Basis Set: (AUG-CC-PVTZ AUX)
    Blend: AUG-CC-PVTZ-JKFIT
	 Reference Energy          =    -204.6134322732399085 [Eh]
	 Singles Energy            =      -0.0000000000000000 [Eh]
	 Same-Spin Energy          =      -0.2032930851110882 [Eh]
	 Opposite-Spin Energy      =      -0.6540865948871708 [Eh]
	 Correlation Energy        =      -0.8573796799982589 [Eh]
	 Total Energy              =    -205.4708119532381545 [Eh]

	 ================> DF-SCS-MP2 Energies <==================
	-----------------------------------------------------------
	 SCS Same-Spin Scale       =       0.3333333333333333 [-]
	 SCS Opposite-Spin Scale   =       1.2000000000000000 [-]
	 SCS Same-Spin Energy      =      -0.0677643617036961 [Eh]
	 SCS Opposite-Spin Energy  =      -0.7849039138646049 [Eh]
	 SCS Correlation Energy    =      -0.8526682755683009 [Eh]
	 SCS Total Energy          =    -205.4661005488082139 [Eh]
	-----------------------------------------------------------

  Dipole Moment: [D]
     X:     0.0034      Y:     0.0676      Z:     0.0003     Total:     0.0677

*** Psi4 exiting successfully. Buy a developer a beer!
