                               Psi4 1.4a3.dev225

  ==> Input File <==

--------------------------------------------------------------------------
#psi4
#
memory 32 gb

molecule  {
1 1
  C       -0.0000020     0.0000000     0.0000000
  N       -1.2796650    -0.3796360    -0.0000120
  N        0.9686130    -0.9183980     0.0000200
  N        0.3227100     1.3466614    -0.0000093
  H        1.2454290     1.6159040     0.2250400
  H       -0.3777690     2.0048910    -0.2249800
  H       -2.0221380     0.2706160     0.2250260
  H       -1.5474000    -1.3296080    -0.2249710
  H        0.7767000    -1.8865410     0.2249670
  H        1.9251530    -0.6752950    -0.2250740
units angstrom
no_reorient  #important for SAPT in psi4, default
symmetry c1  #important for SAPT in psi4, default
}

set PROPERTIES_ORIGIN ["COM"]
properties('MP2/aug-cc-pvtz', properties = ['dipole'])
--------------------------------------------------------------------------

    Molecular point group: c1
  Charge       = 1
  Multiplicity = 1
  Basis Set: AUG-CC-PVTZ
    Blend: AUG-CC-PVTZ
  Basis Set: (AUG-CC-PVTZ AUX)
    Blend: AUG-CC-PVTZ-JKFIT

    Orbital Energies [Eh]
    ---------------------

    Doubly Occupied:

       1A    -15.804265     2A    -15.804240     3A    -15.794040
       4A    -11.617801     5A     -1.541091     6A     -1.402633
       7A     -1.396089     8A     -1.078117     9A     -0.982202
      10A     -0.977244    11A     -0.893724    12A     -0.876441
      13A     -0.859442    14A     -0.790118    15A     -0.635580
      16A     -0.631953

  @DF-RHF Final Energy:  -204.60960303928002

   => Energetics <=

    Nuclear Repulsion Energy =            132.3725671255158431
    One-Electron Energy =                -531.7943808678405730
    Two-Electron Energy =                 194.8122107030447125
    Total Energy =                       -204.6096030392800174
  Basis Set: (AUG-CC-PVTZ AUX)
    Blend: AUG-CC-PVTZ-RI
    Molecular point group: c1

    Geometry (in Angstrom), charge = 1, multiplicity = 1:

       Center              X                  Y                   Z               Mass
    ------------   -----------------  -----------------  -----------------  -----------------
         C           -0.002719433282    -0.011337715968     0.000000168865    12.000000000000
         N           -1.282382433282    -0.390973715968    -0.000011831135    14.003074004430
         N            0.965895566718    -0.929735715968     0.000020168865    14.003074004430
         N            0.319992566718     1.335323684032    -0.000009131135    14.003074004430
         H            1.242711566718     1.604566284032     0.225040168865     1.007825032230
         H           -0.380486433282     1.993553284032    -0.224979831135     1.007825032230
         H           -2.024855433282     0.259278284032     0.225026168865     1.007825032230
         H           -1.550117433282    -1.340945715968    -0.224970831135     1.007825032230
         H            0.773982566718    -1.897878715968     0.224967168865     1.007825032230
         H            1.922435566718    -0.686632715968    -0.225073831135     1.007825032230

  Basis Set: AUG-CC-PVTZ
    Blend: AUG-CC-PVTZ
  Basis Set: (AUG-CC-PVTZ AUX)
    Blend: AUG-CC-PVTZ-JKFIT
	 Reference Energy          =    -204.6096030392800174 [Eh]
	 Singles Energy            =      -0.0000000000000000 [Eh]
	 Same-Spin Energy          =      -0.2034267466814562 [Eh]
	 Opposite-Spin Energy      =      -0.6548030182575527 [Eh]
	 Correlation Energy        =      -0.8582297649390089 [Eh]
	 Total Energy              =    -205.4678328042190287 [Eh]

	 ================> DF-SCS-MP2 Energies <==================
	-----------------------------------------------------------
	 SCS Same-Spin Scale       =       0.3333333333333333 [-]
	 SCS Opposite-Spin Scale   =       1.2000000000000000 [-]
	 SCS Same-Spin Energy      =      -0.0678089155604854 [Eh]
	 SCS Opposite-Spin Energy  =      -0.7857636219090632 [Eh]
	 SCS Correlation Energy    =      -0.8535725374695486 [Eh]
	 SCS Total Energy          =    -205.4631755767495633 [Eh]
	-----------------------------------------------------------

  Dipole Moment: [D]
     X:    -0.0827      Y:    -0.3446      Z:     0.0000     Total:     0.3544

*** Psi4 exiting successfully. Buy a developer a beer!
