                               Psi4 1.3.2 release

  ==> Input File <==

--------------------------------------------------------------------------
#psi4
#
memory 32 gb

molecule  {
1 1
  C        0.0002390     0.0000000     0.0000070
  N        1.3351690    -0.0037410     0.0000090
  N       -0.6645470     1.1579100     0.0000060
  N       -0.5704798    -0.9812823    -0.0000304
  H       -1.6824900    -1.1797440    -0.0000320
  H       -0.1917480    -2.0454120     0.0002210
  H        1.8634770    -0.8669560    -0.0001490
  H        1.8683040     0.8565010     0.0001050
  H       -0.1802750     2.0464480    -0.0001350
  H       -1.6758440     1.1891650     0.0001080
units angstrom
no_reorient  #important for SAPT in psi4, default
symmetry c1  #important for SAPT in psi4, default
}

set PROPERTIES_ORIGIN ["COM"]
properties('MP2/aug-cc-pvtz', properties = ['dipole'])
--------------------------------------------------------------------------

    Molecular point group: c1
  Charge       = 1
  Multiplicity = 1
  Basis Set: AUG-CC-PVTZ
    Blend: AUG-CC-PVTZ
  Basis Set: (AUG-CC-PVTZ AUX)
    Blend: AUG-CC-PVTZ-JKFIT

    Orbital Energies [Eh]
    ---------------------

    Doubly Occupied:

       1A    -15.819976     2A    -15.776084     3A    -15.775956
       4A    -11.574438     5A     -1.600099     6A     -1.408518
       7A     -1.386847     8A     -1.077476     9A     -0.988203
      10A     -0.983151    11A     -0.876786    12A     -0.855313
      13A     -0.850847    14A     -0.799071    15A     -0.632014
      16A     -0.620472

  @DF-RHF Final Energy:  -204.53326543219188

   => Energetics <=

    Nuclear Repulsion Energy =            137.4986682167430274
    One-Electron Energy =                -542.0133669147979845
    Two-Electron Energy =                 199.9814332658631031
    Total Energy =                       -204.5332654321918824
  Basis Set: (AUG-CC-PVTZ AUX)
    Blend: AUG-CC-PVTZ-RI
    Molecular point group: c1

    Geometry (in Angstrom), charge = 1, multiplicity = 1:

       Center              X                  Y                   Z               Mass
    ------------   -----------------  -----------------  -----------------  -----------------
         C           -0.023182435778    -0.040311381515     0.000007211868    12.000000000000
         N            1.311747564222    -0.044052381515     0.000009211868    14.003074004430
         N           -0.687968435778     1.117598618485     0.000006211868    14.003074004430
         N           -0.593901235778    -1.021593681515    -0.000030188132    14.003074004430
         H           -1.705911435778    -1.220055381515    -0.000031788132     1.007825032230
         H           -0.215169435778    -2.085723381515     0.000221211868     1.007825032230
         H            1.840055564222    -0.907267381515    -0.000148788132     1.007825032230
         H            1.844882564222     0.816189618485     0.000105211868     1.007825032230
         H           -0.203696435778     2.006136618485    -0.000134788132     1.007825032230
         H           -1.699265435778     1.148853618485     0.000108211868     1.007825032230

  Basis Set: AUG-CC-PVTZ
    Blend: AUG-CC-PVTZ
  Basis Set: (AUG-CC-PVTZ AUX)
    Blend: AUG-CC-PVTZ-JKFIT
	 Reference Energy          =    -204.5332654321918824 [Eh]
	 Singles Energy            =      -0.0000000000000000 [Eh]
	 Same-Spin Energy          =      -0.2052381678080364 [Eh]
	 Opposite-Spin Energy      =      -0.6562544773874179 [Eh]
	 Correlation Energy        =      -0.8614926451954543 [Eh]
	 Total Energy              =    -205.3947580773873369 [Eh]

	 ================> DF-SCS-MP2 Energies <==================
	-----------------------------------------------------------
	 SCS Same-Spin Scale       =       0.3333333333333333 [-]
	 SCS Opposite-Spin Scale   =       1.2000000000000000 [-]
	 SCS Same-Spin Energy      =      -0.0684127226026788 [Eh]
	 SCS Opposite-Spin Energy  =      -0.7875053728649015 [Eh]
	 SCS Correlation Energy    =      -0.8559180954675804 [Eh]
	 SCS Total Energy          =    -205.3891835276594691 [Eh]
	-----------------------------------------------------------

  Dipole Moment: [D]
     X:    -0.7943      Y:    -1.3725      Z:     0.0002     Total:     1.5858

*** Psi4 exiting successfully. Buy a developer a beer!
