                               Psi4 1.3.2 release

  ==> Input File <==

--------------------------------------------------------------------------
#psi4
#
memory 32 gb

molecule  {
1 1
  C        0.0002390     0.0000000     0.0000070
  N        1.3351690    -0.0037410     0.0000090
  N       -0.6645470     1.1579100     0.0000060
  N       -0.7213066    -1.2406108    -0.0000403
  H       -1.6824900    -1.1797440    -0.0000320
  H       -0.1917480    -2.0454120     0.0002210
  H        1.8634770    -0.8669560    -0.0001490
  H        1.8683040     0.8565010     0.0001050
  H       -0.1802750     2.0464480    -0.0001350
  H       -1.6758440     1.1891650     0.0001080
units angstrom
no_reorient  #important for SAPT in psi4, default
symmetry c1  #important for SAPT in psi4, default
}

set PROPERTIES_ORIGIN ["COM"]
properties('MP2/aug-cc-pvtz', properties = ['dipole'])
--------------------------------------------------------------------------

    Molecular point group: c1
  Charge       = 1
  Multiplicity = 1
  Basis Set: AUG-CC-PVTZ
    Blend: AUG-CC-PVTZ
  Basis Set: (AUG-CC-PVTZ AUX)
    Blend: AUG-CC-PVTZ-JKFIT

    Orbital Energies [Eh]
    ---------------------

    Doubly Occupied:

       1A    -15.809095     2A    -15.808956     3A    -15.789561
       4A    -11.623787     5A     -1.537467     6A     -1.405877
       7A     -1.393502     8A     -1.080308     9A     -0.987290
      10A     -0.977033    11A     -0.899201    12A     -0.874575
      13A     -0.847706    14A     -0.806293    15A     -0.636109
      16A     -0.629233

  @DF-RHF Final Energy:  -204.60041752515909

   => Energetics <=

    Nuclear Repulsion Energy =            131.5281591263568544
    One-Electron Energy =                -530.0451687626921284
    Two-Electron Energy =                 193.9165921111761861
    Total Energy =                       -204.6004175251590880
  Basis Set: (AUG-CC-PVTZ AUX)
    Blend: AUG-CC-PVTZ-RI
    Molecular point group: c1

    Geometry (in Angstrom), charge = 1, multiplicity = 1:

       Center              X                  Y                   Z               Mass
    ------------   -----------------  -----------------  -----------------  -----------------
         C            0.011985287449     0.020155279005     0.000009520214    12.000000000000
         N            1.346915287449     0.016414279005     0.000011520214    14.003074004430
         N           -0.652800712551     1.178065279005     0.000008520214    14.003074004430
         N           -0.709560312551    -1.220455520995    -0.000037779786    14.003074004430
         H           -1.670743712551    -1.159588720995    -0.000029479786     1.007825032230
         H           -0.180001712551    -2.025256720995     0.000223520214     1.007825032230
         H            1.875223287449    -0.846800720995    -0.000146479786     1.007825032230
         H            1.880050287449     0.876656279005     0.000107520214     1.007825032230
         H           -0.168528712551     2.066603279005    -0.000132479786     1.007825032230
         H           -1.664097712551     1.209320279005     0.000110520214     1.007825032230

  Basis Set: AUG-CC-PVTZ
    Blend: AUG-CC-PVTZ
  Basis Set: (AUG-CC-PVTZ AUX)
    Blend: AUG-CC-PVTZ-JKFIT
	 Reference Energy          =    -204.6004175251590880 [Eh]
	 Singles Energy            =      -0.0000000000000000 [Eh]
	 Same-Spin Energy          =      -0.2028796383776722 [Eh]
	 Opposite-Spin Energy      =      -0.6544335305096540 [Eh]
	 Correlation Energy        =      -0.8573131688873262 [Eh]
	 Total Energy              =    -205.4577306940464041 [Eh]

	 ================> DF-SCS-MP2 Energies <==================
	-----------------------------------------------------------
	 SCS Same-Spin Scale       =       0.3333333333333333 [-]
	 SCS Opposite-Spin Scale   =       1.2000000000000000 [-]
	 SCS Same-Spin Energy      =      -0.0676265461258907 [Eh]
	 SCS Opposite-Spin Energy  =      -0.7853202366115848 [Eh]
	 SCS Correlation Energy    =      -0.8529467827374755 [Eh]
	 SCS Total Energy          =    -205.4533643078965497 [Eh]
	-----------------------------------------------------------

  Dipole Moment: [D]
     X:     0.3523      Y:     0.5990      Z:     0.0003     Total:     0.6949

*** Psi4 exiting successfully. Buy a developer a beer!
