                               Psi4 1.3.2 release

  ==> Input File <==

--------------------------------------------------------------------------
#psi4
#
memory 32 gb

molecule  {
1 1
  C        0.0002390     0.0000000     0.0000070
  N        1.3350310     0.0195573     0.0000099
  N       -0.6645470     1.1579100     0.0000060
  N       -0.6710310    -1.1541680    -0.0000370
  H       -1.6824900    -1.1797440    -0.0000320
  H       -0.1917480    -2.0454120     0.0002210
  H        1.8634770    -0.8669560    -0.0001490
  H        1.8683040     0.8565010     0.0001050
  H       -0.1802750     2.0464480    -0.0001350
  H       -1.6758440     1.1891650     0.0001080
units angstrom
no_reorient  #important for SAPT in psi4, default
symmetry c1  #important for SAPT in psi4, default
}

set PROPERTIES_ORIGIN ["COM"]
properties('MP2/aug-cc-pvtz', properties = ['dipole'])
--------------------------------------------------------------------------

    Molecular point group: c1
  Charge       = 1
  Multiplicity = 1
  Basis Set: AUG-CC-PVTZ
    Blend: AUG-CC-PVTZ
  Basis Set: (AUG-CC-PVTZ AUX)
    Blend: AUG-CC-PVTZ-JKFIT

    Orbital Energies [Eh]
    ---------------------

    Doubly Occupied:

       1A    -15.800639     2A    -15.799621     3A    -15.798378
       4A    -11.611788     5A     -1.547344     6A     -1.401855
       7A     -1.398379     8A     -1.079769     9A     -0.984818
      10A     -0.980214    11A     -0.873500    12A     -0.867529
      13A     -0.861508    14A     -0.815864    15A     -0.632679
      16A     -0.630622

  @DF-RHF Final Energy:  -204.61343226295708

   => Energetics <=

    Nuclear Repulsion Energy =            133.2678879120778959
    One-Electron Energy =                -533.5936281746298846
    Two-Electron Energy =                 195.7123079995949411
    Total Energy =                       -204.6134322629570761
  Basis Set: (AUG-CC-PVTZ AUX)
    Blend: AUG-CC-PVTZ-RI
    Molecular point group: c1

    Geometry (in Angstrom), charge = 1, multiplicity = 1:

       Center              X                  Y                   Z               Mass
    ------------   -----------------  -----------------  -----------------  -----------------
         C            0.000294889986    -0.005432644569     0.000008540916    12.000000000000
         N            1.335086889986     0.014124655431     0.000011440916    14.003074004430
         N           -0.664491110014     1.152477355431     0.000007540916    14.003074004430
         N           -0.670975110014    -1.159600644569    -0.000035459084    14.003074004430
         H           -1.682434110014    -1.185176644569    -0.000030459084     1.007825032230
         H           -0.191692110014    -2.050844644569     0.000222540916     1.007825032230
         H            1.863532889986    -0.872388644569    -0.000147459084     1.007825032230
         H            1.868359889986     0.851068355431     0.000106540916     1.007825032230
         H           -0.180219110014     2.041015355431    -0.000133459084     1.007825032230
         H           -1.675788110014     1.183732355431     0.000109540916     1.007825032230

  Basis Set: AUG-CC-PVTZ
    Blend: AUG-CC-PVTZ
  Basis Set: (AUG-CC-PVTZ AUX)
    Blend: AUG-CC-PVTZ-JKFIT
	 Reference Energy          =    -204.6134322629570761 [Eh]
	 Singles Energy            =      -0.0000000000000000 [Eh]
	 Same-Spin Energy          =      -0.2032930836753403 [Eh]
	 Opposite-Spin Energy      =      -0.6540865913302205 [Eh]
	 Correlation Energy        =      -0.8573796750055609 [Eh]
	 Total Energy              =    -205.4708119379626510 [Eh]

	 ================> DF-SCS-MP2 Energies <==================
	-----------------------------------------------------------
	 SCS Same-Spin Scale       =       0.3333333333333333 [-]
	 SCS Opposite-Spin Scale   =       1.2000000000000000 [-]
	 SCS Same-Spin Energy      =      -0.0677643612251134 [Eh]
	 SCS Opposite-Spin Energy  =      -0.7849039095962645 [Eh]
	 SCS Correlation Energy    =      -0.8526682708213780 [Eh]
	 SCS Total Energy          =    -205.4661005337784445 [Eh]
	-----------------------------------------------------------

  Dipole Moment: [D]
     X:     0.0030      Y:    -0.0676      Z:     0.0003     Total:     0.0676

*** Psi4 exiting successfully. Buy a developer a beer!
