                               Psi4 1.4a3.dev225

  ==> Input File <==

--------------------------------------------------------------------------
#psi4
#
memory 32 gb

molecule  {
1 1
  C       -0.0000020     0.0000000     0.0000000
  N       -1.2796650    -0.3796360    -0.0000120
  N        0.9686130    -0.9183980     0.0000200
  N        0.2994060     1.2494146    -0.0000087
  H        1.2454290     1.6159040     0.2250400
  H       -0.3777690     2.0048910    -0.2249800
  H       -2.0221380     0.2706160     0.2250260
  H       -1.5474000    -1.3296080    -0.2249710
  H        0.7767000    -1.8865410     0.2249670
  H        1.9251530    -0.6752950    -0.2250740
units angstrom
no_reorient  #important for SAPT in psi4, default
symmetry c1  #important for SAPT in psi4, default
}

set PROPERTIES_ORIGIN ["COM"]
properties('MP2/aug-cc-pvtz', properties = ['dipole'])
--------------------------------------------------------------------------

    Molecular point group: c1
  Charge       = 1
  Multiplicity = 1
  Basis Set: AUG-CC-PVTZ
    Blend: AUG-CC-PVTZ
  Basis Set: (AUG-CC-PVTZ AUX)
    Blend: AUG-CC-PVTZ-JKFIT

    Orbital Energies [Eh]
    ---------------------

    Doubly Occupied:

       1A    -15.804668     2A    -15.793847     3A    -15.793823
       4A    -11.603171     5A     -1.555326     6A     -1.402950
       7A     -1.396330     8A     -1.077488     9A     -0.983100
      10A     -0.979106    11A     -0.881291    12A     -0.872952
      13A     -0.856053    14A     -0.794846    15A     -0.634254
      16A     -0.630713

  @DF-RHF Final Energy:  -204.60899312240912

   => Energetics <=

    Nuclear Repulsion Energy =            134.2207626783044816
    One-Electron Energy =                -535.5396744833593630
    Two-Electron Energy =                 196.7099186826457640
    Total Energy =                       -204.6089931224091174
  Basis Set: (AUG-CC-PVTZ AUX)
    Blend: AUG-CC-PVTZ-RI
    Molecular point group: c1

    Geometry (in Angstrom), charge = 1, multiplicity = 1:

       Center              X                  Y                   Z               Mass
    ------------   -----------------  -----------------  -----------------  -----------------
         C            0.002714273607     0.011336958209     0.000000028965    12.000000000000
         N           -1.276948726393    -0.368299041791    -0.000011971035    14.003074004430
         N            0.971329273607    -0.907061041791     0.000020028965    14.003074004430
         N            0.302122273607     1.260751558209    -0.000008671035    14.003074004430
         H            1.248145273607     1.627240958209     0.225040028965     1.007825032230
         H           -0.375052726393     2.016227958209    -0.224979971035     1.007825032230
         H           -2.019421726393     0.281952958209     0.225026028965     1.007825032230
         H           -1.544683726393    -1.318271041791    -0.224970971035     1.007825032230
         H            0.779416273607    -1.875204041791     0.224967028965     1.007825032230
         H            1.927869273607    -0.663958041791    -0.225073971035     1.007825032230

  Basis Set: AUG-CC-PVTZ
    Blend: AUG-CC-PVTZ
  Basis Set: (AUG-CC-PVTZ AUX)
    Blend: AUG-CC-PVTZ-JKFIT
	 Reference Energy          =    -204.6089931224091174 [Eh]
	 Singles Energy            =      -0.0000000000000000 [Eh]
	 Same-Spin Energy          =      -0.2039812115211098 [Eh]
	 Opposite-Spin Energy      =      -0.6548643653099380 [Eh]
	 Correlation Energy        =      -0.8588455768310477 [Eh]
	 Total Energy              =    -205.4678386992401613 [Eh]

	 ================> DF-SCS-MP2 Energies <==================
	-----------------------------------------------------------
	 SCS Same-Spin Scale       =       0.3333333333333333 [-]
	 SCS Opposite-Spin Scale   =       1.2000000000000000 [-]
	 SCS Same-Spin Energy      =      -0.0679937371737032 [Eh]
	 SCS Opposite-Spin Energy  =      -0.7858372383719255 [Eh]
	 SCS Correlation Energy    =      -0.8538309755456288 [Eh]
	 SCS Total Energy          =    -205.4628240979547513 [Eh]
	-----------------------------------------------------------

  Dipole Moment: [D]
     X:     0.0867      Y:     0.3621      Z:     0.0000     Total:     0.3723

*** Psi4 exiting successfully. Buy a developer a beer!
