                               Psi4 1.3.2 release

  ==> Input File <==

--------------------------------------------------------------------------
#psi4
#
memory 32 gb

molecule  {
1 1
  C        0.0002390     0.0000000     0.0000070
  N        1.3351690    -0.0037410     0.0000090
  N       -0.6645470     1.1579100     0.0000060
  N       -0.6710310    -1.1541680    -0.0000370
  H       -1.6827664    -1.1444290    -0.0000422
  H       -0.1917480    -2.0454120     0.0002210
  H        1.8634770    -0.8669560    -0.0001490
  H        1.8683040     0.8565010     0.0001050
  H       -0.1802750     2.0464480    -0.0001350
  H       -1.6758440     1.1891650     0.0001080
units angstrom
no_reorient  #important for SAPT in psi4, default
symmetry c1  #important for SAPT in psi4, default
}

set PROPERTIES_ORIGIN ["COM"]
properties('MP2/aug-cc-pvtz', properties = ['dipole'])
--------------------------------------------------------------------------

    Molecular point group: c1
  Charge       = 1
  Multiplicity = 1
  Basis Set: AUG-CC-PVTZ
    Blend: AUG-CC-PVTZ
  Basis Set: (AUG-CC-PVTZ AUX)
    Blend: AUG-CC-PVTZ-JKFIT

    Orbital Energies [Eh]
    ---------------------

    Doubly Occupied:

       1A    -15.799784     2A    -15.799759     3A    -15.799515
       4A    -11.611136     5A     -1.547669     6A     -1.400407
       7A     -1.400158     8A     -1.078362     9A     -0.984031
      10A     -0.981167    11A     -0.870261    12A     -0.867944
      13A     -0.866405    14A     -0.815943    15A     -0.631867
      16A     -0.631727

  @DF-RHF Final Energy:  -204.61426130455754

   => Energetics <=

    Nuclear Repulsion Energy =            133.3048295913457366
    One-Electron Energy =                -533.6659116049255545
    Two-Electron Energy =                 195.7468207090222450
    Total Energy =                       -204.6142613045575445
  Basis Set: (AUG-CC-PVTZ AUX)
    Blend: AUG-CC-PVTZ-RI
    Molecular point group: c1

    Geometry (in Angstrom), charge = 1, multiplicity = 1:

       Center              X                  Y                   Z               Mass
    ------------   -----------------  -----------------  -----------------  -----------------
         C            0.000267351412    -0.000592900920     0.000008921936    12.000000000000
         N            1.335197351412    -0.004333900920     0.000010921936    14.003074004430
         N           -0.664518648588     1.157317099080     0.000007921936    14.003074004430
         N           -0.671002648588    -1.154760900920    -0.000035078064    14.003074004430
         H           -1.682738048588    -1.145021900920    -0.000040278064     1.007825032230
         H           -0.191719648588    -2.046004900920     0.000222921936     1.007825032230
         H            1.863505351412    -0.867548900920    -0.000147078064     1.007825032230
         H            1.868332351412     0.855908099080     0.000106921936     1.007825032230
         H           -0.180246648588     2.045855099080    -0.000133078064     1.007825032230
         H           -1.675815648588     1.188572099080     0.000109921936     1.007825032230

  Basis Set: AUG-CC-PVTZ
    Blend: AUG-CC-PVTZ
  Basis Set: (AUG-CC-PVTZ AUX)
    Blend: AUG-CC-PVTZ-JKFIT
	 Reference Energy          =    -204.6142613045575445 [Eh]
	 Singles Energy            =      -0.0000000000000000 [Eh]
	 Same-Spin Energy          =      -0.2032908274544909 [Eh]
	 Opposite-Spin Energy      =      -0.6540354413182525 [Eh]
	 Correlation Energy        =      -0.8573262687727434 [Eh]
	 Total Energy              =    -205.4715875733302823 [Eh]

	 ================> DF-SCS-MP2 Energies <==================
	-----------------------------------------------------------
	 SCS Same-Spin Scale       =       0.3333333333333333 [-]
	 SCS Opposite-Spin Scale   =       1.2000000000000000 [-]
	 SCS Same-Spin Energy      =      -0.0677636091514970 [Eh]
	 SCS Opposite-Spin Energy  =      -0.7848425295819030 [Eh]
	 SCS Correlation Energy    =      -0.8526061387334000 [Eh]
	 SCS Total Energy          =    -205.4668674432909370 [Eh]
	-----------------------------------------------------------

  Dipole Moment: [D]
     X:     0.0122      Y:     0.0264      Z:     0.0002     Total:     0.0291

*** Psi4 exiting successfully. Buy a developer a beer!
