                               Psi4 1.3.2 release

  ==> Input File <==

--------------------------------------------------------------------------
#psi4
#
memory 32 gb

molecule  {
1 1
  C        0.0002390     0.0000000     0.0000070
  N        1.3351690    -0.0037410     0.0000090
  N       -0.6645470     1.1579100     0.0000060
  N       -0.6710310    -1.1541680    -0.0000370
  H       -1.8824261    -1.1847996    -0.0000310
  H       -0.1917480    -2.0454120     0.0002210
  H        1.8634770    -0.8669560    -0.0001490
  H        1.8683040     0.8565010     0.0001050
  H       -0.1802750     2.0464480    -0.0001350
  H       -1.6758440     1.1891650     0.0001080
units angstrom
no_reorient  #important for SAPT in psi4, default
symmetry c1  #important for SAPT in psi4, default
}

set PROPERTIES_ORIGIN ["COM"]
properties('MP2/aug-cc-pvtz', properties = ['dipole'])
--------------------------------------------------------------------------

    Molecular point group: c1
  Charge       = 1
  Multiplicity = 1
  Basis Set: AUG-CC-PVTZ
    Blend: AUG-CC-PVTZ
  Basis Set: (AUG-CC-PVTZ AUX)
    Blend: AUG-CC-PVTZ-JKFIT

    Orbital Energies [Eh]
    ---------------------

    Doubly Occupied:

       1A    -15.809878     2A    -15.796958     3A    -15.796441
       4A    -11.608446     5A     -1.540798     6A     -1.397256
       7A     -1.381440     8A     -1.068349     9A     -0.978716
      10A     -0.962618    11A     -0.865159    12A     -0.864047
      13A     -0.822654    14A     -0.812084    15A     -0.629269
      16A     -0.625319

  @DF-RHF Final Energy:  -204.58451836857319

   => Energetics <=

    Nuclear Repulsion Energy =            132.3834214712341293
    One-Electron Energy =                -532.0170156907997807
    Two-Electron Energy =                 195.0490758509924945
    Total Energy =                       -204.5845183685731854
  Basis Set: (AUG-CC-PVTZ AUX)
    Blend: AUG-CC-PVTZ-RI
    Molecular point group: c1

    Geometry (in Angstrom), charge = 1, multiplicity = 1:

       Center              X                  Y                   Z               Mass
    ------------   -----------------  -----------------  -----------------  -----------------
         C            0.003617915329     0.000084573181     0.000008733984    12.000000000000
         N            1.338547915329    -0.003656426819     0.000010733984    14.003074004430
         N           -0.661168084671     1.157994573181     0.000007733984    14.003074004430
         N           -0.667652084671    -1.154083426819    -0.000035266016    14.003074004430
         H           -1.879047184671    -1.184715026819    -0.000029266016     1.007825032230
         H           -0.188369084671    -2.045327426819     0.000222733984     1.007825032230
         H            1.866855915329    -0.866871426819    -0.000147266016     1.007825032230
         H            1.871682915329     0.856585573181     0.000106733984     1.007825032230
         H           -0.176896084671     2.046532573181    -0.000133266016     1.007825032230
         H           -1.672465084671     1.189249573181     0.000109733984     1.007825032230

  Basis Set: AUG-CC-PVTZ
    Blend: AUG-CC-PVTZ
  Basis Set: (AUG-CC-PVTZ AUX)
    Blend: AUG-CC-PVTZ-JKFIT
	 Reference Energy          =    -204.5845183685731854 [Eh]
	 Singles Energy            =      -0.0000000000000000 [Eh]
	 Same-Spin Energy          =      -0.2045230922936102 [Eh]
	 Opposite-Spin Energy      =      -0.6576608552994797 [Eh]
	 Correlation Energy        =      -0.8621839475930899 [Eh]
	 Total Energy              =    -205.4467023161662667 [Eh]

	 ================> DF-SCS-MP2 Energies <==================
	-----------------------------------------------------------
	 SCS Same-Spin Scale       =       0.3333333333333333 [-]
	 SCS Opposite-Spin Scale   =       1.2000000000000000 [-]
	 SCS Same-Spin Energy      =      -0.0681743640978701 [Eh]
	 SCS Opposite-Spin Energy  =      -0.7891930263593756 [Eh]
	 SCS Correlation Energy    =      -0.8573673904572456 [Eh]
	 SCS Total Energy          =    -205.4418857590304412 [Eh]
	-----------------------------------------------------------

  Dipole Moment: [D]
     X:    -0.3384      Y:    -0.1032      Z:     0.0002     Total:     0.3538

*** Psi4 exiting successfully. Buy a developer a beer!
