                               Psi4 1.4a3.dev225

  ==> Input File <==

--------------------------------------------------------------------------
#psi4
#
memory 32 gb

molecule  {
1 1
  C       -0.0000020     0.0000000     0.0000000
  N       -1.2796650    -0.3796360    -0.0000120
  N        0.9686130    -0.9183980     0.0000200
  N        0.3110580     1.2980380    -0.0000090
  H        1.1992777     1.6002037     0.2139242
  H       -0.3777690     2.0048910    -0.2249800
  H       -2.0221380     0.2706160     0.2250260
  H       -1.5474000    -1.3296080    -0.2249710
  H        0.7767000    -1.8865410     0.2249670
  H        1.9251530    -0.6752950    -0.2250740
units angstrom
no_reorient  #important for SAPT in psi4, default
symmetry c1  #important for SAPT in psi4, default
}

set PROPERTIES_ORIGIN ["COM"]
properties('MP2/aug-cc-pvtz', properties = ['dipole'])
--------------------------------------------------------------------------

    Molecular point group: c1
  Charge       = 1
  Multiplicity = 1
  Basis Set: AUG-CC-PVTZ
    Blend: AUG-CC-PVTZ
  Basis Set: (AUG-CC-PVTZ AUX)
    Blend: AUG-CC-PVTZ-JKFIT

    Orbital Energies [Eh]
    ---------------------

    Doubly Occupied:

       1A    -15.800030     2A    -15.799886     3A    -15.795530
       4A    -11.611871     5A     -1.549081     6A     -1.405902
       7A     -1.400261     8A     -1.081908     9A     -0.986966
      10A     -0.981153    11A     -0.890618    12A     -0.872187
      13A     -0.868452    14A     -0.794098    15A     -0.634943
      16A     -0.633838

  @DF-RHF Final Energy:  -204.61266544335842

   => Energetics <=

    Nuclear Repulsion Energy =            133.5311696417505800
    One-Electron Energy =                -534.0742188953805680
    Two-Electron Energy =                 195.9303838102715645
    Total Energy =                       -204.6126654433584235
  Basis Set: (AUG-CC-PVTZ AUX)
    Blend: AUG-CC-PVTZ-RI
    Molecular point group: c1

    Geometry (in Angstrom), charge = 1, multiplicity = 1:

       Center              X                  Y                   Z               Mass
    ------------   -----------------  -----------------  -----------------  -----------------
         C            0.000771902346     0.000263093712     0.000186637302    12.000000000000
         N           -1.278891097654    -0.379372906288     0.000174637302    14.003074004430
         N            0.969386902346    -0.918134906288     0.000206637302    14.003074004430
         N            0.311831902346     1.298301093712     0.000177637302    14.003074004430
         H            1.200051602346     1.600466793712     0.214110837302     1.007825032230
         H           -0.376995097654     2.005154093712    -0.224793362698     1.007825032230
         H           -2.021364097654     0.270879093712     0.225212637302     1.007825032230
         H           -1.546626097654    -1.329344906288    -0.224784362698     1.007825032230
         H            0.777473902346    -1.886277906288     0.225153637302     1.007825032230
         H            1.925926902346    -0.675031906288    -0.224887362698     1.007825032230

  Basis Set: AUG-CC-PVTZ
    Blend: AUG-CC-PVTZ
  Basis Set: (AUG-CC-PVTZ AUX)
    Blend: AUG-CC-PVTZ-JKFIT
	 Reference Energy          =    -204.6126654433584235 [Eh]
	 Singles Energy            =      -0.0000000000000000 [Eh]
	 Same-Spin Energy          =      -0.2033748972600837 [Eh]
	 Opposite-Spin Energy      =      -0.6539855946111958 [Eh]
	 Correlation Energy        =      -0.8573604918712794 [Eh]
	 Total Energy              =    -205.4700259352296996 [Eh]

	 ================> DF-SCS-MP2 Energies <==================
	-----------------------------------------------------------
	 SCS Same-Spin Scale       =       0.3333333333333333 [-]
	 SCS Opposite-Spin Scale   =       1.2000000000000000 [-]
	 SCS Same-Spin Energy      =      -0.0677916324200279 [Eh]
	 SCS Opposite-Spin Energy  =      -0.7847827135334349 [Eh]
	 SCS Correlation Energy    =      -0.8525743459534627 [Eh]
	 SCS Total Energy          =    -205.4652397893118803 [Eh]
	-----------------------------------------------------------

  Dipole Moment: [D]
     X:    -0.0654      Y:    -0.0473      Z:    -0.0164     Total:     0.0824

*** Psi4 exiting successfully. Buy a developer a beer!
