                               Psi4 1.3.2 release

  ==> Input File <==

--------------------------------------------------------------------------
#psi4
#
memory 32 gb

molecule  {
1 1
  C        0.0002390     0.0000000     0.0000070
  N        1.3342252    -0.0503271     0.0000073
  N       -0.6645470     1.1579100     0.0000060
  N       -0.6710310    -1.1541680    -0.0000370
  H       -1.6824900    -1.1797440    -0.0000320
  H       -0.1917480    -2.0454120     0.0002210
  H        1.8634770    -0.8669560    -0.0001490
  H        1.8683040     0.8565010     0.0001050
  H       -0.1802750     2.0464480    -0.0001350
  H       -1.6758440     1.1891650     0.0001080
units angstrom
no_reorient  #important for SAPT in psi4, default
symmetry c1  #important for SAPT in psi4, default
}

set PROPERTIES_ORIGIN ["COM"]
properties('MP2/aug-cc-pvtz', properties = ['dipole'])
--------------------------------------------------------------------------

    Molecular point group: c1
  Charge       = 1
  Multiplicity = 1
  Basis Set: AUG-CC-PVTZ
    Blend: AUG-CC-PVTZ
  Basis Set: (AUG-CC-PVTZ AUX)
    Blend: AUG-CC-PVTZ-JKFIT

    Orbital Energies [Eh]
    ---------------------

    Doubly Occupied:

       1A    -15.801819     2A    -15.799603     3A    -15.797301
       4A    -11.612020     5A     -1.547475     6A     -1.403742
       7A     -1.396798     8A     -1.080844     9A     -0.987317
      10A     -0.978178    11A     -0.878669    12A     -0.867565
      13A     -0.854740    14A     -0.815961    15A     -0.633751
      16A     -0.629641

  @DF-RHF Final Energy:  -204.61076396175264

   => Energetics <=

    Nuclear Repulsion Energy =            133.2777009092224603
    One-Electron Energy =                -533.6060821062050081
    Two-Electron Energy =                 195.7176172352299091
    Total Energy =                       -204.6107639617526388
  Basis Set: (AUG-CC-PVTZ AUX)
    Blend: AUG-CC-PVTZ-RI
    Molecular point group: c1

    Geometry (in Angstrom), charge = 1, multiplicity = 1:

       Center              X                  Y                   Z               Mass
    ------------   -----------------  -----------------  -----------------  -----------------
         C            0.000482775371     0.010862040706     0.000009147148    12.000000000000
         N            1.334468975371    -0.039465059294     0.000009447148    14.003074004430
         N           -0.664303224629     1.168772040706     0.000008147148    14.003074004430
         N           -0.670787224629    -1.143305959294    -0.000034852852    14.003074004430
         H           -1.682246224629    -1.168881959294    -0.000029852852     1.007825032230
         H           -0.191504224629    -2.034549959294     0.000223147148     1.007825032230
         H            1.863720775371    -0.856093959294    -0.000146852852     1.007825032230
         H            1.868547775371     0.867363040706     0.000107147148     1.007825032230
         H           -0.180031224629     2.057310040706    -0.000132852852     1.007825032230
         H           -1.675600224629     1.200027040706     0.000110147148     1.007825032230

  Basis Set: AUG-CC-PVTZ
    Blend: AUG-CC-PVTZ
  Basis Set: (AUG-CC-PVTZ AUX)
    Blend: AUG-CC-PVTZ-JKFIT
	 Reference Energy          =    -204.6107639617526388 [Eh]
	 Singles Energy            =      -0.0000000000000000 [Eh]
	 Same-Spin Energy          =      -0.2033339635453369 [Eh]
	 Opposite-Spin Energy      =      -0.6542162591828448 [Eh]
	 Correlation Energy        =      -0.8575502227281817 [Eh]
	 Total Energy              =    -205.4683141844808176 [Eh]

	 ================> DF-SCS-MP2 Energies <==================
	-----------------------------------------------------------
	 SCS Same-Spin Scale       =       0.3333333333333333 [-]
	 SCS Opposite-Spin Scale   =       1.2000000000000000 [-]
	 SCS Same-Spin Energy      =      -0.0677779878484456 [Eh]
	 SCS Opposite-Spin Energy  =      -0.7850595110194137 [Eh]
	 SCS Correlation Energy    =      -0.8528374988678593 [Eh]
	 SCS Total Energy          =    -205.4636014606205094 [Eh]
	-----------------------------------------------------------

  Dipole Moment: [D]
     X:     0.0015      Y:     0.1350      Z:     0.0002     Total:     0.1351

*** Psi4 exiting successfully. Buy a developer a beer!
