                               Psi4 1.4a3.dev225

  ==> Input File <==

--------------------------------------------------------------------------
#psi4
#
memory 32 gb

molecule  {
1 1
  C       -0.0000020     0.0000000     0.0000000
  N       -1.2796650    -0.3796360    -0.0000120
  N        0.9686130    -0.9183980     0.0000200
  N        0.3110580     1.2980380    -0.0000090
  H        1.2638895     1.6221841     0.2294863
  H       -0.3777690     2.0048910    -0.2249800
  H       -2.0221380     0.2706160     0.2250260
  H       -1.5474000    -1.3296080    -0.2249710
  H        0.7767000    -1.8865410     0.2249670
  H        1.9251530    -0.6752950    -0.2250740
units angstrom
no_reorient  #important for SAPT in psi4, default
symmetry c1  #important for SAPT in psi4, default
}

set PROPERTIES_ORIGIN ["COM"]
properties('MP2/aug-cc-pvtz', properties = ['dipole'])
--------------------------------------------------------------------------

    Molecular point group: c1
  Charge       = 1
  Multiplicity = 1
  Basis Set: AUG-CC-PVTZ
    Blend: AUG-CC-PVTZ
  Basis Set: (AUG-CC-PVTZ AUX)
    Blend: AUG-CC-PVTZ-JKFIT

    Orbital Energies [Eh]
    ---------------------

    Doubly Occupied:

       1A    -15.800628     2A    -15.799017     3A    -15.798950
       4A    -11.610754     5A     -1.546173     6A     -1.399314
       7A     -1.397282     8A     -1.076272     9A     -0.979883
      10A     -0.977767    11A     -0.884131    12A     -0.867289
      13A     -0.865138    14A     -0.791900    15A     -0.633051
      16A     -0.632621

  @DF-RHF Final Energy:  -204.61220544111515

   => Energetics <=

    Nuclear Repulsion Energy =            133.1681794785069997
    One-Electron Energy =                -533.4404327175063827
    Two-Electron Energy =                 195.6600477978842321
    Total Energy =                       -204.6122054411151510
  Basis Set: (AUG-CC-PVTZ AUX)
    Blend: AUG-CC-PVTZ-RI
    Molecular point group: c1

    Geometry (in Angstrom), charge = 1, multiplicity = 1:

       Center              X                  Y                   Z               Mass
    ------------   -----------------  -----------------  -----------------  -----------------
         C           -0.000312372375    -0.000105767581    -0.000074516104    12.000000000000
         N           -1.279975372375    -0.379741767581    -0.000086516104    14.003074004430
         N            0.968302627625    -0.918503767581    -0.000054516104    14.003074004430
         N            0.310747627625     1.297932232419    -0.000083516104    14.003074004430
         H            1.263579127625     1.622078332419     0.229411783896     1.007825032230
         H           -0.378079372375     2.004785232419    -0.225054516104     1.007825032230
         H           -2.022448372375     0.270510232419     0.224951483896     1.007825032230
         H           -1.547710372375    -1.329713767581    -0.225045516104     1.007825032230
         H            0.776389627625    -1.886646767581     0.224892483896     1.007825032230
         H            1.924842627625    -0.675400767581    -0.225148516104     1.007825032230

  Basis Set: AUG-CC-PVTZ
    Blend: AUG-CC-PVTZ
  Basis Set: (AUG-CC-PVTZ AUX)
    Blend: AUG-CC-PVTZ-JKFIT
	 Reference Energy          =    -204.6122054411151510 [Eh]
	 Singles Energy            =      -0.0000000000000000 [Eh]
	 Same-Spin Energy          =      -0.2037775671948255 [Eh]
	 Opposite-Spin Energy      =      -0.6550282002995326 [Eh]
	 Correlation Energy        =      -0.8588057674943580 [Eh]
	 Total Energy              =    -205.4710112086094966 [Eh]

	 ================> DF-SCS-MP2 Energies <==================
	-----------------------------------------------------------
	 SCS Same-Spin Scale       =       0.3333333333333333 [-]
	 SCS Opposite-Spin Scale   =       1.2000000000000000 [-]
	 SCS Same-Spin Energy      =      -0.0679258557316085 [Eh]
	 SCS Opposite-Spin Energy  =      -0.7860338403594390 [Eh]
	 SCS Correlation Energy    =      -0.8539596960910475 [Eh]
	 SCS Total Energy          =    -205.4661651372061897 [Eh]
	-----------------------------------------------------------

  Dipole Moment: [D]
     X:     0.0268      Y:     0.0191      Z:     0.0068     Total:     0.0336

*** Psi4 exiting successfully. Buy a developer a beer!
