                               Psi4 1.3.2 release

  ==> Input File <==

--------------------------------------------------------------------------
#psi4
#
memory 32 gb

molecule  {
1 1
  C        0.0002390     0.0000000     0.0000070
  N        1.3351690    -0.0037410     0.0000090
  N       -0.6645470     1.1579100     0.0000060
  N       -0.6710310    -1.1541680    -0.0000370
  H       -1.6809813    -1.2150278    -0.0000218
  H       -0.1917480    -2.0454120     0.0002210
  H        1.8634770    -0.8669560    -0.0001490
  H        1.8683040     0.8565010     0.0001050
  H       -0.1802750     2.0464480    -0.0001350
  H       -1.6758440     1.1891650     0.0001080
units angstrom
no_reorient  #important for SAPT in psi4, default
symmetry c1  #important for SAPT in psi4, default
}

set PROPERTIES_ORIGIN ["COM"]
properties('MP2/aug-cc-pvtz', properties = ['dipole'])
--------------------------------------------------------------------------

    Molecular point group: c1
  Charge       = 1
  Multiplicity = 1
  Basis Set: AUG-CC-PVTZ
    Blend: AUG-CC-PVTZ
  Basis Set: (AUG-CC-PVTZ AUX)
    Blend: AUG-CC-PVTZ-JKFIT

    Orbital Energies [Eh]
    ---------------------

    Doubly Occupied:

       1A    -15.799736     2A    -15.799239     3A    -15.799201
       4A    -11.612316     5A     -1.546970     6A     -1.399945
       7A     -1.399811     8A     -1.080510     9A     -0.983666
      10A     -0.980966    11A     -0.868914    12A     -0.867569
      13A     -0.864811    14A     -0.815736    15A     -0.631620
      16A     -0.631343

  @DF-RHF Final Energy:  -204.61405354121877

   => Energetics <=

    Nuclear Repulsion Energy =            133.2265280578294551
    One-Electron Energy =                -533.5164586444386714
    Two-Electron Energy =                 195.6758770453904503
    Total Energy =                       -204.6140535412187660
  Basis Set: (AUG-CC-PVTZ AUX)
    Blend: AUG-CC-PVTZ-RI
    Molecular point group: c1

    Geometry (in Angstrom), charge = 1, multiplicity = 1:

       Center              X                  Y                   Z               Mass
    ------------   -----------------  -----------------  -----------------  -----------------
         C            0.000237394983     0.000591843883     0.000008579595    12.000000000000
         N            1.335167394983    -0.003149156117     0.000010579595    14.003074004430
         N           -0.664548605017     1.158501843883     0.000007579595    14.003074004430
         N           -0.671032605017    -1.153576156117    -0.000035420405    14.003074004430
         H           -1.680982905017    -1.214435956117    -0.000020220405     1.007825032230
         H           -0.191749605017    -2.044820156117     0.000222579595     1.007825032230
         H            1.863475394983    -0.866364156117    -0.000147420405     1.007825032230
         H            1.868302394983     0.857092843883     0.000106579595     1.007825032230
         H           -0.180276605017     2.047039843883    -0.000133420405     1.007825032230
         H           -1.675845605017     1.189756843883     0.000109579595     1.007825032230

  Basis Set: AUG-CC-PVTZ
    Blend: AUG-CC-PVTZ
  Basis Set: (AUG-CC-PVTZ AUX)
    Blend: AUG-CC-PVTZ-JKFIT
	 Reference Energy          =    -204.6140535412187660 [Eh]
	 Singles Energy            =      -0.0000000000000000 [Eh]
	 Same-Spin Energy          =      -0.2032829116148106 [Eh]
	 Opposite-Spin Energy      =      -0.6540783666482327 [Eh]
	 Correlation Energy        =      -0.8573612782630433 [Eh]
	 Total Energy              =    -205.4714148194818222 [Eh]

	 ================> DF-SCS-MP2 Energies <==================
	-----------------------------------------------------------
	 SCS Same-Spin Scale       =       0.3333333333333333 [-]
	 SCS Opposite-Spin Scale   =       1.2000000000000000 [-]
	 SCS Same-Spin Energy      =      -0.0677609705382702 [Eh]
	 SCS Opposite-Spin Energy  =      -0.7848940399778792 [Eh]
	 SCS Correlation Energy    =      -0.8526550105161494 [Eh]
	 SCS Total Energy          =    -205.4667085517349108 [Eh]
	-----------------------------------------------------------

  Dipole Moment: [D]
     X:    -0.0027      Y:    -0.0268      Z:     0.0003     Total:     0.0270

*** Psi4 exiting successfully. Buy a developer a beer!
