                               Psi4 1.3.2 release

  ==> Input File <==

--------------------------------------------------------------------------
#psi4
#
memory 32 gb

molecule  {
1 1
  C        0.0002390     0.0000000     0.0000070
  N        1.3351690    -0.0037410     0.0000090
  N       -0.6645470     1.1579100     0.0000060
  N       -0.6207554    -1.0677252    -0.0000337
  H       -1.6824900    -1.1797440    -0.0000320
  H       -0.1917480    -2.0454120     0.0002210
  H        1.8634770    -0.8669560    -0.0001490
  H        1.8683040     0.8565010     0.0001050
  H       -0.1802750     2.0464480    -0.0001350
  H       -1.6758440     1.1891650     0.0001080
units angstrom
no_reorient  #important for SAPT in psi4, default
symmetry c1  #important for SAPT in psi4, default
}

set PROPERTIES_ORIGIN ["COM"]
properties('MP2/aug-cc-pvtz', properties = ['dipole'])
--------------------------------------------------------------------------

    Molecular point group: c1
  Charge       = 1
  Multiplicity = 1
  Basis Set: AUG-CC-PVTZ
    Blend: AUG-CC-PVTZ
  Basis Set: (AUG-CC-PVTZ AUX)
    Blend: AUG-CC-PVTZ-JKFIT

    Orbital Energies [Eh]
    ---------------------

    Doubly Occupied:

       1A    -15.810272     2A    -15.788390     3A    -15.788255
       4A    -11.594874     5A     -1.567068     6A     -1.406094
       7A     -1.393444     8A     -1.078891     9A     -0.987133
      10A     -0.980917    11A     -0.876315    12A     -0.859588
      13A     -0.833994    14A     -0.831398    15A     -0.632986
      16A     -0.626280

  @DF-RHF Final Energy:  -204.59658504024344

   => Energetics <=

    Nuclear Repulsion Energy =            135.2319803763172104
    One-Electron Energy =                -537.5453323811879045
    Two-Electron Energy =                 197.7167669646272543
    Total Energy =                       -204.5965850402434398
  Basis Set: (AUG-CC-PVTZ AUX)
    Blend: AUG-CC-PVTZ-RI
    Molecular point group: c1

    Geometry (in Angstrom), charge = 1, multiplicity = 1:

       Center              X                  Y                   Z               Mass
    ------------   -----------------  -----------------  -----------------  -----------------
         C           -0.011459861369    -0.020155812464     0.000007981317    12.000000000000
         N            1.323470138631    -0.023896812464     0.000009981317    14.003074004430
         N           -0.676245861369     1.137754187536     0.000006981317    14.003074004430
         N           -0.632454261369    -1.087881012464    -0.000032718683    14.003074004430
         H           -1.694188861369    -1.199899812464    -0.000031018683     1.007825032230
         H           -0.203446861369    -2.065567812464     0.000221981317     1.007825032230
         H            1.851778138631    -0.887111812464    -0.000148018683     1.007825032230
         H            1.856605138631     0.836345187536     0.000105981317     1.007825032230
         H           -0.191973861369     2.026292187536    -0.000134018683     1.007825032230
         H           -1.687542861369     1.169009187536     0.000108981317     1.007825032230

  Basis Set: AUG-CC-PVTZ
    Blend: AUG-CC-PVTZ
  Basis Set: (AUG-CC-PVTZ AUX)
    Blend: AUG-CC-PVTZ-JKFIT
	 Reference Energy          =    -204.5965850402434398 [Eh]
	 Singles Energy            =      -0.0000000000000000 [Eh]
	 Same-Spin Energy          =      -0.2040314232294687 [Eh]
	 Opposite-Spin Energy      =      -0.6546156954870110 [Eh]
	 Correlation Energy        =      -0.8586471187164798 [Eh]
	 Total Energy              =    -205.4552321589599160 [Eh]

	 ================> DF-SCS-MP2 Energies <==================
	-----------------------------------------------------------
	 SCS Same-Spin Scale       =       0.3333333333333333 [-]
	 SCS Opposite-Spin Scale   =       1.2000000000000000 [-]
	 SCS Same-Spin Energy      =      -0.0680104744098229 [Eh]
	 SCS Opposite-Spin Energy  =      -0.7855388345844132 [Eh]
	 SCS Correlation Energy    =      -0.8535493089942361 [Eh]
	 SCS Total Energy          =    -205.4501343492376861 [Eh]
	-----------------------------------------------------------

  Dipole Moment: [D]
     X:    -0.3828      Y:    -0.6650      Z:     0.0002     Total:     0.7673

*** Psi4 exiting successfully. Buy a developer a beer!
