                               Psi4 1.4a3.dev225

  ==> Input File <==

--------------------------------------------------------------------------
#psi4
#
memory 32 gb

molecule  {
1 1
  C       -0.0000020     0.0000000     0.0000000
  N       -1.2796650    -0.3796360    -0.0000120
  N        0.9686130    -0.9183980     0.0000200
  N        0.3063972     1.2785887    -0.0000089
  H        1.2454290     1.6159040     0.2250400
  H       -0.3777690     2.0048910    -0.2249800
  H       -2.0221380     0.2706160     0.2250260
  H       -1.5474000    -1.3296080    -0.2249710
  H        0.7767000    -1.8865410     0.2249670
  H        1.9251530    -0.6752950    -0.2250740
units angstrom
no_reorient  #important for SAPT in psi4, default
symmetry c1  #important for SAPT in psi4, default
}

set PROPERTIES_ORIGIN ["COM"]
properties('MP2/aug-cc-pvtz', properties = ['dipole'])
--------------------------------------------------------------------------

    Molecular point group: c1
  Charge       = 1
  Multiplicity = 1
  Basis Set: AUG-CC-PVTZ
    Blend: AUG-CC-PVTZ
  Basis Set: (AUG-CC-PVTZ AUX)
    Blend: AUG-CC-PVTZ-JKFIT

    Orbital Energies [Eh]
    ---------------------

    Doubly Occupied:

       1A    -15.801418     2A    -15.797153     3A    -15.797129
       4A    -11.608049     5A     -1.549963     6A     -1.400974
       7A     -1.398305     8A     -1.077622     9A     -0.981435
      10A     -0.979695    11A     -0.883606    12A     -0.870082
      13A     -0.863134    14A     -0.793543    15A     -0.633723
      16A     -0.632281

  @DF-RHF Final Energy:  -204.61255993086161

   => Energetics <=

    Nuclear Repulsion Energy =            133.6417034255119631
    One-Electron Energy =                -534.3723036023019404
    Two-Electron Energy =                 196.1180402459283414
    Total Energy =                       -204.6125599308616074
  Basis Set: (AUG-CC-PVTZ AUX)
    Blend: AUG-CC-PVTZ-RI
    Molecular point group: c1

    Geometry (in Angstrom), charge = 1, multiplicity = 1:

       Center              X                  Y                   Z               Mass
    ------------   -----------------  -----------------  -----------------  -----------------
         C            0.001084161540     0.004534541966     0.000000075599    12.000000000000
         N           -1.278578838460    -0.375101458034    -0.000011924401    14.003074004430
         N            0.969699161540    -0.913863458034     0.000020075599    14.003074004430
         N            0.307483361540     1.283123241966    -0.000008824401    14.003074004430
         H            1.246515161540     1.620438541966     0.225040075599     1.007825032230
         H           -0.376682838460     2.009425541966    -0.224979924401     1.007825032230
         H           -2.021051838460     0.275150541966     0.225026075599     1.007825032230
         H           -1.546313838460    -1.325073458034    -0.224970924401     1.007825032230
         H            0.777786161540    -1.882006458034     0.224967075599     1.007825032230
         H            1.926239161540    -0.670760458034    -0.225073924401     1.007825032230

  Basis Set: AUG-CC-PVTZ
    Blend: AUG-CC-PVTZ
  Basis Set: (AUG-CC-PVTZ AUX)
    Blend: AUG-CC-PVTZ-JKFIT
	 Reference Energy          =    -204.6125599308616074 [Eh]
	 Singles Energy            =      -0.0000000000000000 [Eh]
	 Same-Spin Energy          =      -0.2037762831170296 [Eh]
	 Opposite-Spin Energy      =      -0.6547440812599592 [Eh]
	 Correlation Energy        =      -0.8585203643769888 [Eh]
	 Total Energy              =    -205.4710802952386075 [Eh]

	 ================> DF-SCS-MP2 Energies <==================
	-----------------------------------------------------------
	 SCS Same-Spin Scale       =       0.3333333333333333 [-]
	 SCS Opposite-Spin Scale   =       1.2000000000000000 [-]
	 SCS Same-Spin Energy      =      -0.0679254277056765 [Eh]
	 SCS Opposite-Spin Energy  =      -0.7856928975119510 [Eh]
	 SCS Correlation Energy    =      -0.8536183252176276 [Eh]
	 SCS Total Energy          =    -205.4661782560792460 [Eh]
	-----------------------------------------------------------

  Dipole Moment: [D]
     X:     0.0341      Y:     0.1428      Z:     0.0000     Total:     0.1468

*** Psi4 exiting successfully. Buy a developer a beer!
