                               Psi4 1.4a3.dev225

  ==> Input File <==

--------------------------------------------------------------------------
#psi4
#
memory 32 gb

molecule  {
1 1
  C       -0.0000020     0.0000000     0.0000000
  N       -1.2796650    -0.3796360    -0.0000120
  N        0.9686130    -0.9183980     0.0000200
  N        0.3110580     1.2980380    -0.0000090
  H        1.2269685     1.6096239     0.2205937
  H       -0.3777690     2.0048910    -0.2249800
  H       -2.0221380     0.2706160     0.2250260
  H       -1.5474000    -1.3296080    -0.2249710
  H        0.7767000    -1.8865410     0.2249670
  H        1.9251530    -0.6752950    -0.2250740
units angstrom
no_reorient  #important for SAPT in psi4, default
symmetry c1  #important for SAPT in psi4, default
}

set PROPERTIES_ORIGIN ["COM"]
properties('MP2/aug-cc-pvtz', properties = ['dipole'])
--------------------------------------------------------------------------

    Molecular point group: c1
  Charge       = 1
  Multiplicity = 1
  Basis Set: AUG-CC-PVTZ
    Blend: AUG-CC-PVTZ
  Basis Set: (AUG-CC-PVTZ AUX)
    Blend: AUG-CC-PVTZ-JKFIT

    Orbital Energies [Eh]
    ---------------------

    Doubly Occupied:

       1A    -15.799574     2A    -15.799512     3A    -15.797824
       4A    -11.611394     5A     -1.547768     6A     -1.402016
       7A     -1.399859     8A     -1.079308     9A     -0.982852
      10A     -0.980612    11A     -0.887505    12A     -0.869723
      13A     -0.867956    14A     -0.793196    15A     -0.633939
      16A     -0.633505

  @DF-RHF Final Energy:  -204.61358667924415

   => Energetics <=

    Nuclear Repulsion Energy =            133.3707388186528249
    One-Electron Energy =                -533.7955674147829086
    Two-Electron Energy =                 195.8112419168859049
    Total Energy =                       -204.6135866792441504
  Basis Set: (AUG-CC-PVTZ AUX)
    Blend: AUG-CC-PVTZ-RI
    Molecular point group: c1

    Geometry (in Angstrom), charge = 1, multiplicity = 1:

       Center              X                  Y                   Z               Mass
    ------------   -----------------  -----------------  -----------------  -----------------
         C            0.000307212700     0.000105009821     0.000074713934    12.000000000000
         N           -1.279355787300    -0.379530990179     0.000062713934    14.003074004430
         N            0.968922212700    -0.918292990179     0.000094713934    14.003074004430
         N            0.311367212700     1.298143009821     0.000065713934    14.003074004430
         H            1.227277712700     1.609728909821     0.220668413934     1.007825032230
         H           -0.377459787300     2.004996009821    -0.224905286066     1.007825032230
         H           -2.021828787300     0.270721009821     0.225100713934     1.007825032230
         H           -1.547090787300    -1.329502990179    -0.224896286066     1.007825032230
         H            0.777009212700    -1.886435990179     0.225041713934     1.007825032230
         H            1.925462212700    -0.675189990179    -0.224999286066     1.007825032230

  Basis Set: AUG-CC-PVTZ
    Blend: AUG-CC-PVTZ
  Basis Set: (AUG-CC-PVTZ AUX)
    Blend: AUG-CC-PVTZ-JKFIT
	 Reference Energy          =    -204.6135866792441504 [Eh]
	 Singles Energy            =      -0.0000000000000000 [Eh]
	 Same-Spin Energy          =      -0.2035427810161909 [Eh]
	 Opposite-Spin Energy      =      -0.6544123485902218 [Eh]
	 Correlation Energy        =      -0.8579551296064126 [Eh]
	 Total Energy              =    -205.4715418088505601 [Eh]

	 ================> DF-SCS-MP2 Energies <==================
	-----------------------------------------------------------
	 SCS Same-Spin Scale       =       0.3333333333333333 [-]
	 SCS Opposite-Spin Scale   =       1.2000000000000000 [-]
	 SCS Same-Spin Energy      =      -0.0678475936720636 [Eh]
	 SCS Opposite-Spin Energy  =      -0.7852948183082661 [Eh]
	 SCS Correlation Energy    =      -0.8531424119803297 [Eh]
	 SCS Total Energy          =    -205.4667290912244937 [Eh]
	-----------------------------------------------------------

  Dipole Moment: [D]
     X:    -0.0266      Y:    -0.0191      Z:    -0.0066     Total:     0.0334

*** Psi4 exiting successfully. Buy a developer a beer!
