                               Psi4 1.3.2 release

  ==> Input File <==

--------------------------------------------------------------------------
#psi4
#
memory 32 gb

molecule  {
1 1
  C        0.0002390     0.0000000     0.0000070
  N        1.3282472     0.1358177     0.0000142
  N       -0.6645470     1.1579100     0.0000060
  N       -0.6710310    -1.1541680    -0.0000370
  H       -1.6824900    -1.1797440    -0.0000320
  H       -0.1917480    -2.0454120     0.0002210
  H        1.8634770    -0.8669560    -0.0001490
  H        1.8683040     0.8565010     0.0001050
  H       -0.1802750     2.0464480    -0.0001350
  H       -1.6758440     1.1891650     0.0001080
units angstrom
no_reorient  #important for SAPT in psi4, default
symmetry c1  #important for SAPT in psi4, default
}

set PROPERTIES_ORIGIN ["COM"]
properties('MP2/aug-cc-pvtz', properties = ['dipole'])
--------------------------------------------------------------------------

    Molecular point group: c1
  Charge       = 1
  Multiplicity = 1
  Basis Set: AUG-CC-PVTZ
    Blend: AUG-CC-PVTZ
  Basis Set: (AUG-CC-PVTZ AUX)
    Blend: AUG-CC-PVTZ-JKFIT

    Orbital Energies [Eh]
    ---------------------

    Doubly Occupied:

       1A    -15.806831     2A    -15.799504     3A    -15.793374
       4A    -11.614484     5A     -1.548859     6A     -1.412140
       7A     -1.391600     8A     -1.091781     9A     -0.997638
      10A     -0.972229    11A     -0.893786    12A     -0.867954
      13A     -0.823495    14A     -0.816994    15A     -0.638330
      16A     -0.626028

  @DF-RHF Final Energy:  -204.58258355040300

   => Energetics <=

    Nuclear Repulsion Energy =            133.3803137890628534
    One-Electron Energy =                -533.7357360946149356
    Two-Electron Energy =                 195.7728387551491096
    Total Energy =                       -204.5825835504030010
  Basis Set: (AUG-CC-PVTZ AUX)
    Blend: AUG-CC-PVTZ-RI
    Molecular point group: c1

    Geometry (in Angstrom), charge = 1, multiplicity = 1:

       Center              X                  Y                   Z               Mass
    ------------   -----------------  -----------------  -----------------  -----------------
         C            0.001876643367    -0.032540649045     0.000007538301    12.000000000000
         N            1.329884843367     0.103277050955     0.000014738301    14.003074004430
         N           -0.662909356633     1.125369350955     0.000006538301    14.003074004430
         N           -0.669393356633    -1.186708649045    -0.000036461699    14.003074004430
         H           -1.680852356633    -1.212284649045    -0.000031461699     1.007825032230
         H           -0.190110356633    -2.077952649045     0.000221538301     1.007825032230
         H            1.865114643367    -0.899496649045    -0.000148461699     1.007825032230
         H            1.869941643367     0.823960350955     0.000105538301     1.007825032230
         H           -0.178637356633     2.013907350955    -0.000134461699     1.007825032230
         H           -1.674206356633     1.156624350955     0.000108538301     1.007825032230

  Basis Set: AUG-CC-PVTZ
    Blend: AUG-CC-PVTZ
  Basis Set: (AUG-CC-PVTZ AUX)
    Blend: AUG-CC-PVTZ-JKFIT
	 Reference Energy          =    -204.5825835504030010 [Eh]
	 Singles Energy            =      -0.0000000000000000 [Eh]
	 Same-Spin Energy          =      -0.2037691619353957 [Eh]
	 Opposite-Spin Energy      =      -0.6556025634296304 [Eh]
	 Correlation Energy        =      -0.8593717253650262 [Eh]
	 Total Energy              =    -205.4419552757680378 [Eh]

	 ================> DF-SCS-MP2 Energies <==================
	-----------------------------------------------------------
	 SCS Same-Spin Scale       =       0.3333333333333333 [-]
	 SCS Opposite-Spin Scale   =       1.2000000000000000 [-]
	 SCS Same-Spin Energy      =      -0.0679230539784652 [Eh]
	 SCS Opposite-Spin Energy  =      -0.7867230761155565 [Eh]
	 SCS Correlation Energy    =      -0.8546461300940217 [Eh]
	 SCS Total Energy          =    -205.4372296804970119 [Eh]
	-----------------------------------------------------------

  Dipole Moment: [D]
     X:    -0.0211      Y:    -0.4011      Z:     0.0003     Total:     0.4017

*** Psi4 exiting successfully. Buy a developer a beer!
