                               Psi4 1.3.2 release

  ==> Input File <==

--------------------------------------------------------------------------
#psi4
#
memory 32 gb

molecule  {
1 1
  C        0.0002390     0.0000000     0.0000070
  N        1.3321781     0.0893881     0.0000125
  N       -0.6645470     1.1579100     0.0000060
  N       -0.6710310    -1.1541680    -0.0000370
  H       -1.6824900    -1.1797440    -0.0000320
  H       -0.1917480    -2.0454120     0.0002210
  H        1.8634770    -0.8669560    -0.0001490
  H        1.8683040     0.8565010     0.0001050
  H       -0.1802750     2.0464480    -0.0001350
  H       -1.6758440     1.1891650     0.0001080
units angstrom
no_reorient  #important for SAPT in psi4, default
symmetry c1  #important for SAPT in psi4, default
}

set PROPERTIES_ORIGIN ["COM"]
properties('MP2/aug-cc-pvtz', properties = ['dipole'])
--------------------------------------------------------------------------

    Molecular point group: c1
  Charge       = 1
  Multiplicity = 1
  Basis Set: AUG-CC-PVTZ
    Blend: AUG-CC-PVTZ
  Basis Set: (AUG-CC-PVTZ AUX)
    Blend: AUG-CC-PVTZ-JKFIT

    Orbital Energies [Eh]
    ---------------------

    Doubly Occupied:

       1A    -15.804271     2A    -15.799547     3A    -15.795259
       4A    -11.612946     5A     -1.547996     6A     -1.407782
       7A     -1.393970     8A     -1.085063     9A     -0.992496
      10A     -0.974750    11A     -0.887314    12A     -0.867711
      13A     -0.839856    14A     -0.816349    15A     -0.635982
      16A     -0.627771

  @DF-RHF Final Energy:  -204.60013329581597

   => Energetics <=

    Nuclear Repulsion Energy =            133.3166277053432225
    One-Electron Energy =                -533.6553903612959857
    Two-Electron Energy =                 195.7386293601368266
    Total Energy =                       -204.6001332958159651
  Basis Set: (AUG-CC-PVTZ AUX)
    Blend: AUG-CC-PVTZ-RI
    Molecular point group: c1

    Geometry (in Angstrom), charge = 1, multiplicity = 1:

       Center              X                  Y                   Z               Mass
    ------------   -----------------  -----------------  -----------------  -----------------
         C            0.000960090054    -0.021714832133     0.000007934684    12.000000000000
         N            1.332899190054     0.067673267867     0.000013434684    14.003074004430
         N           -0.663825909946     1.136195167867     0.000006934684    14.003074004430
         N           -0.670309909946    -1.175882832133    -0.000036065316    14.003074004430
         H           -1.681768909946    -1.201458832133    -0.000031065316     1.007825032230
         H           -0.191026909946    -2.067126832133     0.000221934684     1.007825032230
         H            1.864198090054    -0.888670832133    -0.000148065316     1.007825032230
         H            1.869025090054     0.834786167867     0.000105934684     1.007825032230
         H           -0.179553909946     2.024733167867    -0.000134065316     1.007825032230
         H           -1.675122909946     1.167450167867     0.000108934684     1.007825032230

  Basis Set: AUG-CC-PVTZ
    Blend: AUG-CC-PVTZ
  Basis Set: (AUG-CC-PVTZ AUX)
    Blend: AUG-CC-PVTZ-JKFIT
	 Reference Energy          =    -204.6001332958159651 [Eh]
	 Singles Energy            =      -0.0000000000000000 [Eh]
	 Same-Spin Energy          =      -0.2034973288599890 [Eh]
	 Opposite-Spin Energy      =      -0.6547356312280355 [Eh]
	 Correlation Energy        =      -0.8582329600880245 [Eh]
	 Total Energy              =    -205.4583662559039965 [Eh]

	 ================> DF-SCS-MP2 Energies <==================
	-----------------------------------------------------------
	 SCS Same-Spin Scale       =       0.3333333333333333 [-]
	 SCS Opposite-Spin Scale   =       1.2000000000000000 [-]
	 SCS Same-Spin Energy      =      -0.0678324429533297 [Eh]
	 SCS Opposite-Spin Energy  =      -0.7856827574736426 [Eh]
	 SCS Correlation Energy    =      -0.8535152004269723 [Eh]
	 SCS Total Energy          =    -205.4536484962429483 [Eh]
	-----------------------------------------------------------

  Dipole Moment: [D]
     X:    -0.0077      Y:    -0.2690      Z:     0.0003     Total:     0.2692

*** Psi4 exiting successfully. Buy a developer a beer!
