                               Psi4 1.3.2 release

  ==> Input File <==

--------------------------------------------------------------------------
#psi4
#
memory 32 gb

molecule  {
1 1
  C        0.0002390     0.0000000     0.0000070
  N        1.3351690    -0.0037410     0.0000090
  N       -0.6645470     1.1579100     0.0000060
  N       -0.6710310    -1.1541680    -0.0000370
  H       -1.6818102    -1.1091259    -0.0000524
  H       -0.1917480    -2.0454120     0.0002210
  H        1.8634770    -0.8669560    -0.0001490
  H        1.8683040     0.8565010     0.0001050
  H       -0.1802750     2.0464480    -0.0001350
  H       -1.6758440     1.1891650     0.0001080
units angstrom
no_reorient  #important for SAPT in psi4, default
symmetry c1  #important for SAPT in psi4, default
}

set PROPERTIES_ORIGIN ["COM"]
properties('MP2/aug-cc-pvtz', properties = ['dipole'])
--------------------------------------------------------------------------

    Molecular point group: c1
  Charge       = 1
  Multiplicity = 1
  Basis Set: AUG-CC-PVTZ
    Blend: AUG-CC-PVTZ
  Basis Set: (AUG-CC-PVTZ AUX)
    Blend: AUG-CC-PVTZ-JKFIT

    Orbital Energies [Eh]
    ---------------------

    Doubly Occupied:

       1A    -15.800074     2A    -15.800043     3A    -15.799403
       4A    -11.610594     5A     -1.548078     6A     -1.400732
       7A     -1.400323     8A     -1.077373     9A     -0.985699
      10A     -0.979908    11A     -0.872736    12A     -0.868152
      13A     -0.865051    14A     -0.816073    15A     -0.632144
      16A     -0.631789

  @DF-RHF Final Energy:  -204.61386477641622

   => Energetics <=

    Nuclear Repulsion Energy =            133.3472414005084374
    One-Electron Energy =                -533.7458650929321493
    Two-Electron Energy =                 195.7847589160074904
    Total Energy =                       -204.6138647764162215
  Basis Set: (AUG-CC-PVTZ AUX)
    Blend: AUG-CC-PVTZ-RI
    Molecular point group: c1

    Geometry (in Angstrom), charge = 1, multiplicity = 1:

       Center              X                  Y                   Z               Mass
    ------------   -----------------  -----------------  -----------------  -----------------
         C            0.000251305063    -0.001185335412     0.000009093106    12.000000000000
         N            1.335181305063    -0.004926335412     0.000011093106    14.003074004430
         N           -0.664534694937     1.156724664588     0.000008093106    14.003074004430
         N           -0.671018694937    -1.155353335412    -0.000034906894    14.003074004430
         H           -1.681797894937    -1.110311235412    -0.000050306894     1.007825032230
         H           -0.191735694937    -2.046597335412     0.000223093106     1.007825032230
         H            1.863489305063    -0.868141335412    -0.000146906894     1.007825032230
         H            1.868316305063     0.855315664588     0.000107093106     1.007825032230
         H           -0.180262694937     2.045262664588    -0.000132906894     1.007825032230
         H           -1.675831694937     1.187979664588     0.000110093106     1.007825032230

  Basis Set: AUG-CC-PVTZ
    Blend: AUG-CC-PVTZ
  Basis Set: (AUG-CC-PVTZ AUX)
    Blend: AUG-CC-PVTZ-JKFIT
	 Reference Energy          =    -204.6138647764162215 [Eh]
	 Singles Energy            =      -0.0000000000000000 [Eh]
	 Same-Spin Energy          =      -0.2033174003124631 [Eh]
	 Opposite-Spin Energy      =      -0.6540549656301309 [Eh]
	 Correlation Energy        =      -0.8573723659425940 [Eh]
	 Total Energy              =    -205.4712371423588024 [Eh]

	 ================> DF-SCS-MP2 Energies <==================
	-----------------------------------------------------------
	 SCS Same-Spin Scale       =       0.3333333333333333 [-]
	 SCS Opposite-Spin Scale   =       1.2000000000000000 [-]
	 SCS Same-Spin Energy      =      -0.0677724667708210 [Eh]
	 SCS Opposite-Spin Energy  =      -0.7848659587561571 [Eh]
	 SCS Correlation Energy    =      -0.8526384255269781 [Eh]
	 SCS Total Energy          =    -205.4665032019431976 [Eh]
	-----------------------------------------------------------

  Dipole Moment: [D]
     X:     0.0220      Y:     0.0524      Z:     0.0002     Total:     0.0568

*** Psi4 exiting successfully. Buy a developer a beer!
