                               Psi4 1.4a3.dev225

  ==> Input File <==

--------------------------------------------------------------------------
#psi4
#
memory 32 gb

molecule  {
1 1
  C       -0.0000020     0.0000000     0.0000000
  N       -1.2796650    -0.3796360    -0.0000120
  N        0.9686130    -0.9183980     0.0000200
  N        0.3157188     1.3174873    -0.0000091
  H        1.2454290     1.6159040     0.2250400
  H       -0.3777690     2.0048910    -0.2249800
  H       -2.0221380     0.2706160     0.2250260
  H       -1.5474000    -1.3296080    -0.2249710
  H        0.7767000    -1.8865410     0.2249670
  H        1.9251530    -0.6752950    -0.2250740
units angstrom
no_reorient  #important for SAPT in psi4, default
symmetry c1  #important for SAPT in psi4, default
}

set PROPERTIES_ORIGIN ["COM"]
properties('MP2/aug-cc-pvtz', properties = ['dipole'])
--------------------------------------------------------------------------

    Molecular point group: c1
  Charge       = 1
  Multiplicity = 1
  Basis Set: AUG-CC-PVTZ
    Blend: AUG-CC-PVTZ
  Basis Set: (AUG-CC-PVTZ AUX)
    Blend: AUG-CC-PVTZ-JKFIT

    Orbital Energies [Eh]
    ---------------------

    Doubly Occupied:

       1A    -15.801329     2A    -15.801303     3A    -15.797137
       4A    -11.613912     5A     -1.544341     6A     -1.400837
       7A     -1.398180     8A     -1.077868     9A     -0.980932
      10A     -0.979037    11A     -0.888378    12A     -0.871647
      13A     -0.864706    14A     -0.791566    15A     -0.634235
      16A     -0.632775

  @DF-RHF Final Energy:  -204.61264635184307

   => Energetics <=

    Nuclear Repulsion Energy =            132.9033179289946816
    One-Electron Energy =                -532.8755621252936407
    Two-Electron Energy =                 195.3595978444558909
    Total Energy =                       -204.6126463518430683
  Basis Set: (AUG-CC-PVTZ AUX)
    Blend: AUG-CC-PVTZ-RI
    Molecular point group: c1

    Geometry (in Angstrom), charge = 1, multiplicity = 1:

       Center              X                  Y                   Z               Mass
    ------------   -----------------  -----------------  -----------------  -----------------
         C           -0.001089321215    -0.004535299725     0.000000122232    12.000000000000
         N           -1.280752321215    -0.384171299725    -0.000011877768    14.003074004430
         N            0.967525678785    -0.922933299725     0.000020122232    14.003074004430
         N            0.314631478785     1.312952000275    -0.000008977768    14.003074004430
         H            1.244341678785     1.611368700275     0.225040122232     1.007825032230
         H           -0.378856321215     2.000355700275    -0.224979877768     1.007825032230
         H           -2.023225321215     0.266080700275     0.225026122232     1.007825032230
         H           -1.548487321215    -1.334143299725    -0.224970877768     1.007825032230
         H            0.775612678785    -1.891076299725     0.224967122232     1.007825032230
         H            1.924065678785    -0.679830299725    -0.225073877768     1.007825032230

  Basis Set: AUG-CC-PVTZ
    Blend: AUG-CC-PVTZ
  Basis Set: (AUG-CC-PVTZ AUX)
    Blend: AUG-CC-PVTZ-JKFIT
	 Reference Energy          =    -204.6126463518430683 [Eh]
	 Singles Energy            =      -0.0000000000000000 [Eh]
	 Same-Spin Energy          =      -0.2035557932533212 [Eh]
	 Opposite-Spin Energy      =      -0.6547220988442444 [Eh]
	 Correlation Energy        =      -0.8582778920975656 [Eh]
	 Total Energy              =    -205.4709242439406296 [Eh]

	 ================> DF-SCS-MP2 Energies <==================
	-----------------------------------------------------------
	 SCS Same-Spin Scale       =       0.3333333333333333 [-]
	 SCS Opposite-Spin Scale   =       1.2000000000000000 [-]
	 SCS Same-Spin Energy      =      -0.0678519310844404 [Eh]
	 SCS Opposite-Spin Energy  =      -0.7856665186130932 [Eh]
	 SCS Correlation Energy    =      -0.8535184496975337 [Eh]
	 SCS Total Energy          =    -205.4661648015406001 [Eh]
	-----------------------------------------------------------

  Dipole Moment: [D]
     X:    -0.0337      Y:    -0.1401      Z:     0.0000     Total:     0.1441

*** Psi4 exiting successfully. Buy a developer a beer!
