                               Psi4 1.3.2 release

  ==> Input File <==

--------------------------------------------------------------------------
#psi4
#
memory 32 gb

molecule  {
1 1
  C        0.0002390     0.0000000     0.0000070
  N        1.3316562    -0.0968519     0.0000055
  N       -0.6645470     1.1579100     0.0000060
  N       -0.6710310    -1.1541680    -0.0000370
  H       -1.6824900    -1.1797440    -0.0000320
  H       -0.1917480    -2.0454120     0.0002210
  H        1.8634770    -0.8669560    -0.0001490
  H        1.8683040     0.8565010     0.0001050
  H       -0.1802750     2.0464480    -0.0001350
  H       -1.6758440     1.1891650     0.0001080
units angstrom
no_reorient  #important for SAPT in psi4, default
symmetry c1  #important for SAPT in psi4, default
}

set PROPERTIES_ORIGIN ["COM"]
properties('MP2/aug-cc-pvtz', properties = ['dipole'])
--------------------------------------------------------------------------

    Molecular point group: c1
  Charge       = 1
  Multiplicity = 1
  Basis Set: AUG-CC-PVTZ
    Blend: AUG-CC-PVTZ
  Basis Set: (AUG-CC-PVTZ AUX)
    Blend: AUG-CC-PVTZ-JKFIT

    Orbital Energies [Eh]
    ---------------------

    Doubly Occupied:

       1A    -15.804271     2A    -15.799547     3A    -15.795259
       4A    -11.612946     5A     -1.547996     6A     -1.407783
       7A     -1.393969     8A     -1.085064     9A     -0.992496
      10A     -0.974750    11A     -0.887316    12A     -0.867711
      13A     -0.839855    14A     -0.816349    15A     -0.635983
      16A     -0.627771

  @DF-RHF Final Energy:  -204.60013335828717

   => Energetics <=

    Nuclear Repulsion Energy =            133.3166229787251780
    One-Electron Energy =                -533.6553808372133290
    Two-Electron Energy =                 195.7386245002010128
    Total Energy =                       -204.6001333582871666
  Basis Set: (AUG-CC-PVTZ AUX)
    Blend: AUG-CC-PVTZ-RI
    Molecular point group: c1

    Geometry (in Angstrom), charge = 1, multiplicity = 1:

       Center              X                  Y                   Z               Mass
    ------------   -----------------  -----------------  -----------------  -----------------
         C            0.001081779533     0.021710055048     0.000009566847    12.000000000000
         N            1.332498979533    -0.075141844952     0.000008066847    14.003074004430
         N           -0.663704220467     1.179620055048     0.000008566847    14.003074004430
         N           -0.670188220467    -1.132457944952    -0.000034433153    14.003074004430
         H           -1.681647220467    -1.158033944952    -0.000029433153     1.007825032230
         H           -0.190905220467    -2.023701944952     0.000223566847     1.007825032230
         H            1.864319779533    -0.845245944952    -0.000146433153     1.007825032230
         H            1.869146779533     0.878211055048     0.000107566847     1.007825032230
         H           -0.179432220467     2.068158055048    -0.000132433153     1.007825032230
         H           -1.675001220467     1.210875055048     0.000110566847     1.007825032230

  Basis Set: AUG-CC-PVTZ
    Blend: AUG-CC-PVTZ
  Basis Set: (AUG-CC-PVTZ AUX)
    Blend: AUG-CC-PVTZ-JKFIT
	 Reference Energy          =    -204.6001333582871666 [Eh]
	 Singles Energy            =      -0.0000000000000000 [Eh]
	 Same-Spin Energy          =      -0.2034973338606131 [Eh]
	 Opposite-Spin Energy      =      -0.6547356448316737 [Eh]
	 Correlation Energy        =      -0.8582329786922869 [Eh]
	 Total Energy              =    -205.4583663369794522 [Eh]

	 ================> DF-SCS-MP2 Energies <==================
	-----------------------------------------------------------
	 SCS Same-Spin Scale       =       0.3333333333333333 [-]
	 SCS Opposite-Spin Scale   =       1.2000000000000000 [-]
	 SCS Same-Spin Energy      =      -0.0678324446202044 [Eh]
	 SCS Opposite-Spin Energy  =      -0.7856827737980084 [Eh]
	 SCS Correlation Energy    =      -0.8535152184182129 [Eh]
	 SCS Total Energy          =    -205.4536485767053762 [Eh]
	-----------------------------------------------------------

  Dipole Moment: [D]
     X:    -0.0062      Y:     0.2691      Z:     0.0002     Total:     0.2692

*** Psi4 exiting successfully. Buy a developer a beer!
