                               Psi4 1.3.2 release

  ==> Input File <==

--------------------------------------------------------------------------
#psi4
#
memory 32 gb

molecule  {
1 1
  C        0.0002390     0.0000000     0.0000070
  N        1.3351690    -0.0037410     0.0000090
  N       -0.6645470     1.1579100     0.0000060
  N       -0.6710310    -1.1541680    -0.0000370
  H       -1.4825539    -1.1746884    -0.0000330
  H       -0.1917480    -2.0454120     0.0002210
  H        1.8634770    -0.8669560    -0.0001490
  H        1.8683040     0.8565010     0.0001050
  H       -0.1802750     2.0464480    -0.0001350
  H       -1.6758440     1.1891650     0.0001080
units angstrom
no_reorient  #important for SAPT in psi4, default
symmetry c1  #important for SAPT in psi4, default
}

set PROPERTIES_ORIGIN ["COM"]
properties('MP2/aug-cc-pvtz', properties = ['dipole'])
--------------------------------------------------------------------------

    Molecular point group: c1
  Charge       = 1
  Multiplicity = 1
  Basis Set: AUG-CC-PVTZ
    Blend: AUG-CC-PVTZ
  Basis Set: (AUG-CC-PVTZ AUX)
    Blend: AUG-CC-PVTZ-JKFIT

    Orbital Energies [Eh]
    ---------------------

    Doubly Occupied:

       1A    -15.802319     2A    -15.802207     3A    -15.782270
       4A    -11.614822     5A     -1.558425     6A     -1.430777
       7A     -1.402642     8A     -1.102085     9A     -1.011070
      10A     -0.985939    11A     -0.898651    12A     -0.870957
      13A     -0.870067    14A     -0.819536    15A     -0.638508
      16A     -0.633801

  @DF-RHF Final Energy:  -204.56851840705679

   => Energetics <=

    Nuclear Repulsion Energy =            134.4668228457124997
    One-Electron Energy =                -535.6225290767396245
    Two-Electron Energy =                 196.5871878239703392
    Total Energy =                       -204.5685184070567857
  Basis Set: (AUG-CC-PVTZ AUX)
    Blend: AUG-CC-PVTZ-RI
    Molecular point group: c1

    Geometry (in Angstrom), charge = 1, multiplicity = 1:

       Center              X                  Y                   Z               Mass
    ------------   -----------------  -----------------  -----------------  -----------------
         C           -0.003092489248    -0.000085106639     0.000008767547    12.000000000000
         N            1.331837510752    -0.003826106639     0.000010767547    14.003074004430
         N           -0.667878489248     1.157824893361     0.000007767547    14.003074004430
         N           -0.674362489248    -1.154253106639    -0.000035232453    14.003074004430
         H           -1.485885389248    -1.174773506639    -0.000031232453     1.007825032230
         H           -0.195079489248    -2.045497106639     0.000222767547     1.007825032230
         H            1.860145510752    -0.867041106639    -0.000147232453     1.007825032230
         H            1.864972510752     0.856415893361     0.000106767547     1.007825032230
         H           -0.183606489248     2.046362893361    -0.000133232453     1.007825032230
         H           -1.679175489248     1.189079893361     0.000109767547     1.007825032230

  Basis Set: AUG-CC-PVTZ
    Blend: AUG-CC-PVTZ
  Basis Set: (AUG-CC-PVTZ AUX)
    Blend: AUG-CC-PVTZ-JKFIT
	 Reference Energy          =    -204.5685184070567857 [Eh]
	 Singles Energy            =      -0.0000000000000000 [Eh]
	 Same-Spin Energy          =      -0.2023365323128404 [Eh]
	 Opposite-Spin Energy      =      -0.6517928127977859 [Eh]
	 Correlation Energy        =      -0.8541293451106263 [Eh]
	 Total Energy              =    -205.4226477521674212 [Eh]

	 ================> DF-SCS-MP2 Energies <==================
	-----------------------------------------------------------
	 SCS Same-Spin Scale       =       0.3333333333333333 [-]
	 SCS Opposite-Spin Scale   =       1.2000000000000000 [-]
	 SCS Same-Spin Energy      =      -0.0674455107709468 [Eh]
	 SCS Opposite-Spin Energy  =      -0.7821513753573430 [Eh]
	 SCS Correlation Energy    =      -0.8495968861282899 [Eh]
	 SCS Total Energy          =    -205.4181152931850818 [Eh]
	-----------------------------------------------------------

  Dipole Moment: [D]
     X:     0.2981      Y:     0.1036      Z:     0.0003     Total:     0.3156

*** Psi4 exiting successfully. Buy a developer a beer!
