                               Psi4 1.3.2 release

  ==> Input File <==

--------------------------------------------------------------------------
#psi4
#
memory 32 gb

molecule  {
1 1
  C        0.0002390     0.0000000     0.0000070
  N        1.3351690    -0.0037410     0.0000090
  N       -0.6645470     1.1579100     0.0000060
  N       -0.6710310    -1.1541680    -0.0000370
  H       -1.6742757    -1.2853301    -0.0000015
  H       -0.1917480    -2.0454120     0.0002210
  H        1.8634770    -0.8669560    -0.0001490
  H        1.8683040     0.8565010     0.0001050
  H       -0.1802750     2.0464480    -0.0001350
  H       -1.6758440     1.1891650     0.0001080
units angstrom
no_reorient  #important for SAPT in psi4, default
symmetry c1  #important for SAPT in psi4, default
}

set PROPERTIES_ORIGIN ["COM"]
properties('MP2/aug-cc-pvtz', properties = ['dipole'])
--------------------------------------------------------------------------

    Molecular point group: c1
  Charge       = 1
  Multiplicity = 1
  Basis Set: AUG-CC-PVTZ
    Blend: AUG-CC-PVTZ
  Basis Set: (AUG-CC-PVTZ AUX)
    Blend: AUG-CC-PVTZ-JKFIT

    Orbital Energies [Eh]
    ---------------------

    Doubly Occupied:

       1A    -15.799943     2A    -15.798773     3A    -15.798625
       4A    -11.613604     5A     -1.546409     6A     -1.399765
       7A     -1.399396     8A     -1.082871     9A     -0.986115
      10A     -0.978250    11A     -0.871104    12A     -0.867263
      13A     -0.858770    14A     -0.815586    15A     -0.631508
      16A     -0.630883

  @DF-RHF Final Energy:  -204.61254263561699

   => Energetics <=

    Nuclear Repulsion Energy =            133.1565867067899092
    One-Electron Energy =                -533.3805254955572082
    Two-Electron Energy =                 195.6113961531503378
    Total Energy =                       -204.6125426356169896
  Basis Set: (AUG-CC-PVTZ AUX)
    Blend: AUG-CC-PVTZ-RI
    Molecular point group: c1

    Geometry (in Angstrom), charge = 1, multiplicity = 1:

       Center              X                  Y                   Z               Mass
    ------------   -----------------  -----------------  -----------------  -----------------
         C            0.000124865807     0.001771613008     0.000008238934    12.000000000000
         N            1.335054865807    -0.001969386992     0.000010238934    14.003074004430
         N           -0.664661134193     1.159681613008     0.000007238934    14.003074004430
         N           -0.671145134193    -1.152396386992    -0.000035761066    14.003074004430
         H           -1.674389834193    -1.283558486992    -0.000000261066     1.007825032230
         H           -0.191862134193    -2.043640386992     0.000222238934     1.007825032230
         H            1.863362865807    -0.865184386992    -0.000147761066     1.007825032230
         H            1.868189865807     0.858272613008     0.000106238934     1.007825032230
         H           -0.180389134193     2.048219613008    -0.000133761066     1.007825032230
         H           -1.675958134193     1.190936613008     0.000109238934     1.007825032230

  Basis Set: AUG-CC-PVTZ
    Blend: AUG-CC-PVTZ
  Basis Set: (AUG-CC-PVTZ AUX)
    Blend: AUG-CC-PVTZ-JKFIT
	 Reference Energy          =    -204.6125426356169896 [Eh]
	 Singles Energy            =      -0.0000000000000000 [Eh]
	 Same-Spin Energy          =      -0.2033330249922376 [Eh]
	 Opposite-Spin Energy      =      -0.6542272016125877 [Eh]
	 Correlation Energy        =      -0.8575602266048253 [Eh]
	 Total Energy              =    -205.4701028622218075 [Eh]

	 ================> DF-SCS-MP2 Energies <==================
	-----------------------------------------------------------
	 SCS Same-Spin Scale       =       0.3333333333333333 [-]
	 SCS Opposite-Spin Scale   =       1.2000000000000000 [-]
	 SCS Same-Spin Energy      =      -0.0677776749974125 [Eh]
	 SCS Opposite-Spin Energy  =      -0.7850726419351053 [Eh]
	 SCS Correlation Energy    =      -0.8528503169325178 [Eh]
	 SCS Total Energy          =    -205.4653929525495073 [Eh]
	-----------------------------------------------------------

  Dipole Moment: [D]
     X:    -0.0109      Y:    -0.0819      Z:     0.0003     Total:     0.0826

*** Psi4 exiting successfully. Buy a developer a beer!
