                               Psi4 1.3.2 release

  ==> Input File <==

--------------------------------------------------------------------------
#psi4
#
memory 32 gb

molecule  {
1 1
  C        0.0002390     0.0000000     0.0000070
  N        1.3351690    -0.0037410     0.0000090
  N       -0.6645470     1.1579100     0.0000060
  N       -0.6710310    -1.1541680    -0.0000370
  H       -1.6827823    -1.1620877    -0.0000371
  H       -0.1917480    -2.0454120     0.0002210
  H        1.8634770    -0.8669560    -0.0001490
  H        1.8683040     0.8565010     0.0001050
  H       -0.1802750     2.0464480    -0.0001350
  H       -1.6758440     1.1891650     0.0001080
units angstrom
no_reorient  #important for SAPT in psi4, default
symmetry c1  #important for SAPT in psi4, default
}

set PROPERTIES_ORIGIN ["COM"]
properties('MP2/aug-cc-pvtz', properties = ['dipole'])
--------------------------------------------------------------------------

    Molecular point group: c1
  Charge       = 1
  Multiplicity = 1
  Basis Set: AUG-CC-PVTZ
    Blend: AUG-CC-PVTZ
  Basis Set: (AUG-CC-PVTZ AUX)
    Blend: AUG-CC-PVTZ-JKFIT

    Orbital Energies [Eh]
    ---------------------

    Doubly Occupied:

       1A    -15.799643     2A    -15.799623     3A    -15.799565
       4A    -11.611420     5A     -1.547480     6A     -1.400260
       7A     -1.400082     8A     -1.078878     9A     -0.983231
      10A     -0.981794    11A     -0.868975    12A     -0.867845
      13A     -0.867043    14A     -0.815885    15A     -0.631745
      16A     -0.631685

  @DF-RHF Final Energy:  -204.61433355189533

   => Energetics <=

    Nuclear Repulsion Energy =            133.2844488926372435
    One-Electron Energy =                -533.6272541040218584
    Two-Electron Energy =                 195.7284716594893155
    Total Energy =                       -204.6143335518953279
  Basis Set: (AUG-CC-PVTZ AUX)
    Blend: AUG-CC-PVTZ-RI
    Molecular point group: c1

    Geometry (in Angstrom), charge = 1, multiplicity = 1:

       Center              X                  Y                   Z               Mass
    ------------   -----------------  -----------------  -----------------  -----------------
         C            0.000267618235    -0.000296563687     0.000008836351    12.000000000000
         N            1.335197618235    -0.004037563687     0.000010836351    14.003074004430
         N           -0.664518381765     1.157613436313     0.000007836351    14.003074004430
         N           -0.671002381765    -1.154464563687    -0.000035163649    14.003074004430
         H           -1.682753681765    -1.162384263687    -0.000035263649     1.007825032230
         H           -0.191719381765    -2.045708563687     0.000222836351     1.007825032230
         H            1.863505618235    -0.867252563687    -0.000147163649     1.007825032230
         H            1.868332618235     0.856204436313     0.000106836351     1.007825032230
         H           -0.180246381765     2.046151436313    -0.000133163649     1.007825032230
         H           -1.675815381765     1.188868436313     0.000109836351     1.007825032230

  Basis Set: AUG-CC-PVTZ
    Blend: AUG-CC-PVTZ
  Basis Set: (AUG-CC-PVTZ AUX)
    Blend: AUG-CC-PVTZ-JKFIT
	 Reference Energy          =    -204.6143335518953279 [Eh]
	 Singles Energy            =      -0.0000000000000000 [Eh]
	 Same-Spin Energy          =      -0.2032832656314267 [Eh]
	 Opposite-Spin Energy      =      -0.6540360092123290 [Eh]
	 Correlation Energy        =      -0.8573192748437557 [Eh]
	 Total Energy              =    -205.4716528267390743 [Eh]

	 ================> DF-SCS-MP2 Energies <==================
	-----------------------------------------------------------
	 SCS Same-Spin Scale       =       0.3333333333333333 [-]
	 SCS Opposite-Spin Scale   =       1.2000000000000000 [-]
	 SCS Same-Spin Energy      =      -0.0677610885438089 [Eh]
	 SCS Opposite-Spin Energy  =      -0.7848432110547947 [Eh]
	 SCS Correlation Energy    =      -0.8526042995986036 [Eh]
	 SCS Total Energy          =    -205.4669378514939240 [Eh]
	-----------------------------------------------------------

  Dipole Moment: [D]
     X:     0.0078      Y:     0.0133      Z:     0.0002     Total:     0.0154

*** Psi4 exiting successfully. Buy a developer a beer!
