                               Psi4 1.3.2 release

  ==> Input File <==

--------------------------------------------------------------------------
#psi4
#
memory 32 gb

molecule  {
1 1
  C        0.0002390     0.0000000     0.0000070
  N        1.3351690    -0.0037410     0.0000090
  N       -0.6645470     1.1579100     0.0000060
  N       -0.6710310    -1.1541680    -0.0000370
  H       -1.6782420    -1.2502375    -0.0000117
  H       -0.1917480    -2.0454120     0.0002210
  H        1.8634770    -0.8669560    -0.0001490
  H        1.8683040     0.8565010     0.0001050
  H       -0.1802750     2.0464480    -0.0001350
  H       -1.6758440     1.1891650     0.0001080
units angstrom
no_reorient  #important for SAPT in psi4, default
symmetry c1  #important for SAPT in psi4, default
}

set PROPERTIES_ORIGIN ["COM"]
properties('MP2/aug-cc-pvtz', properties = ['dipole'])
--------------------------------------------------------------------------

    Molecular point group: c1
  Charge       = 1
  Multiplicity = 1
  Basis Set: AUG-CC-PVTZ
    Blend: AUG-CC-PVTZ
  Basis Set: (AUG-CC-PVTZ AUX)
    Blend: AUG-CC-PVTZ-JKFIT

    Orbital Energies [Eh]
    ---------------------

    Doubly Occupied:

       1A    -15.799842     2A    -15.798997     3A    -15.798915
       4A    -11.612947     5A     -1.546674     6A     -1.399839
       7A     -1.399593     8A     -1.081665     9A     -0.984898
      10A     -0.979566    11A     -0.870039    12A     -0.867411
      13A     -0.861868    14A     -0.815655    15A     -0.631563
      16A     -0.631108

  @DF-RHF Final Energy:  -204.61345873858812

   => Energetics <=

    Nuclear Repulsion Energy =            133.1905363471784938
    One-Electron Energy =                -533.4468319020338640
    Two-Electron Energy =                 195.6428368162672200
    Total Energy =                       -204.6134587385881218
  Basis Set: (AUG-CC-PVTZ AUX)
    Blend: AUG-CC-PVTZ-RI
    Molecular point group: c1

    Geometry (in Angstrom), charge = 1, multiplicity = 1:

       Center              X                  Y                   Z               Mass
    ------------   -----------------  -----------------  -----------------  -----------------
         C            0.000191425767     0.001182710995     0.000008410104    12.000000000000
         N            1.335121425767    -0.002558289005     0.000010410104    14.003074004430
         N           -0.664594574233     1.159092710995     0.000007410104    14.003074004430
         N           -0.671078574233    -1.152985289005    -0.000035589896    14.003074004430
         H           -1.678289574233    -1.249054789005    -0.000010289896     1.007825032230
         H           -0.191795574233    -2.044229289005     0.000222410104     1.007825032230
         H            1.863429425767    -0.865773289005    -0.000147589896     1.007825032230
         H            1.868256425767     0.857683710995     0.000106410104     1.007825032230
         H           -0.180322574233     2.047630710995    -0.000133589896     1.007825032230
         H           -1.675891574233     1.190347710995     0.000109410104     1.007825032230

  Basis Set: AUG-CC-PVTZ
    Blend: AUG-CC-PVTZ
  Basis Set: (AUG-CC-PVTZ AUX)
    Blend: AUG-CC-PVTZ-JKFIT
	 Reference Energy          =    -204.6134587385881218 [Eh]
	 Singles Energy            =      -0.0000000000000000 [Eh]
	 Same-Spin Energy          =      -0.2033008650709032 [Eh]
	 Opposite-Spin Energy      =      -0.6541398363049606 [Eh]
	 Correlation Energy        =      -0.8574407013758638 [Eh]
	 Total Energy              =    -205.4708994399639721 [Eh]

	 ================> DF-SCS-MP2 Energies <==================
	-----------------------------------------------------------
	 SCS Same-Spin Scale       =       0.3333333333333333 [-]
	 SCS Opposite-Spin Scale   =       1.2000000000000000 [-]
	 SCS Same-Spin Energy      =      -0.0677669550236344 [Eh]
	 SCS Opposite-Spin Energy  =      -0.7849678035659527 [Eh]
	 SCS Correlation Energy    =      -0.8527347585895871 [Eh]
	 SCS Total Energy          =    -205.4661934971776986 [Eh]
	-----------------------------------------------------------

  Dipole Moment: [D]
     X:    -0.0076      Y:    -0.0541      Z:     0.0003     Total:     0.0546

*** Psi4 exiting successfully. Buy a developer a beer!
