                               Psi4 1.4a3.dev225

  ==> Input File <==

--------------------------------------------------------------------------
#psi4
#
memory 32 gb

molecule  {
1 1
  C       -0.0000020     0.0000000     0.0000000
  N       -1.2796650    -0.3796360    -0.0000120
  N        0.9686130    -0.9183980     0.0000200
  N        0.3110580     1.2980380    -0.0000090
  H        1.2915803     1.6316043     0.2361558
  H       -0.3777690     2.0048910    -0.2249800
  H       -2.0221380     0.2706160     0.2250260
  H       -1.5474000    -1.3296080    -0.2249710
  H        0.7767000    -1.8865410     0.2249670
  H        1.9251530    -0.6752950    -0.2250740
units angstrom
no_reorient  #important for SAPT in psi4, default
symmetry c1  #important for SAPT in psi4, default
}

set PROPERTIES_ORIGIN ["COM"]
properties('MP2/aug-cc-pvtz', properties = ['dipole'])
--------------------------------------------------------------------------

    Molecular point group: c1
  Charge       = 1
  Multiplicity = 1
  Basis Set: AUG-CC-PVTZ
    Blend: AUG-CC-PVTZ
  Basis Set: (AUG-CC-PVTZ AUX)
    Blend: AUG-CC-PVTZ-JKFIT

    Orbital Energies [Eh]
    ---------------------

    Doubly Occupied:

       1A    -15.802536     2A    -15.798638     3A    -15.798481
       4A    -11.610268     5A     -1.545075     6A     -1.398898
       7A     -1.394040     8A     -1.074268     9A     -0.979329
      10A     -0.974285    11A     -0.882238    12A     -0.866786
      13A     -0.860735    14A     -0.790839    15A     -0.632704
      16A     -0.631645

  @DF-RHF Final Energy:  -204.60958099518771

   => Energetics <=

    Nuclear Repulsion Energy =            133.0240205440195496
    One-Electron Energy =                -533.1856697808833587
    Two-Electron Energy =                 195.5520682416760962
    Total Energy =                       -204.6095809951877129
  Basis Set: (AUG-CC-PVTZ AUX)
    Blend: AUG-CC-PVTZ-RI
    Molecular point group: c1

    Geometry (in Angstrom), charge = 1, multiplicity = 1:

       Center              X                  Y                   Z               Mass
    ------------   -----------------  -----------------  -----------------  -----------------
         C           -0.000777062021    -0.000263851472    -0.000186439472    12.000000000000
         N           -1.280440062021    -0.379899851472    -0.000198439472    14.003074004430
         N            0.967837937979    -0.918661851472    -0.000166439472    14.003074004430
         N            0.310282937979     1.297774148528    -0.000195439472    14.003074004430
         H            1.290805237979     1.631340448528     0.235969360528     1.007825032230
         H           -0.378544062021     2.004627148528    -0.225166439472     1.007825032230
         H           -2.022913062021     0.270352148528     0.224839560528     1.007825032230
         H           -1.548175062021    -1.329871851472    -0.225157439472     1.007825032230
         H            0.775924937979    -1.886804851472     0.224780560528     1.007825032230
         H            1.924377937979    -0.675558851472    -0.225260439472     1.007825032230

  Basis Set: AUG-CC-PVTZ
    Blend: AUG-CC-PVTZ
  Basis Set: (AUG-CC-PVTZ AUX)
    Blend: AUG-CC-PVTZ-JKFIT
	 Reference Energy          =    -204.6095809951877129 [Eh]
	 Singles Energy            =      -0.0000000000000000 [Eh]
	 Same-Spin Energy          =      -0.2039598567319819 [Eh]
	 Opposite-Spin Energy      =      -0.6555220170260849 [Eh]
	 Correlation Energy        =      -0.8594818737580667 [Eh]
	 Total Energy              =    -205.4690628689457697 [Eh]

	 ================> DF-SCS-MP2 Energies <==================
	-----------------------------------------------------------
	 SCS Same-Spin Scale       =       0.3333333333333333 [-]
	 SCS Opposite-Spin Scale   =       1.2000000000000000 [-]
	 SCS Same-Spin Energy      =      -0.0679866189106606 [Eh]
	 SCS Opposite-Spin Energy  =      -0.7866264204313019 [Eh]
	 SCS Correlation Energy    =      -0.8546130393419625 [Eh]
	 SCS Total Energy          =    -205.4641940345296689 [Eh]
	-----------------------------------------------------------

  Dipole Moment: [D]
     X:     0.0680      Y:     0.0480      Z:     0.0172     Total:     0.0850

*** Psi4 exiting successfully. Buy a developer a beer!
