                               Psi4 1.4a2.dev612

  ==> Input File <==

--------------------------------------------------------------------------
#psi4
#
memory 32 gb

molecule  {
0 1
  S        1.7618360    -1.1877300    -0.0001100
  N       -1.1892720    -1.1162850     0.0000840
  N        1.4363420     1.3812950    -0.0000570
  C       -0.6888070     0.1366280     0.0000400
  C        0.7702180     0.2369850    -0.0000350
  C       -1.4868030     1.2893490     0.0000580
  C       -2.8690220     1.1312400     0.0001290
  C       -3.4040470    -0.1590480     0.0001760
  C       -2.5262420    -1.2439110     0.0001500
  C        3.1506810    -0.1849920    -0.0001670
  C        2.7828300     1.1426020    -0.0001250
  H       -1.0124600     2.2659460     0.0000190
  H       -3.5213850     2.0011240     0.0001460
  H       -4.4778440    -0.3237170     0.0002310
  H       -2.9027010    -2.2653680     0.0001840
  H        4.1496320    -0.6018500    -0.0002240
  H        3.4730549     1.9793643     0.0998540
units angstrom
no_reorient  #important for SAPT in psi4, default
symmetry c1  #important for SAPT in psi4, default
}

set PROPERTIES_ORIGIN ["COM"]
properties('MP2/aug-cc-pvtz', properties = ['dipole'])
--------------------------------------------------------------------------

    Molecular point group: c1
  Charge       = 0
  Multiplicity = 1
  Basis Set: AUG-CC-PVTZ
    Blend: AUG-CC-PVTZ
  Basis Set: (AUG-CC-PVTZ AUX)
    Blend: AUG-CC-PVTZ-JKFIT

    Orbital Energies [Eh]
    ---------------------

    Doubly Occupied:

       1A    -91.995773     2A    -15.578952     3A    -15.574375
       4A    -11.313840     5A    -11.297456     6A    -11.285519
       7A    -11.270510     8A    -11.267604     9A    -11.265218
      10A    -11.251409    11A    -11.249986    12A     -8.995801
      13A     -6.676567    14A     -6.676018    15A     -6.675353
      16A     -1.287552    17A     -1.260320    18A     -1.096579
      19A     -1.068476    20A     -1.062364    21A     -0.986373
      22A     -0.876957    23A     -0.869273    24A     -0.790709
      25A     -0.766355    26A     -0.707225    27A     -0.679657
      28A     -0.669014    29A     -0.639439    30A     -0.593780
      31A     -0.587866    32A     -0.581111    33A     -0.558507
      34A     -0.536078    35A     -0.529362    36A     -0.502571
      37A     -0.444255    38A     -0.424726    39A     -0.398877
      40A     -0.392577    41A     -0.371472    42A     -0.307109

  @DF-RHF Final Energy:  -813.00884309495632

   => Energetics <=

    Nuclear Repulsion Energy =            626.9367535235920741
    One-Electron Energy =               -2357.1652655754828629
    Two-Electron Energy =                 917.2196689569345835
    Total Energy =                       -813.0088430949563190
  Basis Set: (AUG-CC-PVTZ AUX)
    Blend: AUG-CC-PVTZ-RI
    Molecular point group: c1

    Geometry (in Angstrom), charge = 0, multiplicity = 1:

       Center              X                  Y                   Z               Mass
    ------------   -----------------  -----------------  -----------------  -----------------
         S            1.735854260959    -1.169229239994    -0.000730689378    31.972071174400
         N           -1.215253739041    -1.097784239994    -0.000536689378    14.003074004430
         N            1.410360260959     1.399795760006    -0.000677689378    14.003074004430
         C           -0.714788739041     0.155128760006    -0.000580689378    12.000000000000
         C            0.744236260959     0.255485760006    -0.000655689378    12.000000000000
         C           -1.512784739041     1.307849760006    -0.000562689378    12.000000000000
         C           -2.895003739041     1.149740760006    -0.000491689378    12.000000000000
         C           -3.430028739041    -0.140547239994    -0.000444689378    12.000000000000
         C           -2.552223739041    -1.225410239994    -0.000470689378    12.000000000000
         C            3.124699260959    -0.166491239994    -0.000787689378    12.000000000000
         C            2.756848260959     1.161102760006    -0.000745689378    12.000000000000
         H           -1.038441739041     2.284446760006    -0.000601689378     1.007825032230
         H           -3.547366739041     2.019624760006    -0.000474689378     1.007825032230
         H           -4.503825739041    -0.305216239994    -0.000389689378     1.007825032230
         H           -2.928682739041    -2.246867239994    -0.000436689378     1.007825032230
         H            4.123650260959    -0.583349239994    -0.000844689378     1.007825032230
         H            3.447073160959     1.997865060006     0.099233310622     1.007825032230

  Basis Set: AUG-CC-PVTZ
    Blend: AUG-CC-PVTZ
  Basis Set: (AUG-CC-PVTZ AUX)
    Blend: AUG-CC-PVTZ-JKFIT
	 Reference Energy          =    -813.0088430949563190 [Eh]
	 Singles Energy            =      -0.0000000000000000 [Eh]
	 Same-Spin Energy          =      -0.5253805669684669 [Eh]
	 Opposite-Spin Energy      =      -1.5537023866427018 [Eh]
	 Correlation Energy        =      -2.0790829536111688 [Eh]
	 Total Energy              =    -815.0879260485675104 [Eh]

	 ================> DF-SCS-MP2 Energies <==================
	-----------------------------------------------------------
	 SCS Same-Spin Scale       =       0.3333333333333333 [-]
	 SCS Opposite-Spin Scale   =       1.2000000000000000 [-]
	 SCS Same-Spin Energy      =      -0.1751268556561556 [Eh]
	 SCS Opposite-Spin Energy  =      -1.8644428639712420 [Eh]
	 SCS Correlation Energy    =      -2.0395697196273979 [Eh]
	 SCS Total Energy          =    -815.0484128145836848 [Eh]
	-----------------------------------------------------------

  Dipole Moment: [D]
     X:    -0.8070      Y:     0.1888      Z:     0.0735     Total:     0.8320

*** Psi4 exiting successfully. Buy a developer a beer!
