                               Psi4 1.4a2.dev612

  ==> Input File <==

--------------------------------------------------------------------------
#psi4
#
memory 32 gb

molecule  {
0 1
  S        1.7618360    -1.1877300    -0.0001100
  N       -1.1892720    -1.1162850     0.0000840
  N        1.4363420     1.3812950    -0.0000570
  C       -0.6888070     0.1366280     0.0000400
  C        0.7702180     0.2369850    -0.0000350
  C       -1.4868030     1.2893490     0.0000580
  C       -2.8690220     1.1312400     0.0001290
  C       -3.4040470    -0.1590480     0.0001760
  C       -2.5262420    -1.2439110     0.0001500
  C        3.1506810    -0.1849920    -0.0001670
  C        2.7828300     1.1426020    -0.0001250
  H       -1.0124673     2.2659434    -0.1499810
  H       -3.5213850     2.0011240     0.0001460
  H       -4.4778440    -0.3237170     0.0002310
  H       -2.9027010    -2.2653680     0.0001840
  H        4.1496320    -0.6018500    -0.0002240
  H        3.4730500     1.9793660    -0.0001460
units angstrom
no_reorient  #important for SAPT in psi4, default
symmetry c1  #important for SAPT in psi4, default
}

set PROPERTIES_ORIGIN ["COM"]
properties('MP2/aug-cc-pvtz', properties = ['dipole'])
--------------------------------------------------------------------------

    Molecular point group: c1
  Charge       = 0
  Multiplicity = 1
  Basis Set: AUG-CC-PVTZ
    Blend: AUG-CC-PVTZ
  Basis Set: (AUG-CC-PVTZ AUX)
    Blend: AUG-CC-PVTZ-JKFIT

    Orbital Energies [Eh]
    ---------------------

    Doubly Occupied:

       1A    -91.995713     2A    -15.578971     3A    -15.574327
       4A    -11.313760     5A    -11.297576     6A    -11.285668
       7A    -11.270121     8A    -11.267696     9A    -11.265104
      10A    -11.251407    11A    -11.250765    12A     -8.995740
      13A     -6.676507    14A     -6.675958    15A     -6.675292
      16A     -1.287526    17A     -1.260348    18A     -1.096495
      19A     -1.068386    20A     -1.062288    21A     -0.986425
      22A     -0.877007    23A     -0.868817    24A     -0.790836
      25A     -0.766527    26A     -0.706892    27A     -0.679454
      28A     -0.668935    29A     -0.638647    30A     -0.593573
      31A     -0.587807    32A     -0.581148    33A     -0.558416
      34A     -0.536490    35A     -0.528274    36A     -0.502845
      37A     -0.444228    38A     -0.424715    39A     -0.398883
      40A     -0.392375    41A     -0.371356    42A     -0.307084

  @DF-RHF Final Energy:  -813.00797042741317

   => Energetics <=

    Nuclear Repulsion Energy =            626.9107974917834554
    One-Electron Energy =               -2357.1167730261231554
    Two-Electron Energy =                 917.1980051069266437
    Total Energy =                       -813.0079704274131700
  Basis Set: (AUG-CC-PVTZ AUX)
    Blend: AUG-CC-PVTZ-RI
    Molecular point group: c1

    Geometry (in Angstrom), charge = 0, multiplicity = 1:

       Center              X                  Y                   Z               Mass
    ------------   -----------------  -----------------  -----------------  -----------------
         S            1.735854336845    -1.169229234396     0.000824354563    31.972071174400
         N           -1.215253663155    -1.097784234396     0.001018354563    14.003074004430
         N            1.410360336845     1.399795765604     0.000877354563    14.003074004430
         C           -0.714788663155     0.155128765604     0.000974354563    12.000000000000
         C            0.744236336845     0.255485765604     0.000899354563    12.000000000000
         C           -1.512784663155     1.307849765604     0.000992354563    12.000000000000
         C           -2.895003663155     1.149740765604     0.001063354563    12.000000000000
         C           -3.430028663155    -0.140547234396     0.001110354563    12.000000000000
         C           -2.552223663155    -1.225410234396     0.001084354563    12.000000000000
         C            3.124699336845    -0.166491234396     0.000767354563    12.000000000000
         C            2.756848336845     1.161102765604     0.000809354563    12.000000000000
         H           -1.038448963155     2.284444165604    -0.149046645437     1.007825032230
         H           -3.547366663155     2.019624765604     0.001080354563     1.007825032230
         H           -4.503825663155    -0.305216234396     0.001165354563     1.007825032230
         H           -2.928682663155    -2.246867234396     0.001118354563     1.007825032230
         H            4.123650336845    -0.583349234396     0.000710354563     1.007825032230
         H            3.447068336845     1.997866765604     0.000788354563     1.007825032230

  Basis Set: AUG-CC-PVTZ
    Blend: AUG-CC-PVTZ
  Basis Set: (AUG-CC-PVTZ AUX)
    Blend: AUG-CC-PVTZ-JKFIT
	 Reference Energy          =    -813.0079704274131700 [Eh]
	 Singles Energy            =      -0.0000000000000000 [Eh]
	 Same-Spin Energy          =      -0.5254248215109737 [Eh]
	 Opposite-Spin Energy      =      -1.5537269505990783 [Eh]
	 Correlation Energy        =      -2.0791517721100519 [Eh]
	 Total Energy              =    -815.0871221995232645 [Eh]

	 ================> DF-SCS-MP2 Energies <==================
	-----------------------------------------------------------
	 SCS Same-Spin Scale       =       0.3333333333333333 [-]
	 SCS Opposite-Spin Scale   =       1.2000000000000000 [-]
	 SCS Same-Spin Energy      =      -0.1751416071703246 [Eh]
	 SCS Opposite-Spin Energy  =      -1.8644723407188939 [Eh]
	 SCS Correlation Energy    =      -2.0396139478892183 [Eh]
	 SCS Total Energy          =    -815.0475843753023355 [Eh]
	-----------------------------------------------------------

  Dipole Moment: [D]
     X:    -0.8036      Y:     0.1838      Z:    -0.0887     Total:     0.8291

*** Psi4 exiting successfully. Buy a developer a beer!
