                               Psi4 1.4a2.dev612

  ==> Input File <==

--------------------------------------------------------------------------
#psi4
#
memory 32 gb

molecule  {
0 1
  S        1.7618360    -1.1877300    -0.0001100
  N       -1.1892720    -1.1162850     0.0000840
  N        1.4363420     1.3812950    -0.0000570
  C       -0.6888070     0.1366280     0.0000400
  C        0.7702180     0.2369850    -0.0000350
  C       -1.4868030     1.2893490     0.0000580
  C       -2.8690220     1.1312400     0.0001290
  C       -3.4040470    -0.1590480     0.0001760
  C       -2.5262420    -1.2439110     0.0001500
  C        3.1506810    -0.1849920    -0.0001670
  C        2.7828300     1.1426020    -0.0001250
  H       -1.0124600     2.2659460     0.0000190
  H       -3.5213850     2.0011240     0.0001460
  H       -4.4778440    -0.3237170     0.0002310
  H       -2.9027010    -2.2653680     0.0001840
  H        4.1496268    -0.6018484    -0.1002240
  H        3.4730500     1.9793660    -0.0001460
units angstrom
no_reorient  #important for SAPT in psi4, default
symmetry c1  #important for SAPT in psi4, default
}

set PROPERTIES_ORIGIN ["COM"]
properties('MP2/aug-cc-pvtz', properties = ['dipole'])
--------------------------------------------------------------------------

    Molecular point group: c1
  Charge       = 0
  Multiplicity = 1
  Basis Set: AUG-CC-PVTZ
    Blend: AUG-CC-PVTZ
  Basis Set: (AUG-CC-PVTZ AUX)
    Blend: AUG-CC-PVTZ-JKFIT

    Orbital Energies [Eh]
    ---------------------

    Doubly Occupied:

       1A    -91.995667     2A    -15.578974     3A    -15.574378
       4A    -11.313902     5A    -11.297464     6A    -11.285535
       7A    -11.270288     8A    -11.267622     9A    -11.265361
      10A    -11.251440    11A    -11.250018    12A     -8.995698
      13A     -6.676465    14A     -6.675913    15A     -6.675249
      16A     -1.287576    17A     -1.260344    18A     -1.096599
      19A     -1.068447    20A     -1.062269    21A     -0.986481
      22A     -0.876987    23A     -0.869300    24A     -0.790417
      25A     -0.766584    26A     -0.706974    27A     -0.679923
      28A     -0.668827    29A     -0.639630    30A     -0.593839
      31A     -0.587817    32A     -0.581493    33A     -0.558080
      34A     -0.535953    35A     -0.529199    36A     -0.502896
      37A     -0.444269    38A     -0.424728    39A     -0.398831
      40A     -0.392563    41A     -0.371543    42A     -0.307125

  @DF-RHF Final Energy:  -813.00894180392504

   => Energetics <=

    Nuclear Repulsion Energy =            626.9364512651305859
    One-Electron Energy =               -2357.1654522508688387
    Two-Electron Energy =                 917.2200591818133262
    Total Energy =                       -813.0089418039250404
  Basis Set: (AUG-CC-PVTZ AUX)
    Blend: AUG-CC-PVTZ-RI
    Molecular point group: c1

    Geometry (in Angstrom), charge = 0, multiplicity = 1:

       Center              X                  Y                   Z               Mass
    ------------   -----------------  -----------------  -----------------  -----------------
         S            1.735854323783    -1.169229260521     0.000513345775    31.972071174400
         N           -1.215253676217    -1.097784260521     0.000707345775    14.003074004430
         N            1.410360323783     1.399795739479     0.000566345775    14.003074004430
         C           -0.714788676217     0.155128739479     0.000663345775    12.000000000000
         C            0.744236323783     0.255485739479     0.000588345775    12.000000000000
         C           -1.512784676217     1.307849739479     0.000681345775    12.000000000000
         C           -2.895003676217     1.149740739479     0.000752345775    12.000000000000
         C           -3.430028676217    -0.140547260521     0.000799345775    12.000000000000
         C           -2.552223676217    -1.225410260521     0.000773345775    12.000000000000
         C            3.124699323783    -0.166491260521     0.000456345775    12.000000000000
         C            2.756848323783     1.161102739479     0.000498345775    12.000000000000
         H           -1.038441676217     2.284446739479     0.000642345775     1.007825032230
         H           -3.547366676217     2.019624739479     0.000769345775     1.007825032230
         H           -4.503825676217    -0.305216260521     0.000854345775     1.007825032230
         H           -2.928682676217    -2.246867260521     0.000807345775     1.007825032230
         H            4.123645123783    -0.583347660521    -0.099600654225     1.007825032230
         H            3.447068323783     1.997866739479     0.000477345775     1.007825032230

  Basis Set: AUG-CC-PVTZ
    Blend: AUG-CC-PVTZ
  Basis Set: (AUG-CC-PVTZ AUX)
    Blend: AUG-CC-PVTZ-JKFIT
	 Reference Energy          =    -813.0089418039250404 [Eh]
	 Singles Energy            =      -0.0000000000000000 [Eh]
	 Same-Spin Energy          =      -0.5253770442009590 [Eh]
	 Opposite-Spin Energy      =      -1.5536928357582780 [Eh]
	 Correlation Energy        =      -2.0790698799592371 [Eh]
	 Total Energy              =    -815.0880116838842468 [Eh]

	 ================> DF-SCS-MP2 Energies <==================
	-----------------------------------------------------------
	 SCS Same-Spin Scale       =       0.3333333333333333 [-]
	 SCS Opposite-Spin Scale   =       1.2000000000000000 [-]
	 SCS Same-Spin Energy      =      -0.1751256814003196 [Eh]
	 SCS Opposite-Spin Energy  =      -1.8644314029099336 [Eh]
	 SCS Correlation Energy    =      -2.0395570843102533 [Eh]
	 SCS Total Energy          =    -815.0484988882352582 [Eh]
	-----------------------------------------------------------

  Dipole Moment: [D]
     X:    -0.8074      Y:     0.1985      Z:    -0.0795     Total:     0.8352

*** Psi4 exiting successfully. Buy a developer a beer!
