                               Psi4 1.4a2.dev612

  ==> Input File <==

--------------------------------------------------------------------------
#psi4
#
memory 32 gb

molecule  {
0 1
  S        1.7618360    -1.1877300    -0.0001100
  N       -1.1892720    -1.1162850     0.0000840
  N        1.4363420     1.3812950    -0.0000570
  C       -0.6888070     0.1366280     0.0000400
  C        0.7702180     0.2369850    -0.0000350
  C       -1.4868030     1.2893490     0.0000580
  C       -2.8690220     1.1312400     0.0001290
  C       -3.4040470    -0.1590480     0.0001760
  C       -2.5262420    -1.2439110     0.0001500
  C        3.1506810    -0.1849920    -0.0001670
  C        2.7828300     1.1426020    -0.0001250
  H       -1.0124624     2.2659451    -0.0499810
  H       -3.5213850     2.0011240     0.0001460
  H       -4.4778440    -0.3237170     0.0002310
  H       -2.9027010    -2.2653680     0.0001840
  H        4.1496320    -0.6018500    -0.0002240
  H        3.4730500     1.9793660    -0.0001460
units angstrom
no_reorient  #important for SAPT in psi4, default
symmetry c1  #important for SAPT in psi4, default
}

set PROPERTIES_ORIGIN ["COM"]
properties('MP2/aug-cc-pvtz', properties = ['dipole'])
--------------------------------------------------------------------------

    Molecular point group: c1
  Charge       = 0
  Multiplicity = 1
  Basis Set: AUG-CC-PVTZ
    Blend: AUG-CC-PVTZ
  Basis Set: (AUG-CC-PVTZ AUX)
    Blend: AUG-CC-PVTZ-JKFIT

    Orbital Energies [Eh]
    ---------------------

    Doubly Occupied:

       1A    -91.995706     2A    -15.578929     3A    -15.574342
       4A    -11.313796     5A    -11.297449     6A    -11.285517
       7A    -11.270136     8A    -11.267597     9A    -11.265083
      10A    -11.251389    11A    -11.250053    12A     -8.995732
      13A     -6.676500    14A     -6.675951    15A     -6.675285
      16A     -1.287520    17A     -1.260300    18A     -1.096549
      19A     -1.068450    20A     -1.062312    21A     -0.986483
      22A     -0.877001    23A     -0.869217    24A     -0.790836
      25A     -0.766598    26A     -0.707172    27A     -0.679943
      28A     -0.668978    29A     -0.639519    30A     -0.593784
      31A     -0.587766    32A     -0.581439    33A     -0.558455
      34A     -0.536088    35A     -0.529219    36A     -0.502897
      37A     -0.444235    38A     -0.424697    39A     -0.398862
      40A     -0.392537    41A     -0.371493    42A     -0.307084

  @DF-RHF Final Energy:  -813.00929620867134

   => Energetics <=

    Nuclear Repulsion Energy =            626.9497645766654159
    One-Electron Energy =               -2357.1923214150506283
    Two-Electron Energy =                 917.2332606297137545
    Total Energy =                       -813.0092962086713442
  Basis Set: (AUG-CC-PVTZ AUX)
    Blend: AUG-CC-PVTZ-RI
    Molecular point group: c1

    Geometry (in Angstrom), charge = 0, multiplicity = 1:

       Center              X                  Y                   Z               Mass
    ------------   -----------------  -----------------  -----------------  -----------------
         S            1.735854306366    -1.169229244970     0.000202336987    31.972071174400
         N           -1.215253693634    -1.097784244970     0.000396336987    14.003074004430
         N            1.410360306366     1.399795755030     0.000255336987    14.003074004430
         C           -0.714788693634     0.155128755030     0.000352336987    12.000000000000
         C            0.744236306366     0.255485755030     0.000277336987    12.000000000000
         C           -1.512784693634     1.307849755030     0.000370336987    12.000000000000
         C           -2.895003693634     1.149740755030     0.000441336987    12.000000000000
         C           -3.430028693634    -0.140547244970     0.000488336987    12.000000000000
         C           -2.552223693634    -1.225410244970     0.000462336987    12.000000000000
         C            3.124699306366    -0.166491244970     0.000145336987    12.000000000000
         C            2.756848306366     1.161102755030     0.000187336987    12.000000000000
         H           -1.038444093634     2.284445855030    -0.049668663013     1.007825032230
         H           -3.547366693634     2.019624755030     0.000458336987     1.007825032230
         H           -4.503825693634    -0.305216244970     0.000543336987     1.007825032230
         H           -2.928682693634    -2.246867244970     0.000496336987     1.007825032230
         H            4.123650306366    -0.583349244970     0.000088336987     1.007825032230
         H            3.447068306366     1.997866755030     0.000166336987     1.007825032230

  Basis Set: AUG-CC-PVTZ
    Blend: AUG-CC-PVTZ
  Basis Set: (AUG-CC-PVTZ AUX)
    Blend: AUG-CC-PVTZ-JKFIT
	 Reference Energy          =    -813.0092962086713442 [Eh]
	 Singles Energy            =      -0.0000000000000000 [Eh]
	 Same-Spin Energy          =      -0.5253539377755875 [Eh]
	 Opposite-Spin Energy      =      -1.5536416048386947 [Eh]
	 Correlation Energy        =      -2.0789955426142823 [Eh]
	 Total Energy              =    -815.0882917512856238 [Eh]

	 ================> DF-SCS-MP2 Energies <==================
	-----------------------------------------------------------
	 SCS Same-Spin Scale       =       0.3333333333333333 [-]
	 SCS Opposite-Spin Scale   =       1.2000000000000000 [-]
	 SCS Same-Spin Energy      =      -0.1751179792585291 [Eh]
	 SCS Opposite-Spin Energy  =      -1.8643699258064337 [Eh]
	 SCS Correlation Energy    =      -2.0394879050649628 [Eh]
	 SCS Total Energy          =    -815.0487841137363603 [Eh]
	-----------------------------------------------------------

  Dipole Moment: [D]
     X:    -0.7998      Y:     0.1936      Z:    -0.0296     Total:     0.8234

*** Psi4 exiting successfully. Buy a developer a beer!
