                               Psi4 1.4a2.dev612

  ==> Input File <==

--------------------------------------------------------------------------
#psi4
#
memory 32 gb

molecule  {
0 1
  S        1.7618360    -1.1877300    -0.0001100
  N       -1.1892720    -1.1162850     0.0000840
  N        1.4363420     1.3812950    -0.0000570
  C       -0.6888070     0.1366280     0.0000400
  C        0.7702180     0.2369850    -0.0000350
  C       -1.4867907     1.2893532     0.2500580
  C       -2.8690220     1.1312400     0.0001290
  C       -3.4040470    -0.1590480     0.0001760
  C       -2.5262420    -1.2439110     0.0001500
  C        3.1506810    -0.1849920    -0.0001670
  C        2.7828300     1.1426020    -0.0001250
  H       -1.0124600     2.2659460     0.0000190
  H       -3.5213850     2.0011240     0.0001460
  H       -4.4778440    -0.3237170     0.0002310
  H       -2.9027010    -2.2653680     0.0001840
  H        4.1496320    -0.6018500    -0.0002240
  H        3.4730500     1.9793660    -0.0001460
units angstrom
no_reorient  #important for SAPT in psi4, default
symmetry c1  #important for SAPT in psi4, default
}

set PROPERTIES_ORIGIN ["COM"]
properties('MP2/aug-cc-pvtz', properties = ['dipole'])
--------------------------------------------------------------------------

    Molecular point group: c1
  Charge       = 0
  Multiplicity = 1
  Basis Set: AUG-CC-PVTZ
    Blend: AUG-CC-PVTZ
  Basis Set: (AUG-CC-PVTZ AUX)
    Blend: AUG-CC-PVTZ-JKFIT

    Orbital Energies [Eh]
    ---------------------

    Doubly Occupied:

       1A    -91.996383     2A    -15.578025     3A    -15.575251
       4A    -11.313874     5A    -11.302276     6A    -11.288139
       7A    -11.272055     8A    -11.270605     9A    -11.266017
      10A    -11.254252    11A    -11.250189    12A     -8.996402
      13A     -6.677164    14A     -6.676615    15A     -6.675952
      16A     -1.287684    17A     -1.260280    18A     -1.093615
      19A     -1.067580    20A     -1.062035    21A     -0.985777
      22A     -0.874889    23A     -0.867492    24A     -0.791118
      25A     -0.765558    26A     -0.705938    27A     -0.677975
      28A     -0.664225    29A     -0.634871    30A     -0.592261
      31A     -0.587655    32A     -0.579345    33A     -0.557600
      34A     -0.536101    35A     -0.523653    36A     -0.502973
      37A     -0.444378    38A     -0.424590    39A     -0.396099
      40A     -0.391931    41A     -0.370895    42A     -0.307730

  @DF-RHF Final Energy:  -812.99022382926285

   => Energetics <=

    Nuclear Repulsion Energy =            626.2162443253412221
    One-Electron Energy =               -2355.7180431375709304
    Two-Electron Energy =                 916.5115749829668630
    Total Energy =                       -812.9902238292628454
  Basis Set: (AUG-CC-PVTZ AUX)
    Blend: AUG-CC-PVTZ-RI
    Molecular point group: c1

    Geometry (in Angstrom), charge = 0, multiplicity = 1:

       Center              X                  Y                   Z               Mass
    ------------   -----------------  -----------------  -----------------  -----------------
         S            1.735853380468    -1.169229561631    -0.018624313609    31.972071174400
         N           -1.215254619532    -1.097784561631    -0.018430313609    14.003074004430
         N            1.410359380468     1.399795438369    -0.018571313609    14.003074004430
         C           -0.714789619532     0.155128438369    -0.018474313609    12.000000000000
         C            0.744235380468     0.255485438369    -0.018549313609    12.000000000000
         C           -1.512773319532     1.307853638369     0.231543686391    12.000000000000
         C           -2.895004619532     1.149740438369    -0.018385313609    12.000000000000
         C           -3.430029619532    -0.140547561631    -0.018338313609    12.000000000000
         C           -2.552224619532    -1.225410561631    -0.018364313609    12.000000000000
         C            3.124698380468    -0.166491561631    -0.018681313609    12.000000000000
         C            2.756847380468     1.161102438369    -0.018639313609    12.000000000000
         H           -1.038442619532     2.284446438369    -0.018495313609     1.007825032230
         H           -3.547367619532     2.019624438369    -0.018368313609     1.007825032230
         H           -4.503826619532    -0.305216561631    -0.018283313609     1.007825032230
         H           -2.928683619532    -2.246867561631    -0.018330313609     1.007825032230
         H            4.123649380468    -0.583349561631    -0.018738313609     1.007825032230
         H            3.447067380468     1.997866438369    -0.018660313609     1.007825032230

  Basis Set: AUG-CC-PVTZ
    Blend: AUG-CC-PVTZ
  Basis Set: (AUG-CC-PVTZ AUX)
    Blend: AUG-CC-PVTZ-JKFIT
	 Reference Energy          =    -812.9902238292628454 [Eh]
	 Singles Energy            =      -0.0000000000000000 [Eh]
	 Same-Spin Energy          =      -0.5261234498337616 [Eh]
	 Opposite-Spin Energy      =      -1.5555057738721789 [Eh]
	 Correlation Energy        =      -2.0816292237059404 [Eh]
	 Total Energy              =    -815.0718530529687769 [Eh]

	 ================> DF-SCS-MP2 Energies <==================
	-----------------------------------------------------------
	 SCS Same-Spin Scale       =       0.3333333333333333 [-]
	 SCS Opposite-Spin Scale   =       1.2000000000000000 [-]
	 SCS Same-Spin Energy      =      -0.1753744832779205 [Eh]
	 SCS Opposite-Spin Energy  =      -1.8666069286466147 [Eh]
	 SCS Correlation Energy    =      -2.0419814119245352 [Eh]
	 SCS Total Energy          =    -815.0322052411873983 [Eh]
	-----------------------------------------------------------

  Dipole Moment: [D]
     X:    -0.7879      Y:     0.0953      Z:    -0.0724     Total:     0.7970

*** Psi4 exiting successfully. Buy a developer a beer!
