                               Psi4 1.4a2.dev612

  ==> Input File <==

--------------------------------------------------------------------------
#psi4
#
memory 32 gb

molecule  {
0 1
  S        1.7618360    -1.1877300    -0.0001100
  N       -1.1892720    -1.1162850     0.0000840
  N        1.4363420     1.3812950    -0.0000570
  C       -0.6888070     0.1366280     0.0000400
  C        0.7702180     0.2369850    -0.0000350
  C       -1.4868030     1.2893490     0.0000580
  C       -2.8690220     1.1312400     0.0001290
  C       -3.4040470    -0.1590480     0.0001760
  C       -2.5262420    -1.2439110     0.0001500
  C        3.1506810    -0.1849920    -0.0001670
  C        2.7828300     1.1426020    -0.0001250
  H       -1.0124600     2.2659460     0.0000190
  H       -3.5213850     2.0011240     0.0001460
  H       -4.4778440    -0.3237170     0.0002310
  H       -2.9027010    -2.2653680     0.0001840
  H        4.1496217    -0.6018468    -0.2002240
  H        3.4730500     1.9793660    -0.0001460
units angstrom
no_reorient  #important for SAPT in psi4, default
symmetry c1  #important for SAPT in psi4, default
}

set PROPERTIES_ORIGIN ["COM"]
properties('MP2/aug-cc-pvtz', properties = ['dipole'])
--------------------------------------------------------------------------

    Molecular point group: c1
  Charge       = 0
  Multiplicity = 1
  Basis Set: AUG-CC-PVTZ
    Blend: AUG-CC-PVTZ
  Basis Set: (AUG-CC-PVTZ AUX)
    Blend: AUG-CC-PVTZ-JKFIT

    Orbital Energies [Eh]
    ---------------------

    Doubly Occupied:

       1A    -91.995560     2A    -15.579123     3A    -15.574481
       4A    -11.314201     5A    -11.297559     6A    -11.285645
       7A    -11.270732     8A    -11.267735     9A    -11.266190
      10A    -11.251597    11A    -11.250178    12A     -8.995605
      13A     -6.676371    14A     -6.675812    15A     -6.675151
      16A     -1.287746    17A     -1.260492    18A     -1.096724
      19A     -1.068426    20A     -1.062128    21A     -0.986458
      22A     -0.876956    23A     -0.869393    24A     -0.789244
      25A     -0.766512    26A     -0.706313    27A     -0.679693
      28A     -0.668330    29A     -0.639635    30A     -0.593928
      31A     -0.587960    32A     -0.581552    33A     -0.556975
      34A     -0.535748    35A     -0.528696    36A     -0.502874
      37A     -0.444368    38A     -0.424829    39A     -0.398752
      40A     -0.392577    41A     -0.371639    42A     -0.307246

  @DF-RHF Final Energy:  -813.00727516996176

   => Energetics <=

    Nuclear Repulsion Energy =            626.8827598631113460
    One-Electron Energy =               -2357.0578034911300165
    Two-Electron Energy =                 917.1677684580567984
    Total Energy =                       -813.0072751699617584
  Basis Set: (AUG-CC-PVTZ AUX)
    Blend: AUG-CC-PVTZ-RI
    Molecular point group: c1

    Geometry (in Angstrom), charge = 0, multiplicity = 1:

       Center              X                  Y                   Z               Mass
    ------------   -----------------  -----------------  -----------------  -----------------
         S            1.735854355506    -1.169229270473     0.001135363352    31.972071174400
         N           -1.215253644494    -1.097784270473     0.001329363352    14.003074004430
         N            1.410360355506     1.399795729527     0.001188363352    14.003074004430
         C           -0.714788644494     0.155128729527     0.001285363352    12.000000000000
         C            0.744236355506     0.255485729527     0.001210363352    12.000000000000
         C           -1.512784644494     1.307849729527     0.001303363352    12.000000000000
         C           -2.895003644494     1.149740729527     0.001374363352    12.000000000000
         C           -3.430028644494    -0.140547270473     0.001421363352    12.000000000000
         C           -2.552223644494    -1.225410270473     0.001395363352    12.000000000000
         C            3.124699355506    -0.166491270473     0.001078363352    12.000000000000
         C            2.756848355506     1.161102729527     0.001120363352    12.000000000000
         H           -1.038441644494     2.284446729527     0.001264363352     1.007825032230
         H           -3.547366644494     2.019624729527     0.001391363352     1.007825032230
         H           -4.503825644494    -0.305216270473     0.001476363352     1.007825032230
         H           -2.928682644494    -2.246867270473     0.001429363352     1.007825032230
         H            4.123640055506    -0.583346070473    -0.198978636648     1.007825032230
         H            3.447068355506     1.997866729527     0.001099363352     1.007825032230

  Basis Set: AUG-CC-PVTZ
    Blend: AUG-CC-PVTZ
  Basis Set: (AUG-CC-PVTZ AUX)
    Blend: AUG-CC-PVTZ-JKFIT
	 Reference Energy          =    -813.0072751699617584 [Eh]
	 Singles Energy            =      -0.0000000000000000 [Eh]
	 Same-Spin Energy          =      -0.5254730769087126 [Eh]
	 Opposite-Spin Energy      =      -1.5538830012855027 [Eh]
	 Correlation Energy        =      -2.0793560781942153 [Eh]
	 Total Energy              =    -815.0866312481559817 [Eh]

	 ================> DF-SCS-MP2 Energies <==================
	-----------------------------------------------------------
	 SCS Same-Spin Scale       =       0.3333333333333333 [-]
	 SCS Opposite-Spin Scale   =       1.2000000000000000 [-]
	 SCS Same-Spin Energy      =      -0.1751576923029042 [Eh]
	 SCS Opposite-Spin Energy  =      -1.8646596015426031 [Eh]
	 SCS Correlation Energy    =      -2.0398172938455073 [Eh]
	 SCS Total Energy          =    -815.0470924638073029 [Eh]
	-----------------------------------------------------------

  Dipole Moment: [D]
     X:    -0.8311      Y:     0.2091      Z:    -0.1580     Total:     0.8714

*** Psi4 exiting successfully. Buy a developer a beer!
