                               Psi4 1.4a2.dev612

  ==> Input File <==

--------------------------------------------------------------------------
#psi4
#
memory 32 gb

molecule  {
0 1
  S        1.7618360    -1.1877300    -0.0001100
  N       -1.1892720    -1.1162850     0.0000840
  N        1.4363420     1.3812950    -0.0000570
  C       -0.6888070     0.1366280     0.0000400
  C        0.7702180     0.2369850    -0.0000350
  C       -1.4868030     1.2893490     0.0000580
  C       -2.8690220     1.1312400     0.0001290
  C       -3.4040470    -0.1590480     0.0001760
  C       -2.5262420    -1.2439110     0.0001500
  C        3.1506810    -0.1849920    -0.0001670
  C        2.7828300     1.1426020    -0.0001250
  H       -1.0124649     2.2659443    -0.0999810
  H       -3.5213850     2.0011240     0.0001460
  H       -4.4778440    -0.3237170     0.0002310
  H       -2.9027010    -2.2653680     0.0001840
  H        4.1496320    -0.6018500    -0.0002240
  H        3.4730500     1.9793660    -0.0001460
units angstrom
no_reorient  #important for SAPT in psi4, default
symmetry c1  #important for SAPT in psi4, default
}

set PROPERTIES_ORIGIN ["COM"]
properties('MP2/aug-cc-pvtz', properties = ['dipole'])
--------------------------------------------------------------------------

    Molecular point group: c1
  Charge       = 0
  Multiplicity = 1
  Basis Set: AUG-CC-PVTZ
    Blend: AUG-CC-PVTZ
  Basis Set: (AUG-CC-PVTZ AUX)
    Blend: AUG-CC-PVTZ-JKFIT

    Orbital Energies [Eh]
    ---------------------

    Doubly Occupied:

       1A    -91.995708     2A    -15.578945     3A    -15.574336
       4A    -11.313783     5A    -11.297496     6A    -11.285574
       7A    -11.270130     8A    -11.267633     9A    -11.265091
      10A    -11.251395    11A    -11.250321    12A     -8.995735
      13A     -6.676502    14A     -6.675953    15A     -6.675288
      16A     -1.287522    17A     -1.260318    18A     -1.096528
      19A     -1.068426    20A     -1.062303    21A     -0.986461
      22A     -0.877003    23A     -0.869065    24A     -0.790836
      25A     -0.766570    26A     -0.707063    27A     -0.679755
      28A     -0.668961    29A     -0.639191    30A     -0.593705
      31A     -0.587782    32A     -0.581330    33A     -0.558440
      34A     -0.536250    35A     -0.528854    36A     -0.502878
      37A     -0.444232    38A     -0.424704    39A     -0.398870
      40A     -0.392476    41A     -0.371441    42A     -0.307084

  @DF-RHF Final Energy:  -813.00880785327422

   => Energetics <=

    Nuclear Repulsion Energy =            626.9350717636932586
    One-Electron Energy =               -2357.1638804414578772
    Two-Electron Energy =                 917.2200008244903984
    Total Energy =                       -813.0088078532742202
  Basis Set: (AUG-CC-PVTZ AUX)
    Blend: AUG-CC-PVTZ-RI
    Molecular point group: c1

    Geometry (in Angstrom), charge = 0, multiplicity = 1:

       Center              X                  Y                   Z               Mass
    ------------   -----------------  -----------------  -----------------  -----------------
         S            1.735854321917    -1.169229239994     0.000513345775    31.972071174400
         N           -1.215253678083    -1.097784239994     0.000707345775    14.003074004430
         N            1.410360321917     1.399795760006     0.000566345775    14.003074004430
         C           -0.714788678083     0.155128760006     0.000663345775    12.000000000000
         C            0.744236321917     0.255485760006     0.000588345775    12.000000000000
         C           -1.512784678083     1.307849760006     0.000681345775    12.000000000000
         C           -2.895003678083     1.149740760006     0.000752345775    12.000000000000
         C           -3.430028678083    -0.140547239994     0.000799345775    12.000000000000
         C           -2.552223678083    -1.225410239994     0.000773345775    12.000000000000
         C            3.124699321917    -0.166491239994     0.000456345775    12.000000000000
         C            2.756848321917     1.161102760006     0.000498345775    12.000000000000
         H           -1.038446578083     2.284445060006    -0.099357654225     1.007825032230
         H           -3.547366678083     2.019624760006     0.000769345775     1.007825032230
         H           -4.503825678083    -0.305216239994     0.000854345775     1.007825032230
         H           -2.928682678083    -2.246867239994     0.000807345775     1.007825032230
         H            4.123650321917    -0.583349239994     0.000399345775     1.007825032230
         H            3.447068321917     1.997866760006     0.000477345775     1.007825032230

  Basis Set: AUG-CC-PVTZ
    Blend: AUG-CC-PVTZ
  Basis Set: (AUG-CC-PVTZ AUX)
    Blend: AUG-CC-PVTZ-JKFIT
	 Reference Energy          =    -813.0088078532742202 [Eh]
	 Singles Energy            =      -0.0000000000000000 [Eh]
	 Same-Spin Energy          =      -0.5253804083324084 [Eh]
	 Opposite-Spin Energy      =      -1.5536686530352162 [Eh]
	 Correlation Energy        =      -2.0790490613676247 [Eh]
	 Total Energy              =    -815.0878569146418613 [Eh]

	 ================> DF-SCS-MP2 Energies <==================
	-----------------------------------------------------------
	 SCS Same-Spin Scale       =       0.3333333333333333 [-]
	 SCS Opposite-Spin Scale   =       1.2000000000000000 [-]
	 SCS Same-Spin Energy      =      -0.1751268027774694 [Eh]
	 SCS Opposite-Spin Energy  =      -1.8644023836422594 [Eh]
	 SCS Correlation Energy    =      -2.0395291864197289 [Eh]
	 SCS Total Energy          =    -815.0483370396939335 [Eh]
	-----------------------------------------------------------

  Dipole Moment: [D]
     X:    -0.8012      Y:     0.1899      Z:    -0.0592     Total:     0.8256

*** Psi4 exiting successfully. Buy a developer a beer!
