                               Psi4 1.4a2.dev612

  ==> Input File <==

--------------------------------------------------------------------------
#psi4
#
memory 32 gb

molecule  {
0 1
  S        1.7618360    -1.1877300    -0.0001100
  N       -1.1892720    -1.1162850     0.0000840
  N        1.4363420     1.3812950    -0.0000570
  C       -0.6888070     0.1366280     0.0000400
  C        0.7702180     0.2369850    -0.0000350
  C       -1.4868030     1.2893490     0.0000580
  C       -2.8690220     1.1312400     0.0001290
  C       -3.4040470    -0.1590480     0.0001760
  C       -2.5262420    -1.2439110     0.0001500
  C        3.1506810    -0.1849920    -0.0001670
  C        2.7828300     1.1426020    -0.0001250
  H       -1.0124600     2.2659460     0.0000190
  H       -3.5213850     2.0011240     0.0001460
  H       -4.4778440    -0.3237170     0.0002310
  H       -2.9027010    -2.2653680     0.0001840
  H        4.1496320    -0.6018500    -0.0002240
  H        3.4730646     1.9793609     0.2998540
units angstrom
no_reorient  #important for SAPT in psi4, default
symmetry c1  #important for SAPT in psi4, default
}

set PROPERTIES_ORIGIN ["COM"]
properties('MP2/aug-cc-pvtz', properties = ['dipole'])
--------------------------------------------------------------------------

    Molecular point group: c1
  Charge       = 0
  Multiplicity = 1
  Basis Set: AUG-CC-PVTZ
    Blend: AUG-CC-PVTZ
  Basis Set: (AUG-CC-PVTZ AUX)
    Blend: AUG-CC-PVTZ-JKFIT

    Orbital Energies [Eh]
    ---------------------

    Doubly Occupied:

       1A    -91.996311     2A    -15.579172     3A    -15.574646
       4A    -11.314154     5A    -11.297645     6A    -11.285687
       7A    -11.273405     8A    -11.267762     9A    -11.266286
      10A    -11.251589    11A    -11.250167    12A     -8.996347
      13A     -6.677108    14A     -6.676561    15A     -6.675896
      16A     -1.287815    17A     -1.260530    18A     -1.096762
      19A     -1.068642    20A     -1.062744    21A     -0.985542
      22A     -0.876689    23A     -0.869312    24A     -0.789923
      25A     -0.764493    26A     -0.707380    27A     -0.677133
      28A     -0.669251    29A     -0.637955    30A     -0.593563
      31A     -0.588381    32A     -0.578454    33A     -0.558871
      34A     -0.536458    35A     -0.529509    36A     -0.499824
      37A     -0.444397    38A     -0.424985    39A     -0.399033
      40A     -0.392728    41A     -0.371180    42A     -0.307308

  @DF-RHF Final Energy:  -813.00331346149903

   => Energetics <=

    Nuclear Repulsion Energy =            626.7991209659082870
    One-Electron Energy =               -2356.8816717901199809
    Two-Electron Energy =                 917.0792373627126608
    Total Energy =                       -813.0033134614990331
  Basis Set: (AUG-CC-PVTZ AUX)
    Blend: AUG-CC-PVTZ-RI
    Molecular point group: c1

    Geometry (in Angstrom), charge = 0, multiplicity = 1:

       Center              X                  Y                   Z               Mass
    ------------   -----------------  -----------------  -----------------  -----------------
         S            1.735854200623    -1.169229218845    -0.001974724532    31.972071174400
         N           -1.215253799377    -1.097784218845    -0.001780724532    14.003074004430
         N            1.410360200623     1.399795781155    -0.001921724532    14.003074004430
         C           -0.714788799377     0.155128781155    -0.001824724532    12.000000000000
         C            0.744236200623     0.255485781155    -0.001899724532    12.000000000000
         C           -1.512784799377     1.307849781155    -0.001806724532    12.000000000000
         C           -2.895003799377     1.149740781155    -0.001735724532    12.000000000000
         C           -3.430028799377    -0.140547218845    -0.001688724532    12.000000000000
         C           -2.552223799377    -1.225410218845    -0.001714724532    12.000000000000
         C            3.124699200623    -0.166491218845    -0.002031724532    12.000000000000
         C            2.756848200623     1.161102781155    -0.001989724532    12.000000000000
         H           -1.038441799377     2.284446781155    -0.001845724532     1.007825032230
         H           -3.547366799377     2.019624781155    -0.001718724532     1.007825032230
         H           -4.503825799377    -0.305216218845    -0.001633724532     1.007825032230
         H           -2.928682799377    -2.246867218845    -0.001680724532     1.007825032230
         H            4.123650200623    -0.583349218845    -0.002088724532     1.007825032230
         H            3.447082800623     1.997861681155     0.297989275468     1.007825032230

  Basis Set: AUG-CC-PVTZ
    Blend: AUG-CC-PVTZ
  Basis Set: (AUG-CC-PVTZ AUX)
    Blend: AUG-CC-PVTZ-JKFIT
	 Reference Energy          =    -813.0033134614990331 [Eh]
	 Singles Energy            =      -0.0000000000000000 [Eh]
	 Same-Spin Energy          =      -0.5256610312215926 [Eh]
	 Opposite-Spin Energy      =      -1.5543805492597982 [Eh]
	 Correlation Energy        =      -2.0800415804813905 [Eh]
	 Total Energy              =    -815.0833550419804396 [Eh]

	 ================> DF-SCS-MP2 Energies <==================
	-----------------------------------------------------------
	 SCS Same-Spin Scale       =       0.3333333333333333 [-]
	 SCS Opposite-Spin Scale   =       1.2000000000000000 [-]
	 SCS Same-Spin Energy      =      -0.1752203437405309 [Eh]
	 SCS Opposite-Spin Energy  =      -1.8652566591117576 [Eh]
	 SCS Correlation Energy    =      -2.0404770028522883 [Eh]
	 SCS Total Energy          =    -815.0437904643513320 [Eh]
	-----------------------------------------------------------

  Dipole Moment: [D]
     X:    -0.8669      Y:     0.1420      Z:     0.2164     Total:     0.9047

*** Psi4 exiting successfully. Buy a developer a beer!
