                               Psi4 1.4a2.dev612

  ==> Input File <==

--------------------------------------------------------------------------
#psi4
#
memory 32 gb

molecule  {
0 1
  S        1.7618360    -1.1877300    -0.0001100
  N       -1.1892720    -1.1162850     0.0000840
  N        1.4363420     1.3812950    -0.0000570
  C       -0.6888070     0.1366280     0.0000400
  C        0.7702180     0.2369850    -0.0000350
  C       -1.4868030     1.2893490     0.0000580
  C       -2.8690220     1.1312400     0.0001290
  C       -3.4040470    -0.1590480     0.0001760
  C       -2.5262420    -1.2439110     0.0001500
  C        3.1506810    -0.1849920    -0.0001670
  C        2.7828300     1.1426020    -0.0001250
  H       -1.0124600     2.2659460     0.0000190
  H       -3.5213850     2.0011240     0.0001460
  H       -4.4778440    -0.3237170     0.0002310
  H       -2.9027010    -2.2653680     0.0001840
  H        4.1496320    -0.6018500    -0.0002240
  H        3.4730573     1.9793635     0.1498540
units angstrom
no_reorient  #important for SAPT in psi4, default
symmetry c1  #important for SAPT in psi4, default
}

set PROPERTIES_ORIGIN ["COM"]
properties('MP2/aug-cc-pvtz', properties = ['dipole'])
--------------------------------------------------------------------------

    Molecular point group: c1
  Charge       = 0
  Multiplicity = 1
  Basis Set: AUG-CC-PVTZ
    Blend: AUG-CC-PVTZ
  Basis Set: (AUG-CC-PVTZ AUX)
    Blend: AUG-CC-PVTZ-JKFIT

    Orbital Energies [Eh]
    ---------------------

    Doubly Occupied:

       1A    -91.995857     2A    -15.578986     3A    -15.574416
       4A    -11.313888     5A    -11.297485     6A    -11.285545
       7A    -11.270971     8A    -11.267629     9A    -11.265388
      10A    -11.251437    11A    -11.250014    12A     -8.995886
      13A     -6.676652    14A     -6.676103    15A     -6.675438
      16A     -1.287592    17A     -1.260353    18A     -1.096608
      19A     -1.068499    20A     -1.062424    21A     -0.986231
      22A     -0.876907    23A     -0.869278    24A     -0.790560
      25A     -0.766045    26A     -0.707246    27A     -0.679231
      28A     -0.669051    29A     -0.639205    30A     -0.593742
      31A     -0.587979    32A     -0.580671    33A     -0.558565
      34A     -0.536138    35A     -0.529383    36A     -0.502151
      37A     -0.444280    38A     -0.424767    39A     -0.398900
      40A     -0.392601    41A     -0.371424    42A     -0.307139

  @DF-RHF Final Energy:  -813.00804937406713

   => Energetics <=

    Nuclear Repulsion Energy =            626.9145775334726522
    One-Electron Energy =               -2357.1199176900004204
    Two-Electron Energy =                 917.1972907824605272
    Total Energy =                       -813.0080493740671272
  Basis Set: (AUG-CC-PVTZ AUX)
    Blend: AUG-CC-PVTZ-RI
    Molecular point group: c1

    Geometry (in Angstrom), charge = 0, multiplicity = 1:

       Center              X                  Y                   Z               Mass
    ------------   -----------------  -----------------  -----------------  -----------------
         S            1.735854246031    -1.169229235018    -0.001041698167    31.972071174400
         N           -1.215253753969    -1.097784235018    -0.000847698167    14.003074004430
         N            1.410360246031     1.399795764982    -0.000988698167    14.003074004430
         C           -0.714788753969     0.155128764982    -0.000891698167    12.000000000000
         C            0.744236246031     0.255485764982    -0.000966698167    12.000000000000
         C           -1.512784753969     1.307849764982    -0.000873698167    12.000000000000
         C           -2.895003753969     1.149740764982    -0.000802698167    12.000000000000
         C           -3.430028753969    -0.140547235018    -0.000755698167    12.000000000000
         C           -2.552223753969    -1.225410235018    -0.000781698167    12.000000000000
         C            3.124699246031    -0.166491235018    -0.001098698167    12.000000000000
         C            2.756848246031     1.161102764982    -0.001056698167    12.000000000000
         H           -1.038441753969     2.284446764982    -0.000912698167     1.007825032230
         H           -3.547366753969     2.019624764982    -0.000785698167     1.007825032230
         H           -4.503825753969    -0.305216235018    -0.000700698167     1.007825032230
         H           -2.928682753969    -2.246867235018    -0.000747698167     1.007825032230
         H            4.123650246031    -0.583349235018    -0.001155698167     1.007825032230
         H            3.447075546031     1.997864264982     0.148922301833     1.007825032230

  Basis Set: AUG-CC-PVTZ
    Blend: AUG-CC-PVTZ
  Basis Set: (AUG-CC-PVTZ AUX)
    Blend: AUG-CC-PVTZ-JKFIT
	 Reference Energy          =    -813.0080493740671272 [Eh]
	 Singles Energy            =      -0.0000000000000000 [Eh]
	 Same-Spin Energy          =      -0.5254248671823548 [Eh]
	 Opposite-Spin Energy      =      -1.5537965574966806 [Eh]
	 Correlation Energy        =      -2.0792214246790355 [Eh]
	 Total Energy              =    -815.0872707987462036 [Eh]

	 ================> DF-SCS-MP2 Energies <==================
	-----------------------------------------------------------
	 SCS Same-Spin Scale       =       0.3333333333333333 [-]
	 SCS Opposite-Spin Scale   =       1.2000000000000000 [-]
	 SCS Same-Spin Energy      =      -0.1751416223941183 [Eh]
	 SCS Opposite-Spin Energy  =      -1.8645558689960167 [Eh]
	 SCS Correlation Energy    =      -2.0396974913901351 [Eh]
	 SCS Total Energy          =    -815.0477468654572704 [Eh]
	-----------------------------------------------------------

  Dipole Moment: [D]
     X:    -0.8165      Y:     0.1813      Z:     0.1099     Total:     0.8436

*** Psi4 exiting successfully. Buy a developer a beer!
