                               Psi4 1.4a2.dev612

  ==> Input File <==

--------------------------------------------------------------------------
#psi4
#
memory 32 gb

molecule  {
0 1
  S        1.7618360    -1.1877300    -0.0001100
  N       -1.1892720    -1.1162850     0.0000840
  N        1.4363420     1.3812950    -0.0000570
  C       -0.6887936     0.1366245     0.2500400
  C        0.7702180     0.2369850    -0.0000350
  C       -1.4868030     1.2893490     0.0000580
  C       -2.8690220     1.1312400     0.0001290
  C       -3.4040470    -0.1590480     0.0001760
  C       -2.5262420    -1.2439110     0.0001500
  C        3.1506810    -0.1849920    -0.0001670
  C        2.7828300     1.1426020    -0.0001250
  H       -1.0124600     2.2659460     0.0000190
  H       -3.5213850     2.0011240     0.0001460
  H       -4.4778440    -0.3237170     0.0002310
  H       -2.9027010    -2.2653680     0.0001840
  H        4.1496320    -0.6018500    -0.0002240
  H        3.4730500     1.9793660    -0.0001460
units angstrom
no_reorient  #important for SAPT in psi4, default
symmetry c1  #important for SAPT in psi4, default
}

set PROPERTIES_ORIGIN ["COM"]
properties('MP2/aug-cc-pvtz', properties = ['dipole'])
--------------------------------------------------------------------------

    Molecular point group: c1
  Charge       = 0
  Multiplicity = 1
  Basis Set: AUG-CC-PVTZ
    Blend: AUG-CC-PVTZ
  Basis Set: (AUG-CC-PVTZ AUX)
    Blend: AUG-CC-PVTZ-JKFIT

    Orbital Energies [Eh]
    ---------------------

    Doubly Occupied:

       1A    -91.993937     2A    -15.583613     3A    -15.572294
       4A    -11.314995     5A    -11.302588     6A    -11.284958
       7A    -11.269155     8A    -11.267437     9A    -11.263514
      10A    -11.256202    11A    -11.254685    12A     -8.994096
      13A     -6.674870    14A     -6.674309    15A     -6.673636
      16A     -1.284624    17A     -1.256737    18A     -1.096000
      19A     -1.065623    20A     -1.060617    21A     -0.984624
      22A     -0.875605    23A     -0.864729    24A     -0.789246
      25A     -0.762039    26A     -0.706697    27A     -0.678788
      28A     -0.665764    29A     -0.640368    30A     -0.594013
      31A     -0.586365    32A     -0.577425    33A     -0.557254
      34A     -0.538956    35A     -0.521080    36A     -0.501649
      37A     -0.444100    38A     -0.426824    39A     -0.396587
      40A     -0.388743    41A     -0.369334    42A     -0.306124

  @DF-RHF Final Energy:  -812.98535610033741

   => Energetics <=

    Nuclear Repulsion Energy =            626.0001759258766469
    One-Electron Energy =               -2355.3306569836800008
    Two-Electron Energy =                 916.3451249574659414
    Total Energy =                       -812.9853561003374125
  Basis Set: (AUG-CC-PVTZ AUX)
    Blend: AUG-CC-PVTZ-RI
    Molecular point group: c1

    Geometry (in Angstrom), charge = 0, multiplicity = 1:

       Center              X                  Y                   Z               Mass
    ------------   -----------------  -----------------  -----------------  -----------------
         S            1.735853298999    -1.169228991349    -0.018624313609    31.972071174400
         N           -1.215254701001    -1.097783991349    -0.018430313609    14.003074004430
         N            1.410359298999     1.399796008651    -0.018571313609    14.003074004430
         C           -0.714776301001     0.155125508651     0.231525686391    12.000000000000
         C            0.744235298999     0.255486008651    -0.018549313609    12.000000000000
         C           -1.512785701001     1.307850008651    -0.018456313609    12.000000000000
         C           -2.895004701001     1.149741008651    -0.018385313609    12.000000000000
         C           -3.430029701001    -0.140546991349    -0.018338313609    12.000000000000
         C           -2.552224701001    -1.225409991349    -0.018364313609    12.000000000000
         C            3.124698298999    -0.166490991349    -0.018681313609    12.000000000000
         C            2.756847298999     1.161103008651    -0.018639313609    12.000000000000
         H           -1.038442701001     2.284447008651    -0.018495313609     1.007825032230
         H           -3.547367701001     2.019625008651    -0.018368313609     1.007825032230
         H           -4.503826701001    -0.305215991349    -0.018283313609     1.007825032230
         H           -2.928683701001    -2.246866991349    -0.018330313609     1.007825032230
         H            4.123649298999    -0.583348991349    -0.018738313609     1.007825032230
         H            3.447067298999     1.997867008651    -0.018660313609     1.007825032230

  Basis Set: AUG-CC-PVTZ
    Blend: AUG-CC-PVTZ
  Basis Set: (AUG-CC-PVTZ AUX)
    Blend: AUG-CC-PVTZ-JKFIT
	 Reference Energy          =    -812.9853561003374125 [Eh]
	 Singles Energy            =      -0.0000000000000000 [Eh]
	 Same-Spin Energy          =      -0.5264546724433331 [Eh]
	 Opposite-Spin Energy      =      -1.5563555536831266 [Eh]
	 Correlation Energy        =      -2.0828102261264596 [Eh]
	 Total Energy              =    -815.0681663264638246 [Eh]

	 ================> DF-SCS-MP2 Energies <==================
	-----------------------------------------------------------
	 SCS Same-Spin Scale       =       0.3333333333333333 [-]
	 SCS Opposite-Spin Scale   =       1.2000000000000000 [-]
	 SCS Same-Spin Energy      =      -0.1754848908144443 [Eh]
	 SCS Opposite-Spin Energy  =      -1.8676266644197519 [Eh]
	 SCS Correlation Energy    =      -2.0431115552341961 [Eh]
	 SCS Total Energy          =    -815.0284676555716032 [Eh]
	-----------------------------------------------------------

  Dipole Moment: [D]
     X:    -0.9403      Y:     0.2024      Z:     0.0824     Total:     0.9653

*** Psi4 exiting successfully. Buy a developer a beer!
