                               Psi4 1.4a2.dev612

  ==> Input File <==

--------------------------------------------------------------------------
#psi4
#
memory 32 gb

molecule  {
0 1
  S        1.7618360    -1.1877300    -0.0001100
  N       -1.1892720    -1.1162850     0.0000840
  N        1.4363420     1.3812950    -0.0000570
  C       -0.6888070     0.1366280     0.0000400
  C        0.7702180     0.2369850    -0.0000350
  C       -1.4868030     1.2893490     0.0000580
  C       -2.8690220     1.1312400     0.0001290
  C       -3.4040470    -0.1590480     0.0001760
  C       -2.5262420    -1.2439110     0.0001500
  C        3.1506810    -0.1849920    -0.0001670
  C        2.7828300     1.1426020    -0.0001250
  H       -1.0124600     2.2659460     0.0000190
  H       -3.5213850     2.0011240     0.0001460
  H       -4.4778440    -0.3237170     0.0002310
  H       -2.9027010    -2.2653680     0.0001840
  H        4.1496191    -0.6018459    -0.2502240
  H        3.4730500     1.9793660    -0.0001460
units angstrom
no_reorient  #important for SAPT in psi4, default
symmetry c1  #important for SAPT in psi4, default
}

set PROPERTIES_ORIGIN ["COM"]
properties('MP2/aug-cc-pvtz', properties = ['dipole'])
--------------------------------------------------------------------------

    Molecular point group: c1
  Charge       = 0
  Multiplicity = 1
  Basis Set: AUG-CC-PVTZ
    Blend: AUG-CC-PVTZ
  Basis Set: (AUG-CC-PVTZ AUX)
    Blend: AUG-CC-PVTZ-JKFIT

    Orbital Energies [Eh]
    ---------------------

    Doubly Occupied:

       1A    -91.995489     2A    -15.579234     3A    -15.574559
       4A    -11.314422     5A    -11.297630     6A    -11.285727
       7A    -11.271060     8A    -11.267818     9A    -11.266801
      10A    -11.251713    11A    -11.250297    12A     -8.995543
      13A     -6.676307    14A     -6.675744    15A     -6.675084
      16A     -1.287871    17A     -1.260602    18A     -1.096817
      19A     -1.068423    20A     -1.062022    21A     -0.986446
      22A     -0.876942    23A     -0.869462    24A     -0.788441
      25A     -0.766455    26A     -0.705857    27A     -0.679545
      28A     -0.667931    29A     -0.639637    30A     -0.593997
      31A     -0.588046    32A     -0.581603    33A     -0.556179
      34A     -0.535620    35A     -0.528254    36A     -0.502857
      37A     -0.444442    38A     -0.424904    39A     -0.398698
      40A     -0.392584    41A     -0.371710    42A     -0.307337

  @DF-RHF Final Energy:  -813.00591576820341

   => Energetics <=

    Nuclear Repulsion Energy =            626.8434433246086428
    One-Electron Energy =               -2356.9784932906904942
    Two-Electron Energy =                 917.1291341978784430
    Total Energy =                       -813.0059157682034083
  Basis Set: (AUG-CC-PVTZ AUX)
    Blend: AUG-CC-PVTZ-RI
    Molecular point group: c1

    Geometry (in Angstrom), charge = 0, multiplicity = 1:

       Center              X                  Y                   Z               Mass
    ------------   -----------------  -----------------  -----------------  -----------------
         S            1.735854371678    -1.169229276071     0.001446372140    31.972071174400
         N           -1.215253628322    -1.097784276071     0.001640372140    14.003074004430
         N            1.410360371678     1.399795723929     0.001499372140    14.003074004430
         C           -0.714788628322     0.155128723929     0.001596372140    12.000000000000
         C            0.744236371678     0.255485723929     0.001521372140    12.000000000000
         C           -1.512784628322     1.307849723929     0.001614372140    12.000000000000
         C           -2.895003628322     1.149740723929     0.001685372140    12.000000000000
         C           -3.430028628322    -0.140547276071     0.001732372140    12.000000000000
         C           -2.552223628322    -1.225410276071     0.001706372140    12.000000000000
         C            3.124699371678    -0.166491276071     0.001389372140    12.000000000000
         C            2.756848371678     1.161102723929     0.001431372140    12.000000000000
         H           -1.038441628322     2.284446723929     0.001575372140     1.007825032230
         H           -3.547366628322     2.019624723929     0.001702372140     1.007825032230
         H           -4.503825628322    -0.305216276071     0.001787372140     1.007825032230
         H           -2.928682628322    -2.246867276071     0.001740372140     1.007825032230
         H            4.123637471678    -0.583345176071    -0.248667627860     1.007825032230
         H            3.447068371678     1.997866723929     0.001410372140     1.007825032230

  Basis Set: AUG-CC-PVTZ
    Blend: AUG-CC-PVTZ
  Basis Set: (AUG-CC-PVTZ AUX)
    Blend: AUG-CC-PVTZ-JKFIT
	 Reference Energy          =    -813.0059157682034083 [Eh]
	 Singles Energy            =      -0.0000000000000000 [Eh]
	 Same-Spin Energy          =      -0.5255449302627428 [Eh]
	 Opposite-Spin Energy      =      -1.5540356805097382 [Eh]
	 Correlation Energy        =      -2.0795806107724810 [Eh]
	 Total Energy              =    -815.0854963789759040 [Eh]

	 ================> DF-SCS-MP2 Energies <==================
	-----------------------------------------------------------
	 SCS Same-Spin Scale       =       0.3333333333333333 [-]
	 SCS Opposite-Spin Scale   =       1.2000000000000000 [-]
	 SCS Same-Spin Energy      =      -0.1751816434209143 [Eh]
	 SCS Opposite-Spin Energy  =      -1.8648428166116857 [Eh]
	 SCS Correlation Energy    =      -2.0400244600325999 [Eh]
	 SCS Total Energy          =    -815.0459402282359633 [Eh]
	-----------------------------------------------------------

  Dipole Moment: [D]
     X:    -0.8486      Y:     0.2167      Z:    -0.1965     Total:     0.8976

*** Psi4 exiting successfully. Buy a developer a beer!
