                               Psi4 1.4a2.dev612

  ==> Input File <==

--------------------------------------------------------------------------
#psi4
#
memory 32 gb

molecule  {
0 1
  S        1.7618360    -1.1877300    -0.0001100
  N       -1.1892720    -1.1162850     0.0000840
  N        1.4363420     1.3812950    -0.0000570
  C       -0.6888070     0.1366280     0.0000400
  C        0.7702180     0.2369850    -0.0000350
  C       -1.4868030     1.2893490     0.0000580
  C       -2.8690220     1.1312400     0.0001290
  C       -3.4040470    -0.1590480     0.0001760
  C       -2.5262420    -1.2439110     0.0001500
  C        3.1506810    -0.1849920    -0.0001670
  C        2.7828300     1.1426020    -0.0001250
  H       -1.0124600     2.2659460     0.0000190
  H       -3.5213850     2.0011240     0.0001460
  H       -4.4778440    -0.3237170     0.0002310
  H       -2.9027010    -2.2653680     0.0001840
  H        4.1496320    -0.6018500    -0.0002240
  H        3.4730622     1.9793618     0.2498540
units angstrom
no_reorient  #important for SAPT in psi4, default
symmetry c1  #important for SAPT in psi4, default
}

set PROPERTIES_ORIGIN ["COM"]
properties('MP2/aug-cc-pvtz', properties = ['dipole'])
--------------------------------------------------------------------------

    Molecular point group: c1
  Charge       = 0
  Multiplicity = 1
  Basis Set: AUG-CC-PVTZ
    Blend: AUG-CC-PVTZ
  Basis Set: (AUG-CC-PVTZ AUX)
    Blend: AUG-CC-PVTZ-JKFIT

    Orbital Energies [Eh]
    ---------------------

    Doubly Occupied:

       1A    -91.996127     2A    -15.579096     3A    -15.574550
       4A    -11.314045     5A    -11.297579     6A    -11.285629
       7A    -11.272426     8A    -11.267708     9A    -11.265924
      10A    -11.251527    11A    -11.250105    12A     -8.996160
      13A     -6.676923    14A     -6.676375    15A     -6.675710
      16A     -1.287724    17A     -1.260458    18A     -1.096699
      19A     -1.068580    20A     -1.062615    21A     -0.985807
      22A     -0.876767    23A     -0.869297    24A     -0.790153
      25A     -0.765101    26A     -0.707322    27A     -0.677946
      28A     -0.669171    29A     -0.638459    30A     -0.593631
      31A     -0.588251    32A     -0.579333    33A     -0.558748
      34A     -0.536329    35A     -0.529456    36A     -0.500785
      37A     -0.444352    38A     -0.424896    39A     -0.398977
      40A     -0.392677    41A     -0.371276    42A     -0.307238

  @DF-RHF Final Energy:  -813.00532712701613

   => Energetics <=

    Nuclear Repulsion Energy =            626.8453129329777767
    One-Electron Energy =               -2356.9774147635357622
    Two-Electron Energy =                 917.1267747035418552
    Total Energy =                       -813.0053271270161304
  Basis Set: (AUG-CC-PVTZ AUX)
    Blend: AUG-CC-PVTZ-RI
    Molecular point group: c1

    Geometry (in Angstrom), charge = 0, multiplicity = 1:

       Center              X                  Y                   Z               Mass
    ------------   -----------------  -----------------  -----------------  -----------------
         S            1.735854215552    -1.169229224444    -0.001663715743    31.972071174400
         N           -1.215253784448    -1.097784224444    -0.001469715743    14.003074004430
         N            1.410360215552     1.399795775556    -0.001610715743    14.003074004430
         C           -0.714788784448     0.155128775556    -0.001513715743    12.000000000000
         C            0.744236215552     0.255485775556    -0.001588715743    12.000000000000
         C           -1.512784784448     1.307849775556    -0.001495715743    12.000000000000
         C           -2.895003784448     1.149740775556    -0.001424715743    12.000000000000
         C           -3.430028784448    -0.140547224444    -0.001377715743    12.000000000000
         C           -2.552223784448    -1.225410224444    -0.001403715743    12.000000000000
         C            3.124699215552    -0.166491224444    -0.001720715743    12.000000000000
         C            2.756848215552     1.161102775556    -0.001678715743    12.000000000000
         H           -1.038441784448     2.284446775556    -0.001534715743     1.007825032230
         H           -3.547366784448     2.019624775556    -0.001407715743     1.007825032230
         H           -4.503825784448    -0.305216224444    -0.001322715743     1.007825032230
         H           -2.928682784448    -2.246867224444    -0.001369715743     1.007825032230
         H            4.123650215552    -0.583349224444    -0.001777715743     1.007825032230
         H            3.447080415552     1.997862575556     0.248300284257     1.007825032230

  Basis Set: AUG-CC-PVTZ
    Blend: AUG-CC-PVTZ
  Basis Set: (AUG-CC-PVTZ AUX)
    Blend: AUG-CC-PVTZ-JKFIT
	 Reference Energy          =    -813.0053271270161304 [Eh]
	 Singles Energy            =      -0.0000000000000000 [Eh]
	 Same-Spin Energy          =      -0.5255656726961720 [Eh]
	 Opposite-Spin Energy      =      -1.5541333980923515 [Eh]
	 Correlation Energy        =      -2.0796990707885237 [Eh]
	 Total Energy              =    -815.0850261978046092 [Eh]

	 ================> DF-SCS-MP2 Energies <==================
	-----------------------------------------------------------
	 SCS Same-Spin Scale       =       0.3333333333333333 [-]
	 SCS Opposite-Spin Scale   =       1.2000000000000000 [-]
	 SCS Same-Spin Energy      =      -0.1751885575653907 [Eh]
	 SCS Opposite-Spin Energy  =      -1.8649600777108217 [Eh]
	 SCS Correlation Energy    =      -2.0401486352762124 [Eh]
	 SCS Total Energy          =    -815.0454757622923125 [Eh]
	-----------------------------------------------------------

  Dipole Moment: [D]
     X:    -0.8466      Y:     0.1578      Z:     0.1815     Total:     0.8801

*** Psi4 exiting successfully. Buy a developer a beer!
