                               Psi4 1.4a2.dev612

  ==> Input File <==

--------------------------------------------------------------------------
#psi4
#
memory 32 gb

molecule  {
0 1
  S        1.7618360    -1.1877300    -0.0001100
  N       -1.1892720    -1.1162850     0.0000840
  N        1.4363420     1.3812950    -0.0000570
  C       -0.6888070     0.1366280     0.0000400
  C        0.7702180     0.2369850    -0.0000350
  C       -1.4867956     1.2893515     0.1500580
  C       -2.8690220     1.1312400     0.0001290
  C       -3.4040470    -0.1590480     0.0001760
  C       -2.5262420    -1.2439110     0.0001500
  C        3.1506810    -0.1849920    -0.0001670
  C        2.7828300     1.1426020    -0.0001250
  H       -1.0124600     2.2659460     0.0000190
  H       -3.5213850     2.0011240     0.0001460
  H       -4.4778440    -0.3237170     0.0002310
  H       -2.9027010    -2.2653680     0.0001840
  H        4.1496320    -0.6018500    -0.0002240
  H        3.4730500     1.9793660    -0.0001460
units angstrom
no_reorient  #important for SAPT in psi4, default
symmetry c1  #important for SAPT in psi4, default
}

set PROPERTIES_ORIGIN ["COM"]
properties('MP2/aug-cc-pvtz', properties = ['dipole'])
--------------------------------------------------------------------------

    Molecular point group: c1
  Charge       = 0
  Multiplicity = 1
  Basis Set: AUG-CC-PVTZ
    Blend: AUG-CC-PVTZ
  Basis Set: (AUG-CC-PVTZ AUX)
    Blend: AUG-CC-PVTZ-JKFIT

    Orbital Energies [Eh]
    ---------------------

    Doubly Occupied:

       1A    -91.995941     2A    -15.578571     3A    -15.574664
       4A    -11.313820     5A    -11.299208     6A    -11.286429
       7A    -11.270301     8A    -11.269226     9A    -11.265412
      10A    -11.251557    11A    -11.250925    12A     -8.995967
      13A     -6.676732    14A     -6.676183    15A     -6.675518
      16A     -1.287565    17A     -1.260272    18A     -1.095442
      19A     -1.068100    20A     -1.062264    21A     -0.986240
      22A     -0.876173    23A     -0.868632    24A     -0.790928
      25A     -0.766176    26A     -0.706636    27A     -0.679171
      28A     -0.667216    29A     -0.637889    30A     -0.593242
      31A     -0.587744    32A     -0.580658    33A     -0.558176
      34A     -0.536156    35A     -0.527251    36A     -0.502944
      37A     -0.444276    38A     -0.424692    39A     -0.397764
      40A     -0.392362    41A     -0.371273    42A     -0.307298

  @DF-RHF Final Energy:  -813.00259915150650

   => Energetics <=

    Nuclear Repulsion Energy =            626.6854822072614297
    One-Electron Energy =               -2356.6621773248880345
    Two-Electron Energy =                 916.9740959661201032
    Total Energy =                       -813.0025991515065016
  Basis Set: (AUG-CC-PVTZ AUX)
    Blend: AUG-CC-PVTZ-RI
    Molecular point group: c1

    Geometry (in Angstrom), charge = 0, multiplicity = 1:

       Center              X                  Y                   Z               Mass
    ------------   -----------------  -----------------  -----------------  -----------------
         S            1.735853743375    -1.169229435725    -0.011218056886    31.972071174400
         N           -1.215254256625    -1.097784435725    -0.011024056886    14.003074004430
         N            1.410359743375     1.399795564275    -0.011165056886    14.003074004430
         C           -0.714789256625     0.155128564275    -0.011068056886    12.000000000000
         C            0.744235743375     0.255485564275    -0.011143056886    12.000000000000
         C           -1.512777856625     1.307852064275     0.138949943114    12.000000000000
         C           -2.895004256625     1.149740564275    -0.010979056886    12.000000000000
         C           -3.430029256625    -0.140547435725    -0.010932056886    12.000000000000
         C           -2.552224256625    -1.225410435725    -0.010958056886    12.000000000000
         C            3.124698743375    -0.166491435725    -0.011275056886    12.000000000000
         C            2.756847743375     1.161102564275    -0.011233056886    12.000000000000
         H           -1.038442256625     2.284446564275    -0.011089056886     1.007825032230
         H           -3.547367256625     2.019624564275    -0.010962056886     1.007825032230
         H           -4.503826256625    -0.305216435725    -0.010877056886     1.007825032230
         H           -2.928683256625    -2.246867435725    -0.010924056886     1.007825032230
         H            4.123649743375    -0.583349435725    -0.011332056886     1.007825032230
         H            3.447067743375     1.997866564275    -0.011254056886     1.007825032230

  Basis Set: AUG-CC-PVTZ
    Blend: AUG-CC-PVTZ
  Basis Set: (AUG-CC-PVTZ AUX)
    Blend: AUG-CC-PVTZ-JKFIT
	 Reference Energy          =    -813.0025991515065016 [Eh]
	 Singles Energy            =      -0.0000000000000000 [Eh]
	 Same-Spin Energy          =      -0.5256239179327455 [Eh]
	 Opposite-Spin Energy      =      -1.5541129420379101 [Eh]
	 Correlation Energy        =      -2.0797368599706556 [Eh]
	 Total Energy              =    -815.0823360114771958 [Eh]

	 ================> DF-SCS-MP2 Energies <==================
	-----------------------------------------------------------
	 SCS Same-Spin Scale       =       0.3333333333333333 [-]
	 SCS Opposite-Spin Scale   =       1.2000000000000000 [-]
	 SCS Same-Spin Energy      =      -0.1752079726442485 [Eh]
	 SCS Opposite-Spin Energy  =      -1.8649355304454920 [Eh]
	 SCS Correlation Energy    =      -2.0401435030897406 [Eh]
	 SCS Total Energy          =    -815.0427426545962817 [Eh]
	-----------------------------------------------------------

  Dipole Moment: [D]
     X:    -0.7954      Y:     0.1587      Z:    -0.0405     Total:     0.8121

*** Psi4 exiting successfully. Buy a developer a beer!
