                               Psi4 1.4a2.dev612

  ==> Input File <==

--------------------------------------------------------------------------
#psi4
#
memory 32 gb

molecule  {
0 1
  S        1.7618360    -1.1877300    -0.0001100
  N       -1.1892720    -1.1162850     0.0000840
  N        1.4363420     1.3812950    -0.0000570
  C       -0.6888070     0.1366280     0.0000400
  C        0.7702180     0.2369850    -0.0000350
  C       -1.4868005     1.2893498     0.0500580
  C       -2.8690220     1.1312400     0.0001290
  C       -3.4040470    -0.1590480     0.0001760
  C       -2.5262420    -1.2439110     0.0001500
  C        3.1506810    -0.1849920    -0.0001670
  C        2.7828300     1.1426020    -0.0001250
  H       -1.0124600     2.2659460     0.0000190
  H       -3.5213850     2.0011240     0.0001460
  H       -4.4778440    -0.3237170     0.0002310
  H       -2.9027010    -2.2653680     0.0001840
  H        4.1496320    -0.6018500    -0.0002240
  H        3.4730500     1.9793660    -0.0001460
units angstrom
no_reorient  #important for SAPT in psi4, default
symmetry c1  #important for SAPT in psi4, default
}

set PROPERTIES_ORIGIN ["COM"]
properties('MP2/aug-cc-pvtz', properties = ['dipole'])
--------------------------------------------------------------------------

    Molecular point group: c1
  Charge       = 0
  Multiplicity = 1
  Basis Set: AUG-CC-PVTZ
    Blend: AUG-CC-PVTZ
  Basis Set: (AUG-CC-PVTZ AUX)
    Blend: AUG-CC-PVTZ-JKFIT

    Orbital Energies [Eh]
    ---------------------

    Doubly Occupied:

       1A    -91.995730     2A    -15.578882     3A    -15.574378
       4A    -11.313802     5A    -11.297630     6A    -11.285599
       7A    -11.270155     8A    -11.267766     9A    -11.265116
      10A    -11.251332    11A    -11.250141    12A     -8.995757
      13A     -6.676524    14A     -6.675974    15A     -6.675309
      16A     -1.287523    17A     -1.260290    18A     -1.096428
      19A     -1.068415    20A     -1.062311    21A     -0.986462
      22A     -0.876903    23A     -0.869197    24A     -0.790845
      25A     -0.766555    26A     -0.707136    27A     -0.679907
      28A     -0.668783    29A     -0.639433    30A     -0.593746
      31A     -0.587759    32A     -0.581381    33A     -0.558429
      34A     -0.536053    35A     -0.529104    36A     -0.502908
      37A     -0.444239    38A     -0.424695    39A     -0.398732
      40A     -0.392536    41A     -0.371482    42A     -0.307106

  @DF-RHF Final Energy:  -813.00869948300476

   => Energetics <=

    Nuclear Repulsion Energy =            626.9245813599926578
    One-Electron Energy =               -2357.1416535931862200
    Two-Electron Energy =                 917.2083727501886870
    Total Energy =                       -813.0086994830047615
  Basis Set: (AUG-CC-PVTZ AUX)
    Blend: AUG-CC-PVTZ-RI
    Molecular point group: c1

    Geometry (in Angstrom), charge = 0, multiplicity = 1:

       Center              X                  Y                   Z               Mass
    ------------   -----------------  -----------------  -----------------  -----------------
         S            1.735854106281    -1.169229309818    -0.003811800163    31.972071174400
         N           -1.215253893719    -1.097784309818    -0.003617800163    14.003074004430
         N            1.410360106281     1.399795690182    -0.003758800163    14.003074004430
         C           -0.714788893719     0.155128690182    -0.003661800163    12.000000000000
         C            0.744236106281     0.255485690182    -0.003736800163    12.000000000000
         C           -1.512782393719     1.307850490182     0.046356199837    12.000000000000
         C           -2.895003893719     1.149740690182    -0.003572800163    12.000000000000
         C           -3.430028893719    -0.140547309818    -0.003525800163    12.000000000000
         C           -2.552223893719    -1.225410309818    -0.003551800163    12.000000000000
         C            3.124699106281    -0.166491309818    -0.003868800163    12.000000000000
         C            2.756848106281     1.161102690182    -0.003826800163    12.000000000000
         H           -1.038441893719     2.284446690182    -0.003682800163     1.007825032230
         H           -3.547366893719     2.019624690182    -0.003555800163     1.007825032230
         H           -4.503825893719    -0.305216309818    -0.003470800163     1.007825032230
         H           -2.928682893719    -2.246867309818    -0.003517800163     1.007825032230
         H            4.123650106281    -0.583349309818    -0.003925800163     1.007825032230
         H            3.447068106281     1.997866690182    -0.003847800163     1.007825032230

  Basis Set: AUG-CC-PVTZ
    Blend: AUG-CC-PVTZ
  Basis Set: (AUG-CC-PVTZ AUX)
    Blend: AUG-CC-PVTZ-JKFIT
	 Reference Energy          =    -813.0086994830047615 [Eh]
	 Singles Energy            =      -0.0000000000000000 [Eh]
	 Same-Spin Energy          =      -0.5253746761200560 [Eh]
	 Opposite-Spin Energy      =      -1.5536449252643871 [Eh]
	 Correlation Energy        =      -2.0790196013844433 [Eh]
	 Total Energy              =    -815.0877190843891640 [Eh]

	 ================> DF-SCS-MP2 Energies <==================
	-----------------------------------------------------------
	 SCS Same-Spin Scale       =       0.3333333333333333 [-]
	 SCS Opposite-Spin Scale   =       1.2000000000000000 [-]
	 SCS Same-Spin Energy      =      -0.1751248920400186 [Eh]
	 SCS Opposite-Spin Energy  =      -1.8643739103172645 [Eh]
	 SCS Correlation Energy    =      -2.0394988023572833 [Eh]
	 SCS Total Energy          =    -815.0481982853619911 [Eh]
	-----------------------------------------------------------

  Dipole Moment: [D]
     X:    -0.7989      Y:     0.1908      Z:    -0.0129     Total:     0.8214

*** Psi4 exiting successfully. Buy a developer a beer!
