                               Psi4 1.4a2.dev612

  ==> Input File <==

--------------------------------------------------------------------------
#psi4
#
memory 32 gb

molecule  {
0 1
  S        1.7618360    -1.1877300    -0.0001100
  N       -1.1892720    -1.1162850     0.0000840
  N        1.4363420     1.3812950    -0.0000570
  C       -0.6888070     0.1366280     0.0000400
  C        0.7702180     0.2369850    -0.0000350
  C       -1.4868030     1.2893490     0.0000580
  C       -2.8690220     1.1312400     0.0001290
  C       -3.4040470    -0.1590480     0.0001760
  C       -2.5262420    -1.2439110     0.0001500
  C        3.1506810    -0.1849920    -0.0001670
  C        2.7828300     1.1426020    -0.0001250
  H       -1.0124600     2.2659460     0.0000190
  H       -3.5213850     2.0011240     0.0001460
  H       -4.4778440    -0.3237170     0.0002310
  H       -2.9027010    -2.2653680     0.0001840
  H        4.1496242    -0.6018476    -0.1502240
  H        3.4730500     1.9793660    -0.0001460
units angstrom
no_reorient  #important for SAPT in psi4, default
symmetry c1  #important for SAPT in psi4, default
}

set PROPERTIES_ORIGIN ["COM"]
properties('MP2/aug-cc-pvtz', properties = ['dipole'])
--------------------------------------------------------------------------

    Molecular point group: c1
  Charge       = 0
  Multiplicity = 1
  Basis Set: AUG-CC-PVTZ
    Blend: AUG-CC-PVTZ
  Basis Set: (AUG-CC-PVTZ AUX)
    Blend: AUG-CC-PVTZ-JKFIT

    Orbital Energies [Eh]
    ---------------------

    Doubly Occupied:

       1A    -91.995621     2A    -15.579037     3A    -15.574421
       4A    -11.314027     5A    -11.297504     6A    -11.285581
       7A    -11.270474     8A    -11.267669     9A    -11.265708
      10A    -11.251506    11A    -11.250085    12A     -8.995658
      13A     -6.676424    14A     -6.675870    15A     -6.675207
      16A     -1.287647    17A     -1.260406    18A     -1.096651
      19A     -1.068435    20A     -1.062211    21A     -0.986470
      22A     -0.876972    23A     -0.869339    24A     -0.789914
      25A     -0.766554    26A     -0.706691    27A     -0.679823
      28A     -0.668625    29A     -0.639633    30A     -0.593876
      31A     -0.587880    32A     -0.581516    33A     -0.557613
      34A     -0.535863    35A     -0.529001    36A     -0.502886
      37A     -0.444310    38A     -0.424770    39A     -0.398797
      40A     -0.392569    41A     -0.371583    42A     -0.307175

  @DF-RHF Final Energy:  -813.00826889474638

   => Energetics <=

    Nuclear Repulsion Energy =            626.9138992909922763
    One-Electron Energy =               -2357.1203305606363756
    Two-Electron Energy =                 917.1981623748977199
    Total Energy =                       -813.0082688947463794
  Basis Set: (AUG-CC-PVTZ AUX)
    Blend: AUG-CC-PVTZ-RI
    Molecular point group: c1

    Geometry (in Angstrom), charge = 0, multiplicity = 1:

       Center              X                  Y                   Z               Mass
    ------------   -----------------  -----------------  -----------------  -----------------
         S            1.735854339955    -1.169229265497     0.000824354563    31.972071174400
         N           -1.215253660045    -1.097784265497     0.001018354563    14.003074004430
         N            1.410360339955     1.399795734503     0.000877354563    14.003074004430
         C           -0.714788660045     0.155128734503     0.000974354563    12.000000000000
         C            0.744236339955     0.255485734503     0.000899354563    12.000000000000
         C           -1.512784660045     1.307849734503     0.000992354563    12.000000000000
         C           -2.895003660045     1.149740734503     0.001063354563    12.000000000000
         C           -3.430028660045    -0.140547265497     0.001110354563    12.000000000000
         C           -2.552223660045    -1.225410265497     0.001084354563    12.000000000000
         C            3.124699339955    -0.166491265497     0.000767354563    12.000000000000
         C            2.756848339955     1.161102734503     0.000809354563    12.000000000000
         H           -1.038441660045     2.284446734503     0.000953354563     1.007825032230
         H           -3.547366660045     2.019624734503     0.001080354563     1.007825032230
         H           -4.503825660045    -0.305216265497     0.001165354563     1.007825032230
         H           -2.928682660045    -2.246867265497     0.001118354563     1.007825032230
         H            4.123642539955    -0.583346865497    -0.149289645437     1.007825032230
         H            3.447068339955     1.997866734503     0.000788354563     1.007825032230

  Basis Set: AUG-CC-PVTZ
    Blend: AUG-CC-PVTZ
  Basis Set: (AUG-CC-PVTZ AUX)
    Blend: AUG-CC-PVTZ-JKFIT
	 Reference Energy          =    -813.0082688947463794 [Eh]
	 Singles Energy            =      -0.0000000000000000 [Eh]
	 Same-Spin Energy          =      -0.5254170304218369 [Eh]
	 Opposite-Spin Energy      =      -1.5537697513245949 [Eh]
	 Correlation Energy        =      -2.0791867817464320 [Eh]
	 Total Energy              =    -815.0874556764928229 [Eh]

	 ================> DF-SCS-MP2 Energies <==================
	-----------------------------------------------------------
	 SCS Same-Spin Scale       =       0.3333333333333333 [-]
	 SCS Opposite-Spin Scale   =       1.2000000000000000 [-]
	 SCS Same-Spin Energy      =      -0.1751390101406123 [Eh]
	 SCS Opposite-Spin Energy  =      -1.8645237015895137 [Eh]
	 SCS Correlation Energy    =      -2.0396627117301263 [Eh]
	 SCS Total Energy          =    -815.0479316064764816 [Eh]
	-----------------------------------------------------------

  Dipole Moment: [D]
     X:    -0.8173      Y:     0.2029      Z:    -0.1189     Total:     0.8505

*** Psi4 exiting successfully. Buy a developer a beer!
