                               Psi4 1.4a2.dev612

  ==> Input File <==

--------------------------------------------------------------------------
#psi4
#
memory 32 gb

molecule  {
0 1
  S        1.7618360    -1.1877300    -0.0001100
  N       -1.1892720    -1.1162850     0.0000840
  N        1.4363420     1.3812950    -0.0000570
  C       -0.6888070     0.1366280     0.0000400
  C        0.7702180     0.2369850    -0.0000350
  C       -1.4868030     1.2893490     0.0000580
  C       -2.8690220     1.1312400     0.0001290
  C       -3.4040470    -0.1590480     0.0001760
  C       -2.5262420    -1.2439110     0.0001500
  C        3.1506810    -0.1849920    -0.0001670
  C        2.7828300     1.1426020    -0.0001250
  H       -1.0124600     2.2659460     0.0000190
  H       -3.5213850     2.0011240     0.0001460
  H       -4.4778440    -0.3237170     0.0002310
  H       -2.9027010    -2.2653680     0.0001840
  H        4.1496320    -0.6018500    -0.0002240
  H        3.4730597     1.9793626     0.1998540
units angstrom
no_reorient  #important for SAPT in psi4, default
symmetry c1  #important for SAPT in psi4, default
}

set PROPERTIES_ORIGIN ["COM"]
properties('MP2/aug-cc-pvtz', properties = ['dipole'])
--------------------------------------------------------------------------

    Molecular point group: c1
  Charge       = 0
  Multiplicity = 1
  Basis Set: AUG-CC-PVTZ
    Blend: AUG-CC-PVTZ
  Basis Set: (AUG-CC-PVTZ AUX)
    Blend: AUG-CC-PVTZ-JKFIT

    Orbital Energies [Eh]
    ---------------------

    Doubly Occupied:

       1A    -91.995975     2A    -15.579034     3A    -15.574474
       4A    -11.313956     5A    -11.297526     6A    -11.285582
       7A    -11.271612     8A    -11.267663     9A    -11.265624
      10A    -11.251477    11A    -11.250054    12A     -8.996006
      13A     -6.676771    14A     -6.676223    15A     -6.675557
      16A     -1.287650    17A     -1.260398    18A     -1.096648
      19A     -1.068533    20A     -1.062508    21A     -0.986040
      22A     -0.876841    23A     -0.869286    24A     -0.790370
      25A     -0.765624    26A     -0.707278    27A     -0.678654
      28A     -0.669104    29A     -0.638877    30A     -0.593692
      31A     -0.588112    32A     -0.580074    33A     -0.558646
      34A     -0.536222    35A     -0.529414    36A     -0.501558
      37A     -0.444313    38A     -0.424823    39A     -0.398933
      40A     -0.392634    41A     -0.371358    42A     -0.307182

  @DF-RHF Final Energy:  -813.00689099271779

   => Energetics <=

    Nuclear Repulsion Energy =            626.8839622786623522
    One-Electron Energy =               -2357.0570901380187934
    Two-Electron Energy =                 917.1662368666387692
    Total Energy =                       -813.0068909927177856
  Basis Set: (AUG-CC-PVTZ AUX)
    Blend: AUG-CC-PVTZ-RI
    Molecular point group: c1

    Geometry (in Angstrom), charge = 0, multiplicity = 1:

       Center              X                  Y                   Z               Mass
    ------------   -----------------  -----------------  -----------------  -----------------
         S            1.735854231102    -1.169229229420    -0.001352706955    31.972071174400
         N           -1.215253768898    -1.097784229420    -0.001158706955    14.003074004430
         N            1.410360231102     1.399795770580    -0.001299706955    14.003074004430
         C           -0.714788768898     0.155128770580    -0.001202706955    12.000000000000
         C            0.744236231102     0.255485770580    -0.001277706955    12.000000000000
         C           -1.512784768898     1.307849770580    -0.001184706955    12.000000000000
         C           -2.895003768898     1.149740770580    -0.001113706955    12.000000000000
         C           -3.430028768898    -0.140547229420    -0.001066706955    12.000000000000
         C           -2.552223768898    -1.225410229420    -0.001092706955    12.000000000000
         C            3.124699231102    -0.166491229420    -0.001409706955    12.000000000000
         C            2.756848231102     1.161102770580    -0.001367706955    12.000000000000
         H           -1.038441768898     2.284446770580    -0.001223706955     1.007825032230
         H           -3.547366768898     2.019624770580    -0.001096706955     1.007825032230
         H           -4.503825768898    -0.305216229420    -0.001011706955     1.007825032230
         H           -2.928682768898    -2.246867229420    -0.001058706955     1.007825032230
         H            4.123650231102    -0.583349229420    -0.001466706955     1.007825032230
         H            3.447077931102     1.997863370580     0.198611293045     1.007825032230

  Basis Set: AUG-CC-PVTZ
    Blend: AUG-CC-PVTZ
  Basis Set: (AUG-CC-PVTZ AUX)
    Blend: AUG-CC-PVTZ-JKFIT
	 Reference Energy          =    -813.0068909927177856 [Eh]
	 Singles Energy            =      -0.0000000000000000 [Eh]
	 Same-Spin Energy          =      -0.5254867215047883 [Eh]
	 Opposite-Spin Energy      =      -1.5539390976989109 [Eh]
	 Correlation Energy        =      -2.0794258192036992 [Eh]
	 Total Energy              =    -815.0863168119215061 [Eh]

	 ================> DF-SCS-MP2 Energies <==================
	-----------------------------------------------------------
	 SCS Same-Spin Scale       =       0.3333333333333333 [-]
	 SCS Opposite-Spin Scale   =       1.2000000000000000 [-]
	 SCS Same-Spin Energy      =      -0.1751622405015961 [Eh]
	 SCS Opposite-Spin Energy  =      -1.8647269172386931 [Eh]
	 SCS Correlation Energy    =      -2.0398891577402893 [Eh]
	 SCS Total Energy          =    -815.0467801504580621 [Eh]
	-----------------------------------------------------------

  Dipole Moment: [D]
     X:    -0.8297      Y:     0.1710      Z:     0.1460     Total:     0.8597

*** Psi4 exiting successfully. Buy a developer a beer!
