                               Psi4 1.4a2.dev612

  ==> Input File <==

--------------------------------------------------------------------------
#psi4
#
memory 32 gb

molecule  {
0 1
  S        1.7618360    -1.1877300    -0.0001100
  N       -1.1892720    -1.1162850     0.0000840
  N        1.4363420     1.3812950    -0.0000570
  C       -0.6888070     0.1366280     0.0000400
  C        0.7702180     0.2369850    -0.0000350
  C       -1.4868030     1.2893490     0.0000580
  C       -2.8690220     1.1312400     0.0001290
  C       -3.4040470    -0.1590480     0.0001760
  C       -2.5262420    -1.2439110     0.0001500
  C        3.1506810    -0.1849920    -0.0001670
  C        2.7828300     1.1426020    -0.0001250
  H       -1.0124600     2.2659460     0.0000190
  H       -3.5213850     2.0011240     0.0001460
  H       -4.4778440    -0.3237170     0.0002310
  H       -2.9027010    -2.2653680     0.0001840
  H        4.1496320    -0.6018500    -0.0002240
  H        3.4730524     1.9793652     0.0498540
units angstrom
no_reorient  #important for SAPT in psi4, default
symmetry c1  #important for SAPT in psi4, default
}

set PROPERTIES_ORIGIN ["COM"]
properties('MP2/aug-cc-pvtz', properties = ['dipole'])
--------------------------------------------------------------------------

    Molecular point group: c1
  Charge       = 0
  Multiplicity = 1
  Basis Set: AUG-CC-PVTZ
    Blend: AUG-CC-PVTZ
  Basis Set: (AUG-CC-PVTZ AUX)
    Blend: AUG-CC-PVTZ-JKFIT

    Orbital Energies [Eh]
    ---------------------

    Doubly Occupied:

       1A    -91.995722     2A    -15.578931     3A    -15.574351
       4A    -11.313811     5A    -11.297438     6A    -11.285503
       7A    -11.270231     8A    -11.267589     9A    -11.265115
      10A    -11.251392    11A    -11.249970    12A     -8.995749
      13A     -6.676516    14A     -6.675967    15A     -6.675302
      16A     -1.287528    17A     -1.260301    18A     -1.096562
      19A     -1.068463    20A     -1.062328    21A     -0.986461
      22A     -0.876990    23A     -0.869270    24A     -0.790803
      25A     -0.766544    26A     -0.707213    27A     -0.679919
      28A     -0.668991    29A     -0.639581    30A     -0.593803
      31A     -0.587789    32A     -0.581383    33A     -0.558472
      34A     -0.536042    35A     -0.529349    36A     -0.502821
      37A     -0.444241    38A     -0.424702    39A     -0.398864
      40A     -0.392563    41A     -0.371501    42A     -0.307091

  @DF-RHF Final Energy:  -813.00930505006124

   => Energetics <=

    Nuclear Repulsion Energy =            626.9501851288705438
    One-Electron Energy =               -2357.1926649111128427
    Two-Electron Energy =                 917.2331747321810553
    Total Energy =                       -813.0093050500612435
  Basis Set: (AUG-CC-PVTZ AUX)
    Blend: AUG-CC-PVTZ-RI
    Molecular point group: c1

    Geometry (in Angstrom), charge = 0, multiplicity = 1:

       Center              X                  Y                   Z               Mass
    ------------   -----------------  -----------------  -----------------  -----------------
         S            1.735854276509    -1.169229245592    -0.000419680590    31.972071174400
         N           -1.215253723491    -1.097784245592    -0.000225680590    14.003074004430
         N            1.410360276509     1.399795754408    -0.000366680590    14.003074004430
         C           -0.714788723491     0.155128754408    -0.000269680590    12.000000000000
         C            0.744236276509     0.255485754408    -0.000344680590    12.000000000000
         C           -1.512784723491     1.307849754408    -0.000251680590    12.000000000000
         C           -2.895003723491     1.149740754408    -0.000180680590    12.000000000000
         C           -3.430028723491    -0.140547245592    -0.000133680590    12.000000000000
         C           -2.552223723491    -1.225410245592    -0.000159680590    12.000000000000
         C            3.124699276509    -0.166491245592    -0.000476680590    12.000000000000
         C            2.756848276509     1.161102754408    -0.000434680590    12.000000000000
         H           -1.038441723491     2.284446754408    -0.000290680590     1.007825032230
         H           -3.547366723491     2.019624754408    -0.000163680590     1.007825032230
         H           -4.503825723491    -0.305216245592    -0.000078680590     1.007825032230
         H           -2.928682723491    -2.246867245592    -0.000125680590     1.007825032230
         H            4.123650276509    -0.583349245592    -0.000533680590     1.007825032230
         H            3.447070676509     1.997865954408     0.049544319410     1.007825032230

  Basis Set: AUG-CC-PVTZ
    Blend: AUG-CC-PVTZ
  Basis Set: (AUG-CC-PVTZ AUX)
    Blend: AUG-CC-PVTZ-JKFIT
	 Reference Energy          =    -813.0093050500612435 [Eh]
	 Singles Energy            =      -0.0000000000000000 [Eh]
	 Same-Spin Energy          =      -0.5253540092730750 [Eh]
	 Opposite-Spin Energy      =      -1.5536505789808817 [Eh]
	 Correlation Energy        =      -2.0790045882539565 [Eh]
	 Total Energy              =    -815.0883096383151951 [Eh]

	 ================> DF-SCS-MP2 Energies <==================
	-----------------------------------------------------------
	 SCS Same-Spin Scale       =       0.3333333333333333 [-]
	 SCS Opposite-Spin Scale   =       1.2000000000000000 [-]
	 SCS Same-Spin Energy      =      -0.1751180030910250 [Eh]
	 SCS Opposite-Spin Energy  =      -1.8643806947770578 [Eh]
	 SCS Correlation Energy    =      -2.0394986978680829 [Eh]
	 SCS Total Energy          =    -815.0488037479293553 [Eh]
	-----------------------------------------------------------

  Dipole Moment: [D]
     X:    -0.8012      Y:     0.1933      Z:     0.0368     Total:     0.8250

*** Psi4 exiting successfully. Buy a developer a beer!
