                               Psi4 1.4a2.dev612

  ==> Input File <==

--------------------------------------------------------------------------
#psi4
#
memory 32 gb

molecule  {
0 1
  S        1.7618360    -1.1877300    -0.0001100
  N       -1.1892720    -1.1162850     0.0000840
  N        1.4363420     1.3812950    -0.0000570
  C       -0.6888016     0.1366266     0.1000400
  C        0.7702180     0.2369850    -0.0000350
  C       -1.4868030     1.2893490     0.0000580
  C       -2.8690220     1.1312400     0.0001290
  C       -3.4040470    -0.1590480     0.0001760
  C       -2.5262420    -1.2439110     0.0001500
  C        3.1506810    -0.1849920    -0.0001670
  C        2.7828300     1.1426020    -0.0001250
  H       -1.0124600     2.2659460     0.0000190
  H       -3.5213850     2.0011240     0.0001460
  H       -4.4778440    -0.3237170     0.0002310
  H       -2.9027010    -2.2653680     0.0001840
  H        4.1496320    -0.6018500    -0.0002240
  H        3.4730500     1.9793660    -0.0001460
units angstrom
no_reorient  #important for SAPT in psi4, default
symmetry c1  #important for SAPT in psi4, default
}

set PROPERTIES_ORIGIN ["COM"]
properties('MP2/aug-cc-pvtz', properties = ['dipole'])
--------------------------------------------------------------------------

    Molecular point group: c1
  Charge       = 0
  Multiplicity = 1
  Basis Set: AUG-CC-PVTZ
    Blend: AUG-CC-PVTZ
  Basis Set: (AUG-CC-PVTZ AUX)
    Blend: AUG-CC-PVTZ-JKFIT

    Orbital Energies [Eh]
    ---------------------

    Doubly Occupied:

       1A    -91.995411     2A    -15.579694     3A    -15.574011
       4A    -11.314015     5A    -11.298314     6A    -11.285400
       7A    -11.269982     8A    -11.267548     9A    -11.264828
      10A    -11.251889    11A    -11.250973    12A     -8.995467
      13A     -6.676236    14A     -6.675685    15A     -6.675017
      16A     -1.287040    17A     -1.259721    18A     -1.096443
      19A     -1.067990    20A     -1.062057    21A     -0.986182
      22A     -0.876762    23A     -0.868502    24A     -0.790571
      25A     -0.765864    26A     -0.707109    27A     -0.679769
      28A     -0.668495    29A     -0.639758    30A     -0.593814
      31A     -0.587573    32A     -0.580787    33A     -0.558271
      34A     -0.536868    35A     -0.527651    36A     -0.502705
      37A     -0.444199    38A     -0.425148    39A     -0.398416
      40A     -0.391897    41A     -0.371166    42A     -0.306918

  @DF-RHF Final Energy:  -813.00560525756669

   => Energetics <=

    Nuclear Repulsion Energy =            626.7995343062895017
    One-Electron Energy =               -2356.8979848245439825
    Two-Electron Energy =                 917.0928452606879091
    Total Energy =                       -813.0056052575666854
  Basis Set: (AUG-CC-PVTZ AUX)
    Blend: AUG-CC-PVTZ-RI
    Molecular point group: c1

    Geometry (in Angstrom), charge = 0, multiplicity = 1:

       Center              X                  Y                   Z               Mass
    ------------   -----------------  -----------------  -----------------  -----------------
         S            1.735853891500    -1.169229146881    -0.007514928525    31.972071174400
         N           -1.215254108500    -1.097784146881    -0.007320928525    14.003074004430
         N            1.410359891500     1.399795853119    -0.007461928525    14.003074004430
         C           -0.714783708500     0.155127453119     0.092635071475    12.000000000000
         C            0.744235891500     0.255485853119    -0.007439928525    12.000000000000
         C           -1.512785108500     1.307849853119    -0.007346928525    12.000000000000
         C           -2.895004108500     1.149740853119    -0.007275928525    12.000000000000
         C           -3.430029108500    -0.140547146881    -0.007228928525    12.000000000000
         C           -2.552224108500    -1.225410146881    -0.007254928525    12.000000000000
         C            3.124698891500    -0.166491146881    -0.007571928525    12.000000000000
         C            2.756847891500     1.161102853119    -0.007529928525    12.000000000000
         H           -1.038442108500     2.284446853119    -0.007385928525     1.007825032230
         H           -3.547367108500     2.019624853119    -0.007258928525     1.007825032230
         H           -4.503826108500    -0.305216146881    -0.007173928525     1.007825032230
         H           -2.928683108500    -2.246867146881    -0.007220928525     1.007825032230
         H            4.123649891500    -0.583349146881    -0.007628928525     1.007825032230
         H            3.447067891500     1.997866853119    -0.007550928525     1.007825032230

  Basis Set: AUG-CC-PVTZ
    Blend: AUG-CC-PVTZ
  Basis Set: (AUG-CC-PVTZ AUX)
    Blend: AUG-CC-PVTZ-JKFIT
	 Reference Energy          =    -813.0056052575666854 [Eh]
	 Singles Energy            =      -0.0000000000000000 [Eh]
	 Same-Spin Energy          =      -0.5255153983147742 [Eh]
	 Opposite-Spin Energy      =      -1.5539502297317882 [Eh]
	 Correlation Energy        =      -2.0794656280465622 [Eh]
	 Total Energy              =    -815.0850708856132769 [Eh]

	 ================> DF-SCS-MP2 Energies <==================
	-----------------------------------------------------------
	 SCS Same-Spin Scale       =       0.3333333333333333 [-]
	 SCS Opposite-Spin Scale   =       1.2000000000000000 [-]
	 SCS Same-Spin Energy      =      -0.1751717994382581 [Eh]
	 SCS Opposite-Spin Energy  =      -1.8647402756781457 [Eh]
	 SCS Correlation Energy    =      -2.0399120751164039 [Eh]
	 SCS Total Energy          =    -815.0455173326830618 [Eh]
	-----------------------------------------------------------

  Dipole Moment: [D]
     X:    -0.8220      Y:     0.1961      Z:     0.0351     Total:     0.8458

*** Psi4 exiting successfully. Buy a developer a beer!
