                               Psi4 1.4a2.dev612

  ==> Input File <==

--------------------------------------------------------------------------
#psi4
#
memory 32 gb

molecule  {
0 1
  S        1.7618360    -1.1877300    -0.0001100
  N       -1.1892720    -1.1162850     0.0000840
  N        1.4363420     1.3812950    -0.0000570
  C       -0.6888070     0.1366280     0.0000400
  C        0.7702180     0.2369850    -0.0000350
  C       -1.4868030     1.2893490     0.0000580
  C       -2.8690220     1.1312400     0.0001290
  C       -3.4040470    -0.1590480     0.0001760
  C       -2.5262420    -1.2439110     0.0001500
  C        3.1506810    -0.1849920    -0.0001670
  C        2.7828300     1.1426020    -0.0001250
  H       -1.0124746     2.2659408    -0.2999810
  H       -3.5213850     2.0011240     0.0001460
  H       -4.4778440    -0.3237170     0.0002310
  H       -2.9027010    -2.2653680     0.0001840
  H        4.1496320    -0.6018500    -0.0002240
  H        3.4730500     1.9793660    -0.0001460
units angstrom
no_reorient  #important for SAPT in psi4, default
symmetry c1  #important for SAPT in psi4, default
}

set PROPERTIES_ORIGIN ["COM"]
properties('MP2/aug-cc-pvtz', properties = ['dipole'])
--------------------------------------------------------------------------

    Molecular point group: c1
  Charge       = 0
  Multiplicity = 1
  Basis Set: AUG-CC-PVTZ
    Blend: AUG-CC-PVTZ
  Basis Set: (AUG-CC-PVTZ AUX)
    Blend: AUG-CC-PVTZ-JKFIT

    Orbital Energies [Eh]
    ---------------------

    Doubly Occupied:

       1A    -91.995739     2A    -15.579123     3A    -15.574279
       4A    -11.313646     5A    -11.298015     6A    -11.286178
       7A    -11.270074     8A    -11.268048     9A    -11.265173
      10A    -11.253104    11A    -11.251480    12A     -8.995766
      13A     -6.676533    14A     -6.675985    15A     -6.675319
      16A     -1.287551    17A     -1.260516    18A     -1.096352
      19A     -1.068197    20A     -1.062213    21A     -0.986253
      22A     -0.877059    23A     -0.867595    24A     -0.790842
      25A     -0.766338    26A     -0.706136    27A     -0.678079
      28A     -0.668793    29A     -0.635763    30A     -0.592881
      31A     -0.587922    32A     -0.580153    33A     -0.558274
      34A     -0.537396    35A     -0.525467    36A     -0.502637
      37A     -0.444211    38A     -0.424765    39A     -0.398962
      40A     -0.391865    41A     -0.370907    42A     -0.307093

  @DF-RHF Final Energy:  -813.00300824886108

   => Energetics <=

    Nuclear Repulsion Energy =            626.7840733178418304
    One-Electron Energy =               -2356.8688048278663700
    Two-Electron Energy =                 917.0817232611634608
    Total Energy =                       -813.0030082488610788
  Basis Set: (AUG-CC-PVTZ AUX)
    Blend: AUG-CC-PVTZ-RI
    Molecular point group: c1

    Geometry (in Angstrom), charge = 0, multiplicity = 1:

       Center              X                  Y                   Z               Mass
    ------------   -----------------  -----------------  -----------------  -----------------
         S            1.735854382252    -1.169229218223     0.001757380929    31.972071174400
         N           -1.215253617748    -1.097784218223     0.001951380929    14.003074004430
         N            1.410360382252     1.399795781777     0.001810380929    14.003074004430
         C           -0.714788617748     0.155128781777     0.001907380929    12.000000000000
         C            0.744236382252     0.255485781777     0.001832380929    12.000000000000
         C           -1.512784617748     1.307849781777     0.001925380929    12.000000000000
         C           -2.895003617748     1.149740781777     0.001996380929    12.000000000000
         C           -3.430028617748    -0.140547218223     0.002043380929    12.000000000000
         C           -2.552223617748    -1.225410218223     0.002017380929    12.000000000000
         C            3.124699382252    -0.166491218223     0.001700380929    12.000000000000
         C            2.756848382252     1.161102781777     0.001742380929    12.000000000000
         H           -1.038456217748     2.284441581777    -0.298113619071     1.007825032230
         H           -3.547366617748     2.019624781777     0.002013380929     1.007825032230
         H           -4.503825617748    -0.305216218223     0.002098380929     1.007825032230
         H           -2.928682617748    -2.246867218223     0.002051380929     1.007825032230
         H            4.123650382252    -0.583349218223     0.001643380929     1.007825032230
         H            3.447068382252     1.997866781777     0.001721380929     1.007825032230

  Basis Set: AUG-CC-PVTZ
    Blend: AUG-CC-PVTZ
  Basis Set: (AUG-CC-PVTZ AUX)
    Blend: AUG-CC-PVTZ-JKFIT
	 Reference Energy          =    -813.0030082488610788 [Eh]
	 Singles Energy            =      -0.0000000000000000 [Eh]
	 Same-Spin Energy          =      -0.5256625770822396 [Eh]
	 Opposite-Spin Energy      =      -1.5541752031853437 [Eh]
	 Correlation Energy        =      -2.0798377802675834 [Eh]
	 Total Energy              =    -815.0828460291286319 [Eh]

	 ================> DF-SCS-MP2 Energies <==================
	-----------------------------------------------------------
	 SCS Same-Spin Scale       =       0.3333333333333333 [-]
	 SCS Opposite-Spin Scale   =       1.2000000000000000 [-]
	 SCS Same-Spin Energy      =      -0.1752208590274132 [Eh]
	 SCS Opposite-Spin Energy  =      -1.8650102438224123 [Eh]
	 SCS Correlation Energy    =      -2.0402311028498255 [Eh]
	 SCS Total Energy          =    -815.0432393517108949 [Eh]
	-----------------------------------------------------------

  Dipole Moment: [D]
     X:    -0.8164      Y:     0.1515      Z:    -0.1756     Total:     0.8487

*** Psi4 exiting successfully. Buy a developer a beer!
