                               Psi4 1.4a2.dev612

  ==> Input File <==

--------------------------------------------------------------------------
#psi4
#
memory 32 gb

molecule  {
0 1
  S        1.7618360    -1.1877300    -0.0001100
  N       -1.1892720    -1.1162850     0.0000840
  N        1.4363420     1.3812950    -0.0000570
  C       -0.6888043     0.1366273     0.0500400
  C        0.7702180     0.2369850    -0.0000350
  C       -1.4868030     1.2893490     0.0000580
  C       -2.8690220     1.1312400     0.0001290
  C       -3.4040470    -0.1590480     0.0001760
  C       -2.5262420    -1.2439110     0.0001500
  C        3.1506810    -0.1849920    -0.0001670
  C        2.7828300     1.1426020    -0.0001250
  H       -1.0124600     2.2659460     0.0000190
  H       -3.5213850     2.0011240     0.0001460
  H       -4.4778440    -0.3237170     0.0002310
  H       -2.9027010    -2.2653680     0.0001840
  H        4.1496320    -0.6018500    -0.0002240
  H        3.4730500     1.9793660    -0.0001460
units angstrom
no_reorient  #important for SAPT in psi4, default
symmetry c1  #important for SAPT in psi4, default
}

set PROPERTIES_ORIGIN ["COM"]
properties('MP2/aug-cc-pvtz', properties = ['dipole'])
--------------------------------------------------------------------------

    Molecular point group: c1
  Charge       = 0
  Multiplicity = 1
  Basis Set: AUG-CC-PVTZ
    Blend: AUG-CC-PVTZ
  Basis Set: (AUG-CC-PVTZ AUX)
    Blend: AUG-CC-PVTZ-JKFIT

    Orbital Energies [Eh]
    ---------------------

    Doubly Occupied:

       1A    -91.995630     2A    -15.579117     3A    -15.574260
       4A    -11.313855     5A    -11.297655     6A    -11.285473
       7A    -11.270099     8A    -11.267575     9A    -11.265017
      10A    -11.251511    11A    -11.250216    12A     -8.995665
      13A     -6.676433    14A     -6.675883    15A     -6.675217
      16A     -1.287399    17A     -1.260151    18A     -1.096527
      19A     -1.068341    20A     -1.062251    21A     -0.986413
      22A     -0.876940    23A     -0.869075    24A     -0.790769
      25A     -0.766421    26A     -0.707183    27A     -0.679946
      28A     -0.668862    29A     -0.639660    30A     -0.593810
      31A     -0.587716    32A     -0.581301    33A     -0.558413
      34A     -0.536275    35A     -0.528885    36A     -0.502854
      37A     -0.444226    38A     -0.424812    39A     -0.398744
      40A     -0.392391    41A     -0.371425    42A     -0.307042

  @DF-RHF Final Energy:  -813.00849394200259

   => Energetics <=

    Nuclear Repulsion Energy =            626.9158076252426781
    One-Electron Energy =               -2357.1257271498652699
    Two-Electron Energy =                 917.2014255826200042
    Total Energy =                       -813.0084939420025876
  Basis Set: (AUG-CC-PVTZ AUX)
    Blend: AUG-CC-PVTZ-RI
    Molecular point group: c1

    Geometry (in Angstrom), charge = 0, multiplicity = 1:

       Center              X                  Y                   Z               Mass
    ------------   -----------------  -----------------  -----------------  -----------------
         S            1.735854091469    -1.169229198725    -0.003811800163    31.972071174400
         N           -1.215253908531    -1.097784198725    -0.003617800163    14.003074004430
         N            1.410360091469     1.399795801275    -0.003758800163    14.003074004430
         C           -0.714786208531     0.155128101275     0.046338199837    12.000000000000
         C            0.744236091469     0.255485801275    -0.003736800163    12.000000000000
         C           -1.512784908531     1.307849801275    -0.003643800163    12.000000000000
         C           -2.895003908531     1.149740801275    -0.003572800163    12.000000000000
         C           -3.430028908531    -0.140547198725    -0.003525800163    12.000000000000
         C           -2.552223908531    -1.225410198725    -0.003551800163    12.000000000000
         C            3.124699091469    -0.166491198725    -0.003868800163    12.000000000000
         C            2.756848091469     1.161102801275    -0.003826800163    12.000000000000
         H           -1.038441908531     2.284446801275    -0.003682800163     1.007825032230
         H           -3.547366908531     2.019624801275    -0.003555800163     1.007825032230
         H           -4.503825908531    -0.305216198725    -0.003470800163     1.007825032230
         H           -2.928682908531    -2.246867198725    -0.003517800163     1.007825032230
         H            4.123650091469    -0.583349198725    -0.003925800163     1.007825032230
         H            3.447068091469     1.997866801275    -0.003847800163     1.007825032230

  Basis Set: AUG-CC-PVTZ
    Blend: AUG-CC-PVTZ
  Basis Set: (AUG-CC-PVTZ AUX)
    Blend: AUG-CC-PVTZ-JKFIT
	 Reference Energy          =    -813.0084939420025876 [Eh]
	 Singles Energy            =      -0.0000000000000000 [Eh]
	 Same-Spin Energy          =      -0.5253868475101209 [Eh]
	 Opposite-Spin Energy      =      -1.5536993908007823 [Eh]
	 Correlation Energy        =      -2.0790862383109032 [Eh]
	 Total Energy              =    -815.0875801803134664 [Eh]

	 ================> DF-SCS-MP2 Energies <==================
	-----------------------------------------------------------
	 SCS Same-Spin Scale       =       0.3333333333333333 [-]
	 SCS Opposite-Spin Scale   =       1.2000000000000000 [-]
	 SCS Same-Spin Energy      =      -0.1751289491700403 [Eh]
	 SCS Opposite-Spin Energy  =      -1.8644392689609388 [Eh]
	 SCS Correlation Energy    =      -2.0395682181309791 [Eh]
	 SCS Total Energy          =    -815.0480621601335542 [Eh]
	-----------------------------------------------------------

  Dipole Moment: [D]
     X:    -0.8050      Y:     0.1952      Z:     0.0177     Total:     0.8285

*** Psi4 exiting successfully. Buy a developer a beer!
